 Entering Gaussian System, Link 0=g09
 Initial command:
 /home/ana/programs/g09/l1.exe /home/ana/programs/g09/scratch/Gau-702022.inp -scrdir=/home/ana/programs/g09/scratch/
 Entering Link 1 = /home/ana/programs/g09/l1.exe PID=    702024.
  
 Copyright (c) 1988,1990,1992,1993,1995,1998,2003,2009, Gaussian, Inc.
                  All Rights Reserved.
  
 This is part of the Gaussian(R) 09 program.  It is based on
 the Gaussian(R) 03 system (copyright 2003, Gaussian, Inc.),
 the Gaussian(R) 98 system (copyright 1998, Gaussian, Inc.),
 the Gaussian(R) 94 system (copyright 1995, Gaussian, Inc.),
 the Gaussian 92(TM) system (copyright 1992, Gaussian, Inc.),
 the Gaussian 90(TM) system (copyright 1990, Gaussian, Inc.),
 the Gaussian 88(TM) system (copyright 1988, Gaussian, Inc.),
 the Gaussian 86(TM) system (copyright 1986, Carnegie Mellon
 University), and the Gaussian 82(TM) system (copyright 1983,
 Carnegie Mellon University). Gaussian is a federally registered
 trademark of Gaussian, Inc.
  
 This software contains proprietary and confidential information,
 including trade secrets, belonging to Gaussian, Inc.
  
 This software is provided under written license and may be
 used, copied, transmitted, or stored only in accord with that
 written license.
  
 The following legend is applicable only to US Government
 contracts under FAR:
  
                    RESTRICTED RIGHTS LEGEND
  
 Use, reproduction and disclosure by the US Government is
 subject to restrictions as set forth in subparagraphs (a)
 and (c) of the Commercial Computer Software - Restricted
 Rights clause in FAR 52.227-19.
  
 Gaussian, Inc.
 340 Quinnipiac St., Bldg. 40, Wallingford CT 06492
  
  
 ---------------------------------------------------------------
 Warning -- This program may not be used in any manner that
 competes with the business of Gaussian, Inc. or will provide
 assistance to any competitor of Gaussian, Inc.  The licensee
 of this program is prohibited from giving any competitor of
 Gaussian, Inc. access to this program.  By using this program,
 the user acknowledges that Gaussian, Inc. is engaged in the
 business of creating and licensing software in the field of
 computational chemistry and represents and warrants to the
 licensee that it is not a competitor of Gaussian, Inc. and that
 it will not use this program in any manner prohibited above.
 ---------------------------------------------------------------
  

 Cite this work as:
 Gaussian 09, Revision A.01,
 M. J. Frisch, G. W. Trucks, H. B. Schlegel, G. E. Scuseria, 
 M. A. Robb, J. R. Cheeseman, G. Scalmani, V. Barone, B. Mennucci, 
 G. A. Petersson, H. Nakatsuji, M. Caricato, X. Li, H. P. Hratchian, 
 A. F. Izmaylov, J. Bloino, G. Zheng, J. L. Sonnenberg, M. Hada, 
 M. Ehara, K. Toyota, R. Fukuda, J. Hasegawa, M. Ishida, T. Nakajima, 
 Y. Honda, O. Kitao, H. Nakai, T. Vreven, J. A. Montgomery, Jr., 
 J. E. Peralta, F. Ogliaro, M. Bearpark, J. J. Heyd, E. Brothers, 
 K. N. Kudin, V. N. Staroverov, R. Kobayashi, J. Normand, 
 K. Raghavachari, A. Rendell, J. C. Burant, S. S. Iyengar, J. Tomasi, 
 M. Cossi, N. Rega, J. M. Millam, M. Klene, J. E. Knox, J. B. Cross, 
 V. Bakken, C. Adamo, J. Jaramillo, R. Gomperts, R. E. Stratmann, 
 O. Yazyev, A. J. Austin, R. Cammi, C. Pomelli, J. W. Ochterski, 
 R. L. Martin, K. Morokuma, V. G. Zakrzewski, G. A. Voth, 
 P. Salvador, J. J. Dannenberg, S. Dapprich, A. D. Daniels, 
 O. Farkas, J. B. Foresman, J. V. Ortiz, J. Cioslowski, 
 and D. J. Fox, Gaussian, Inc., Wallingford CT, 2009.
 
 ******************************************
 Gaussian 09:  EM64L-G09RevA.01  8-May-2009
                24-Sep-2021 
 ******************************************
 %NPROC=4
 Will use up to    4 processors via shared memory.
 %NoSave
 ------------------------------
 #HF/6-31G* Opt=Z-matrix NoSymm
 ------------------------------
 1/10=7,18=40,38=1/1,3;
 2/12=2,15=1,17=6,18=5,29=3,40=1/2;
 3/5=1,6=6,7=1,11=9,16=1,25=1,30=1,71=1/1,2,3;
 4//1;
 5/5=2,38=5/2;
 6/7=2,8=2,9=2,10=2,28=1/1;
 7/29=1,30=1/1,2,3,16;
 1/10=7,18=40/3(2);
 2/15=1,29=3/2;
 99//99;
 2/15=1,29=3/2;
 3/5=1,6=6,7=1,11=9,16=1,25=1,30=1,71=1/1,2,3;
 4/5=5,16=3/1;
 5/5=2,38=5/2;
 7/30=1/1,2,3,16;
 1/18=40/3(-5);
 2/15=1,29=3/2;
 6/7=2,8=2,9=2,10=2,19=2,28=1/1;
 99/9=1/99;
 ------------------------------
 water interaction with atom F8
 ------------------------------
 Symbolic Z-matrix:
 Charge =  0 Multiplicity = 1
 9                    -1   -1.9693    2.05368   0.00007 
 6                    -1   -1.22225   0.94423   0.00003 
 6                    -1    0.14003   1.0574   -0.00002 
 6                    -1    0.92795  -0.12364  -0.00008 
 6                    -1    2.41466  -0.01865  -0.00001 
 9                    -1    3.00708  -1.23461  -0.00056 
 9                    -1    2.85829   0.65448  -1.08602 
 9                    -1    2.85827   0.6535    1.08665 
 6                    -1    0.30654  -1.34149  -0.00009 
 7                    -1   -1.05417  -1.38997  -0.00006 
 6                    -1   -1.9305   -0.3121    0. 
 16                   -1   -3.57098  -0.50661   0.00003 
 1                    -1    0.59686   2.0431   -0.00002 
 1                    -1    0.83176  -2.28899  -0.00015 
 1                    -1   -1.52148  -2.29639  -0.00009 
 X                    8    RDUM     5    ADUM     4    DDUM     0
 X                    16   RDUM     8    ADUM     5    DDUM     0
 H1                   8    RX       16   ADUM     17   DH1      0
 X                    18   RDUM     8    ADUM     16   DDUM     0
 OH2                  18   ROH      19   ADUM     8    DOH2     0
 H2                   20   ROH      18   AHOH     16   DH2      0
       Variables:
  RX                    2.3513                   
       Constants:
  RDUM                  1.                       
  ROH                   0.9572                   
  ADUM                 90.                       
  AHOH                104.52                     
  DDUM                  0.                       
  DH1                 180.                       
  DOH2                180.                       
  DH2                   0.                       
 

 GradGradGradGradGradGradGradGradGradGradGradGradGradGradGradGradGradGrad
 Berny optimization.
 Initialization pass.
                       ----------------------------
                       !    Initial Parameters    !
                       ! (Angstroms and Degrees)  !
 ----------------------                            ----------------------
 !      Name          Value   Derivative information (Atomic Units)     !
 ------------------------------------------------------------------------
 !       RX          2.3513   estimate D2E/DX2                          !
 !      RDUM         1.0      Frozen                                    !
 !       ROH         0.9572   Frozen                                    !
 !      ADUM        90.0      Frozen                                    !
 !      AHOH       104.52     Frozen                                    !
 !      DDUM         0.0      Frozen                                    !
 !       DH1       180.0      Frozen                                    !
 !      DOH2       180.0      Frozen                                    !
 !       DH2         0.0      Frozen                                    !
 ------------------------------------------------------------------------
 Trust Radius=3.00D-01 FncErr=1.00D-07 GrdErr=1.00D-07
 Number of steps in this run=  20 maximum allowed number of steps= 100.
 GradGradGradGradGradGradGradGradGradGradGradGradGradGradGradGradGradGrad

 ---------------------------------------------------------------------------------------------------
                            Z-MATRIX (ANGSTROMS AND DEGREES)
   CD    Cent   Atom    N1       Length/X        N2       Alpha/Y        N3        Beta/Z          J
 ---------------------------------------------------------------------------------------------------
      1      1  F       -1  -1.969300          2.053680          0.000070
      2      2  C       -1  -1.222250          0.944230          0.000030
      3      3  C       -1   0.140030          1.057400         -0.000020
      4      4  C       -1   0.927950         -0.123640         -0.000080
      5      5  C       -1   2.414660         -0.018650         -0.000010
      6      6  F       -1   3.007080         -1.234610         -0.000560
      7      7  F       -1   2.858290          0.654480         -1.086020
      8      8  F       -1   2.858270          0.653500          1.086650
      9      9  C       -1   0.306540         -1.341490         -0.000090
     10     10  N       -1  -1.054170         -1.389970         -0.000060
     11     11  C       -1  -1.930500         -0.312100          0.000000
     12     12  S       -1  -3.570980         -0.506610          0.000030
     13     13  H       -1   0.596860          2.043100         -0.000020
     14     14  H       -1   0.831760         -2.288990         -0.000150
     15     15  H       -1  -1.521480         -2.296390         -0.000090
     16         X        8   1.000000(    15)      5   90.000(    34)      4    0.000(    52)      0
     17         X       16   1.000000(    16)      8   90.000(    35)      5    0.000(    53)      0
     18     16  H        8   2.351300(    17)     16   90.000(    36)     17  180.000(    54)      0
     19         X       18   1.000000(    18)      8   90.000(    37)     16    0.000(    55)      0
     20     17  O       18   0.957200(    19)     19   90.000(    38)      8  180.000(    56)      0
     21     18  H       20   0.957200(    20)     18  104.520(    39)     16    0.000(    57)      0
 ---------------------------------------------------------------------------------------------------
                         Z-Matrix orientation:                         
 ---------------------------------------------------------------------
 Center     Atomic      Atomic             Coordinates (Angstroms)
 Number     Number       Type             X           Y           Z
 ---------------------------------------------------------------------
      1          9           0       -1.969300    2.053680    0.000070
      2          6           0       -1.222250    0.944230    0.000030
      3          6           0        0.140030    1.057400   -0.000020
      4          6           0        0.927950   -0.123640   -0.000080
      5          6           0        2.414660   -0.018650   -0.000010
      6          9           0        3.007080   -1.234610   -0.000560
      7          9           0        2.858290    0.654480   -1.086020
      8          9           0        2.858270    0.653500    1.086650
      9          6           0        0.306540   -1.341490   -0.000090
     10          7           0       -1.054170   -1.389970   -0.000060
     11          6           0       -1.930500   -0.312100    0.000000
     12         16           0       -3.570980   -0.506610    0.000030
     13          1           0        0.596860    2.043100   -0.000020
     14          1           0        0.831760   -2.288990   -0.000150
     15          1           0       -1.521480   -2.296390   -0.000090
     16         -1           0        1.915537    0.771037    1.398802
     17         -1           0        1.587558    0.274088    0.595390
     18          1           0        3.629448    1.821975    2.975714
     19         -1           0        2.686714    1.939511    3.287867
     20          8           0        3.943389    2.297654    3.744741
     21          1           0        3.148538    2.525827    4.226799
 ---------------------------------------------------------------------
                    Distance matrix (angstroms):
                    1          2          3          4          5
     1  F    0.000000
     2  C    1.337521   0.000000
     3  C    2.332777   1.366973   0.000000
     4  C    3.624194   2.400772   1.419744   0.000000
     5  C    4.849088   3.762214   2.516312   1.490413   0.000000
     6  F    5.964663   4.757581   3.670597   2.357337   1.352598
     7  F    5.142274   4.232525   2.954772   2.347541   1.352527
     8  F    5.142625   4.232719   2.955134   2.347566   1.352555
     9  C    4.087374   2.749857   2.404662   1.367227   2.488790
    10  N    3.563171   2.340244   2.723184   2.352104   3.730054
    11  C    2.366098   1.442215   2.482463   2.864656   4.355058
    12  S    3.020011   2.760701   4.027123   4.515201   6.005497
    13  H    2.566182   2.125247   1.086415   2.191890   2.748674
    14  H    5.167661   3.830492   3.417136   2.167485   2.767673
    15  H    4.373060   3.254406   3.742796   3.274225   4.547669
    16  X    4.323608   3.439806   2.278406   1.932006   1.682084
    17  X    4.021516   2.949332   1.750265   0.973578   1.060328
    18  H    6.344614   5.758828   4.649258   4.465295   3.703855
    19  X    5.700975   5.203889   4.251343   4.261507   3.836475
    20  O    7.002998   6.522150   5.479690   5.383235   4.661055
    21  H    6.654354   6.282580   5.391975   5.460512   4.987871
                    6          7          8          9         10
     6  F    0.000000
     7  F    2.183809   0.000000
     8  F    2.183834   2.172670   0.000000
     9  C    2.702654   3.416807   3.416477   0.000000
    10  N    4.064221   4.546034   4.545756   1.361573   0.000000
    11  C    5.023019   5.004620   5.004549   2.462517   1.389157
    12  S    6.618222   6.622926   6.622828   3.966382   2.667332
    13  H    4.068482   2.867355   2.868068   3.397019   3.809445
    14  H    2.417382   3.734964   3.734451   1.083334   2.089251
    15  H    4.651369   5.391592   5.391203   2.062399   1.019792
    16  X    2.678115   2.660209   1.000000   3.001423   3.930130
    17  X    2.155544   2.141634   1.414214   2.146088   3.178423
    18  H    4.311410   4.295976   2.351300   5.468513   6.411559
    19  X    4.581641   4.561976   2.555115   5.219278   5.990837
    20  O    5.232670   5.216676   3.308500   6.363474   7.252427
    21  H    5.659634   5.640233   3.667479   6.395286   7.131799
                   11         12         13         14         15
    11  C    0.000000
    12  S    1.651971   0.000000
    13  H    3.454637   4.885889   0.000000
    14  H    3.396789   4.749842   4.338454   0.000000
    15  H    2.026007   2.720986   4.828927   2.353252   0.000000
    16  X    4.233419   5.804379   2.305159   3.534884   4.814467
    17  X    3.615914   5.251138   2.113148   2.737749   4.077753
    18  H    6.657490   8.131615   4.254466   5.795072   7.235219
    19  X    6.099056   7.480115   3.897233   5.668521   6.816335
    20  O    7.438849   8.851695   5.028647   6.689076   8.061873
    21  H    7.191404   8.497833   4.960855   6.813004   7.932808
                   16         17         18         19         20
    16  X    0.000000
    17  X    1.000000   0.000000
    18  H    2.555115   3.497315   0.000000
    19  X    2.351300   3.351300   1.000000   0.000000
    20  O    3.456324   4.423027   0.957200   1.384280   0.000000
    21  H    3.549246   4.549079   1.513901   1.199434   0.957200
                   21
    21  H    0.000000
 Symmetry turned off by external request.
 Stoichiometry    C6H5F4NOS
 Framework group  C1[X(C6H5F4NOS)]
 Deg. of freedom    48
 Full point group                 C1      NOp   1
 Rotational constants (GHZ):      0.9910316      0.3185182      0.2791790
 Standard basis: 6-31G(d) (6D, 7F)
 Integral buffers will be    131072 words long.
 Raffenetti 1 integral format.
 Two-electron integral symmetry is turned off.
   209 basis functions,   408 primitive gaussians,   209 cartesian basis functions
    54 alpha electrons       54 beta electrons
       nuclear repulsion energy       903.7514998993 Hartrees.
 NAtoms=   18 NActive=   18 NUniq=   18 SFac= 7.50D-01 NAtFMM=   80 NAOKFM=F Big=F
 One-electron integrals computed using PRISM.
 NBasis=   209 RedAO= T  NBF=   209
 NBsUse=   209 1.00D-06 NBFU=   209
 Harris functional with IExCor=  205 diagonalized for initial guess.
 ExpMin= 1.17D-01 ExpMax= 2.19D+04 ExpMxC= 3.30D+03 IAcc=1 IRadAn=         1 AccDes= 0.00D+00
 HarFok:  IExCor=  205 AccDes= 0.00D+00 IRadAn=         1 IDoV= 1
 ScaDFX=  1.000000  1.000000  1.000000  1.000000
 FoFCou: FMM=F IPFlag=           0 FMFlag=      100000 FMFlg1=           0
         NFxFlg=           0 DoJE=T BraDBF=F KetDBF=T FulRan=T
         Omega=  0.000000  0.000000  1.000000  0.000000  0.000000 ICntrl=     500 IOpCl=  0
         NMat0=    1 NMatS0=    1 NMatT0=    0 NMatD0=    1 NMtDS0=    0 NMtDT0=    0
         I1Cent=           4 NGrid=           0.
 Symmetry not used in FoFCou.
 Requested convergence on RMS density matrix=1.00D-08 within 128 cycles.
 Requested convergence on MAX density matrix=1.00D-06.
 Requested convergence on             energy=1.00D-06.
 No special actions if energy rises.
 Integral accuracy reduced to 1.0D-05 until final iterations.
 Initial convergence to 1.0D-05 achieved.  Increase integral accuracy.
 SCF Done:  E(RHF) =  -1154.67413402     A.U. after   15 cycles
             Convg  =    0.5530D-08             -V/T =  2.0019

 **********************************************************************

            Population analysis using the SCF density.

 **********************************************************************

 Alpha  occ. eigenvalues --  -91.90873 -26.37480 -26.37354 -26.36526 -26.33859
 Alpha  occ. eigenvalues --  -20.55711 -15.69135 -11.55027 -11.38237 -11.37639
 Alpha  occ. eigenvalues --  -11.36632 -11.31691 -11.30835  -8.91960  -6.60287
 Alpha  occ. eigenvalues --   -6.60011  -6.59884  -1.74967  -1.65979  -1.65306
 Alpha  occ. eigenvalues --   -1.65109  -1.35973  -1.33908  -1.17651  -1.12505
 Alpha  occ. eigenvalues --   -1.03596  -0.97766  -0.93159  -0.88725  -0.85473
 Alpha  occ. eigenvalues --   -0.84561  -0.84253  -0.77522  -0.76381  -0.74318
 Alpha  occ. eigenvalues --   -0.73182  -0.72385  -0.71732  -0.70724  -0.70423
 Alpha  occ. eigenvalues --   -0.68511  -0.68229  -0.67002  -0.64537  -0.62951
 Alpha  occ. eigenvalues --   -0.61271  -0.59912  -0.56818  -0.52975  -0.49517
 Alpha  occ. eigenvalues --   -0.47080  -0.43693  -0.34491  -0.31393
 Alpha virt. eigenvalues --    0.04039   0.08237   0.17291   0.21493   0.24078
 Alpha virt. eigenvalues --    0.24829   0.26005   0.26118   0.29120   0.31271
 Alpha virt. eigenvalues --    0.33513   0.34958   0.38884   0.40808   0.42101
 Alpha virt. eigenvalues --    0.43734   0.46249   0.49070   0.53754   0.55083
 Alpha virt. eigenvalues --    0.56328   0.59356   0.60803   0.63930   0.66216
 Alpha virt. eigenvalues --    0.67387   0.71456   0.72600   0.73120   0.74915
 Alpha virt. eigenvalues --    0.76719   0.77454   0.82489   0.84048   0.87032
 Alpha virt. eigenvalues --    0.88636   0.89450   0.91722   0.95240   0.99365
 Alpha virt. eigenvalues --    1.01775   1.02272   1.02571   1.04180   1.07074
 Alpha virt. eigenvalues --    1.08816   1.09394   1.12455   1.13198   1.14810
 Alpha virt. eigenvalues --    1.15654   1.17004   1.17283   1.18111   1.24015
 Alpha virt. eigenvalues --    1.27918   1.29119   1.30852   1.32602   1.33765
 Alpha virt. eigenvalues --    1.34362   1.36805   1.40892   1.41622   1.41936
 Alpha virt. eigenvalues --    1.44449   1.46947   1.51586   1.59529   1.59970
 Alpha virt. eigenvalues --    1.60869   1.62766   1.63235   1.63844   1.64603
 Alpha virt. eigenvalues --    1.65562   1.66952   1.69176   1.69651   1.71534
 Alpha virt. eigenvalues --    1.73464   1.75790   1.76695   1.80874   1.86076
 Alpha virt. eigenvalues --    1.91167   1.91891   1.93158   1.99418   2.02326
 Alpha virt. eigenvalues --    2.03640   2.03924   2.05421   2.07026   2.08601
 Alpha virt. eigenvalues --    2.09588   2.11412   2.12137   2.17546   2.19789
 Alpha virt. eigenvalues --    2.21948   2.22028   2.24070   2.27952   2.29194
 Alpha virt. eigenvalues --    2.29870   2.32263   2.33242   2.34140   2.35311
 Alpha virt. eigenvalues --    2.37406   2.38667   2.42771   2.44530   2.45163
 Alpha virt. eigenvalues --    2.46544   2.51749   2.60241   2.61473   2.63595
 Alpha virt. eigenvalues --    2.64947   2.67747   2.74653   2.82337   2.84061
 Alpha virt. eigenvalues --    2.84131   2.90770   2.92382   2.92822   2.95003
 Alpha virt. eigenvalues --    2.99750   3.06626   3.09055   3.16733   3.21580
 Alpha virt. eigenvalues --    3.29024   3.37208   3.38394   3.42440   3.44815
 Alpha virt. eigenvalues --    3.49020   3.70721   4.02296   4.35941   4.39659
 Alpha virt. eigenvalues --    4.44598   4.47786   4.59629   4.63706   4.72678
 Alpha virt. eigenvalues --    4.81605   5.02510   5.16420   5.57349   6.02571
          Condensed to atoms (all electrons):
              1          2          3          4          5          6
     1  F    9.159100   0.267942  -0.033787   0.002214  -0.000015   0.000000
     2  C    0.267942   4.575906   0.569961  -0.026568   0.000792  -0.000019
     3  C   -0.033787   0.569961   5.071926   0.352815  -0.012552   0.002182
     4  C    0.002214  -0.026568   0.352815   5.207988   0.418804  -0.045286
     5  C   -0.000015   0.000792  -0.012552   0.418804   3.550292   0.290767
     6  F    0.000000  -0.000019   0.002182  -0.045286   0.290767   9.183354
     7  F    0.000000   0.000293   0.005079  -0.055384   0.286419  -0.030758
     8  F    0.000000   0.000292   0.005119  -0.054051   0.273368  -0.030180
     9  C    0.000132  -0.023011  -0.054589   0.592247  -0.020964   0.005425
    10  N    0.001383  -0.053462  -0.021192  -0.035885   0.001227   0.000238
    11  C   -0.040746   0.377315  -0.079134  -0.001233   0.000082   0.000002
    12  S    0.003495  -0.083543   0.001593  -0.000047   0.000006   0.000000
    13  H   -0.000269  -0.016950   0.368690  -0.030615  -0.000259   0.000035
    14  H    0.000000  -0.000114   0.001803  -0.022669  -0.000140   0.004981
    15  H   -0.000018   0.003854  -0.000572   0.002344  -0.000015   0.000001
    16  H    0.000000   0.000000   0.000008   0.000070   0.000079   0.000011
    17  O    0.000000   0.000000   0.000000  -0.000003   0.000011   0.000000
    18  H    0.000000   0.000000   0.000000   0.000000   0.000000   0.000000
              7          8          9         10         11         12
     1  F    0.000000   0.000000   0.000132   0.001383  -0.040746   0.003495
     2  C    0.000293   0.000292  -0.023011  -0.053462   0.377315  -0.083543
     3  C    0.005079   0.005119  -0.054589  -0.021192  -0.079134   0.001593
     4  C   -0.055384  -0.054051   0.592247  -0.035885  -0.001233  -0.000047
     5  C    0.286419   0.273368  -0.020964   0.001227   0.000082   0.000006
     6  F   -0.030758  -0.030180   0.005425   0.000238   0.000002   0.000000
     7  F    9.196319  -0.033460   0.000508  -0.000006  -0.000002   0.000000
     8  F   -0.033460   9.210253   0.000479  -0.000005  -0.000002   0.000000
     9  C    0.000508   0.000479   4.732463   0.266742  -0.038431   0.003295
    10  N   -0.000006  -0.000005   0.266742   7.235671   0.211496  -0.104404
    11  C   -0.000002  -0.000002  -0.038431   0.211496   4.957018   0.447467
    12  S    0.000000   0.000000   0.003295  -0.104404   0.447467  15.943894
    13  H    0.000905   0.000896   0.002411  -0.000262   0.002624  -0.000056
    14  H    0.000083   0.000083   0.379790  -0.031838   0.000955  -0.000131
    15  H    0.000000   0.000000  -0.021464   0.309777  -0.017807   0.013694
    16  H    0.000013   0.008634   0.000000   0.000000   0.000000   0.000000
    17  O    0.000000  -0.000750   0.000000   0.000000   0.000000   0.000000
    18  H    0.000000  -0.000022   0.000000   0.000000   0.000000   0.000000
             13         14         15         16         17         18
     1  F   -0.000269   0.000000  -0.000018   0.000000   0.000000   0.000000
     2  C   -0.016950  -0.000114   0.003854   0.000000   0.000000   0.000000
     3  C    0.368690   0.001803  -0.000572   0.000008   0.000000   0.000000
     4  C   -0.030615  -0.022669   0.002344   0.000070  -0.000003   0.000000
     5  C   -0.000259  -0.000140  -0.000015   0.000079   0.000011   0.000000
     6  F    0.000035   0.004981   0.000001   0.000011   0.000000   0.000000
     7  F    0.000905   0.000083   0.000000   0.000013   0.000000   0.000000
     8  F    0.000896   0.000083   0.000000   0.008634  -0.000750  -0.000022
     9  C    0.002411   0.379790  -0.021464   0.000000   0.000000   0.000000
    10  N   -0.000262  -0.031838   0.309777   0.000000   0.000000   0.000000
    11  C    0.002624   0.000955  -0.017807   0.000000   0.000000   0.000000
    12  S   -0.000056  -0.000131   0.013694   0.000000   0.000000   0.000000
    13  H    0.393261  -0.000062   0.000008   0.000002   0.000000   0.000000
    14  H   -0.000062   0.379627  -0.002110   0.000000   0.000000   0.000000
    15  H    0.000008  -0.002110   0.269608   0.000000   0.000000   0.000000
    16  H    0.000002   0.000000   0.000000   0.309486   0.262025  -0.018476
    17  O    0.000000   0.000000   0.000000   0.262025   8.350909   0.265255
    18  H    0.000000   0.000000   0.000000  -0.018476   0.265255   0.323114
 Mulliken atomic charges:
              1
     1  F   -0.359432
     2  C    0.407312
     3  C   -0.177351
     4  C   -0.304739
     5  C    1.212099
     6  F   -0.380754
     7  F   -0.370010
     8  F   -0.380656
     9  C    0.174967
    10  N   -0.779478
    11  C    0.180396
    12  S   -0.225265
    13  H    0.279640
    14  H    0.289740
    15  H    0.442699
    16  H    0.438149
    17  O   -0.877446
    18  H    0.430130
 Sum of Mulliken atomic charges =   0.00000
 Mulliken charges with hydrogens summed into heavy atoms:
              1
     1  F   -0.359432
     2  C    0.407312
     3  C    0.102289
     4  C   -0.304739
     5  C    1.212099
     6  F   -0.380754
     7  F   -0.370010
     8  F   -0.380656
     9  C    0.464707
    10  N   -0.336779
    11  C    0.180396
    12  S   -0.225265
    17  O   -0.009168
 Sum of Mulliken charges with hydrogens summed into heavy atoms =   0.00000
 Electronic spatial extent (au):  <R**2>=           3869.4787
 Charge=              0.0000 electrons
 Dipole moment (field-independent basis, Debye):
    X=              1.2123    Y=             -3.2821    Z=             -0.7751  Tot=              3.5837
 Quadrupole moment (field-independent basis, Debye-Ang):
   XX=           -120.7538   YY=            -73.4126   ZZ=            -84.8906
   XY=             -5.1866   XZ=            -11.0760   YZ=             -2.0898
 Traceless Quadrupole moment (field-independent basis, Debye-Ang):
   XX=            -27.7348   YY=             19.6064   ZZ=              8.1284
   XY=             -5.1866   XZ=            -11.0760   YZ=             -2.0898
 Octapole moment (field-independent basis, Debye-Ang**2):
  XXX=            -60.9615  YYY=            -61.2955  ZZZ=            -81.8137  XYY=            -23.7796
  XXY=            -55.9340  XXZ=            -95.5556  XZZ=            -53.9096  YZZ=            -15.1055
  YYZ=            -30.4061  XYZ=            -27.8874
 Hexadecapole moment (field-independent basis, Debye-Ang**3):
 XXXX=          -3687.3117 YYYY=           -680.2465 ZZZZ=           -693.7758 XXXY=           -445.0175
 XXXZ=           -656.9841 YYYX=           -235.6564 YYYZ=           -184.7256 ZZZX=           -452.4185
 ZZZY=           -162.7667 XXYY=           -766.9100 XXZZ=           -922.1696 YYZZ=           -243.8664
 XXYZ=           -231.2041 YYXZ=           -165.9225 ZZXY=           -172.7562
 N-N= 9.037514998993D+02 E-N=-4.544848090649D+03  KE= 1.152539215135D+03
 Calling FoFJK, ICntrl=      2127 FMM=F ISym2X=0 I1Cent= 0 IOpClX= 0 NMat=1 NMatS=1 NMatT=0.
 -------------------------------------------------------------------
 Center     Atomic                   Forces (Hartrees/Bohr)
 Number     Number              X              Y              Z
 -------------------------------------------------------------------
      1        9           0.000000000    0.000000000    0.000000000
      2        6           0.000000000    0.000000000    0.000000000
      3        6           0.000000000    0.000000000    0.000000000
      4        6           0.000000000    0.000000000    0.000000000
      5        6           0.000000000    0.000000000    0.000000000
      6        9           0.000000000    0.000000000    0.000000000
      7        9           0.000000000    0.000000000    0.000000000
      8        9           0.000000000    0.000000000    0.000000000
      9        6           0.000000000    0.000000000    0.000000000
     10        7           0.000000000    0.000000000    0.000000000
     11        6           0.000000000    0.000000000    0.000000000
     12       16           0.000000000    0.000000000    0.000000000
     13        1           0.000000000    0.000000000    0.000000000
     14        1           0.000000000    0.000000000    0.000000000
     15        1           0.000000000    0.000000000    0.000000000
     16        1           0.005238992    0.004977523    0.008062112
     17        8          -0.014610302   -0.003114710   -0.003711285
     18        1           0.009613574   -0.001900815   -0.004287627
 -------------------------------------------------------------------
 Cartesian Forces:  Max     0.014610302 RMS     0.002945725
 -----------------------------------------------------------------------------------------------
                       Internal Coordinate Forces (Hartree/Bohr or radian)
  Cent   Atom   N1       Length/X         N2         Alpha/Y        N3         Beta/Z          J
 -----------------------------------------------------------------------------------------------
      1  F 
      2  C 
      3  C 
      4  C 
      5  C 
      6  F 
      7  F 
      8  F 
      9  C 
     10  N 
     11  C 
     12  S 
     13  H 
     14  H 
     15  H 
         X        8   0.000000(     1)      5   0.000663(     7)      4   0.000077(    13)     0
         X       16   0.000000(     2)      8   0.000000(     8)      5  -0.000288(    14)     0
     16  H        8   0.000111(     3)     16   0.000663(     9)     17   0.000288(    15)     0
         X       18   0.000000(     4)      8  -0.000284(    10)     16   0.000000(    16)     0
     17  O       18  -0.010558(     5)     19  -0.000284(    11)      8   0.000115(    17)     0
     18  H       20  -0.010595(     6)     18   0.002654(    12)     16   0.000077(    18)     0
 -----------------------------------------------------------------------------------------------
 Internal  Forces:  Max     0.010595449 RMS     0.003590219

 GradGradGradGradGradGradGradGradGradGradGradGradGradGradGradGradGradGrad
 Berny optimization.
 Search for a local minimum.
 Step number   1 out of a maximum of   20
 All quantities printed in internal units (Hartrees-Bohrs-Radians)
 Second derivative matrix not updated -- first step.
 The second derivative matrix:
                          RX       RDUM       ROH      ADUM      AHOH
           RX           0.02532
           RDUM         0.00000   0.00000
           ROH          0.00000   0.00000   1.12160
           ADUM         0.00000   0.00000   0.00000   2.14546
           AHOH         0.00000   0.00000   0.00000   0.00000   0.16000
           DDUM         0.00000   0.00000   0.00000   0.08002   0.00000
           DH1          0.00000   0.00000   0.00000  -0.08002   0.00000
           DOH2         0.00000   0.00000   0.00000  -0.12502   0.00000
           DH2          0.00000   0.00000   0.00000   0.00000   0.00000
                         DDUM       DH1      DOH2       DH2
           DDUM         0.18244
           DH1         -0.18244   0.18244
           DOH2         0.00000   0.00000   0.28507
           DH2          0.00000   0.00000   0.00000   0.00000
     Eigenvalues ---    0.025321000.000001000.000001000.000001000.00000
     Eigenvalues --- 1000.000001000.000001000.000001000.00000
 RFO step:  Lambda=-4.89667870D-07 EMin= 2.53198400D-02
 Linear search not attempted -- first point.
 Variable       Old X    -DE/DX   Delta X   Delta X   Delta X     New X
                                 (Linear)    (Quad)   (Total)
    RX        4.44331   0.00011   0.00000   0.00440   0.00440   4.44771
   RDUM       1.88973   0.00000   0.00000   0.00000   0.00000   1.88973
   ROH        1.80885  -0.02115   0.00000   0.00000   0.00000   1.80885
   ADUM       1.57080   0.00076   0.00000   0.00000   0.00000   1.57080
   AHOH       1.82422   0.00265   0.00000   0.00000   0.00000   1.82422
   DDUM       0.00000  -0.00021   0.00000   0.00000   0.00000   0.00000
   DH1        3.14159   0.00029   0.00000   0.00000   0.00000   3.14159
   DOH2       3.14159   0.00012   0.00000   0.00000   0.00000   3.14159
   DH2        0.00000   0.00008   0.00000   0.00000   0.00000   0.00000
         Item               Value     Threshold  Converged?
 Maximum Force            0.000111     0.000450     YES
 RMS     Force            0.000111     0.000300     YES
 Maximum Displacement     0.004398     0.001800     NO 
 RMS     Displacement     0.001466     0.001200     NO 
 Predicted change in Energy=-2.448339D-07
 GradGradGradGradGradGradGradGradGradGradGradGradGradGradGradGradGradGrad

 ---------------------------------------------------------------------------------------------------
                            Z-MATRIX (ANGSTROMS AND DEGREES)
   CD    Cent   Atom    N1       Length/X        N2       Alpha/Y        N3        Beta/Z          J
 ---------------------------------------------------------------------------------------------------
      1      1  F       -1  -1.969300          2.053680          0.000070
      2      2  C       -1  -1.222250          0.944230          0.000030
      3      3  C       -1   0.140030          1.057400         -0.000020
      4      4  C       -1   0.927950         -0.123640         -0.000080
      5      5  C       -1   2.414660         -0.018650         -0.000010
      6      6  F       -1   3.007080         -1.234610         -0.000560
      7      7  F       -1   2.858290          0.654480         -1.086020
      8      8  F       -1   2.858270          0.653500          1.086650
      9      9  C       -1   0.306540         -1.341490         -0.000090
     10     10  N       -1  -1.054170         -1.389970         -0.000060
     11     11  C       -1  -1.930500         -0.312100          0.000000
     12     12  S       -1  -3.570980         -0.506610          0.000030
     13     13  H       -1   0.596860          2.043100         -0.000020
     14     14  H       -1   0.831760         -2.288990         -0.000150
     15     15  H       -1  -1.521480         -2.296390         -0.000090
     16         X        8   1.000000(    15)      5   90.000(    34)      4    0.000(    52)      0
     17         X       16   1.000000(    16)      8   90.000(    35)      5    0.000(    53)      0
     18     16  H        8   2.353627(    17)     16   90.000(    36)     17  180.000(    54)      0
     19         X       18   1.000000(    18)      8   90.000(    37)     16    0.000(    55)      0
     20     17  O       18   0.957200(    19)     19   90.000(    38)      8  180.000(    56)      0
     21     18  H       20   0.957200(    20)     18  104.520(    39)     16    0.000(    57)      0
 ---------------------------------------------------------------------------------------------------
                         Z-Matrix orientation:                         
 ---------------------------------------------------------------------
 Center     Atomic      Atomic             Coordinates (Angstroms)
 Number     Number       Type             X           Y           Z
 ---------------------------------------------------------------------
      1          9           0       -1.969300    2.053680    0.000070
      2          6           0       -1.222250    0.944230    0.000030
      3          6           0        0.140030    1.057400   -0.000020
      4          6           0        0.927950   -0.123640   -0.000080
      5          6           0        2.414660   -0.018650   -0.000010
      6          9           0        3.007080   -1.234610   -0.000560
      7          9           0        2.858290    0.654480   -1.086020
      8          9           0        2.858270    0.653500    1.086650
      9          6           0        0.306540   -1.341490   -0.000090
     10          7           0       -1.054170   -1.389970   -0.000060
     11          6           0       -1.930500   -0.312100    0.000000
     12         16           0       -3.570980   -0.506610    0.000030
     13          1           0        0.596860    2.043100   -0.000020
     14          1           0        0.831760   -2.288990   -0.000150
     15          1           0       -1.521480   -2.296390   -0.000090
     16         -1           0        1.915537    0.771037    1.398802
     17         -1           0        1.587558    0.274088    0.595390
     18          1           0        3.630211    1.823131    2.977584
     19         -1           0        2.687478    1.940668    3.289736
     20          8           0        3.944153    2.298810    3.746611
     21          1           0        3.149301    2.526984    4.228668
 ---------------------------------------------------------------------
                    Distance matrix (angstroms):
                    1          2          3          4          5
     1  F    0.000000
     2  C    1.337521   0.000000
     3  C    2.332777   1.366973   0.000000
     4  C    3.624194   2.400772   1.419744   0.000000
     5  C    4.849088   3.762214   2.516312   1.490413   0.000000
     6  F    5.964663   4.757581   3.670597   2.357337   1.352598
     7  F    5.142274   4.232525   2.954772   2.347541   1.352527
     8  F    5.142625   4.232719   2.955134   2.347566   1.352555
     9  C    4.087374   2.749857   2.404662   1.367227   2.488790
    10  N    3.563171   2.340244   2.723184   2.352104   3.730054
    11  C    2.366098   1.442215   2.482463   2.864656   4.355058
    12  S    3.020011   2.760701   4.027123   4.515201   6.005497
    13  H    2.566182   2.125247   1.086415   2.191890   2.748674
    14  H    5.167661   3.830492   3.417136   2.167485   2.767673
    15  H    4.373060   3.254406   3.742796   3.274225   4.547669
    16  X    4.323608   3.439806   2.278406   1.932006   1.682084
    17  X    4.021516   2.949332   1.750265   0.973578   1.060328
    18  H    6.346122   5.760614   4.651218   4.467506   3.706182
    19  X    5.702653   5.205865   4.253487   4.263824   3.838722
    20  O    7.004682   6.524068   5.481760   5.385483   4.663382
    21  H    6.656210   6.284660   5.394182   5.462831   4.990157
                    6          7          8          9         10
     6  F    0.000000
     7  F    2.183809   0.000000
     8  F    2.183834   2.172670   0.000000
     9  C    2.702654   3.416807   3.416477   0.000000
    10  N    4.064221   4.546034   4.545756   1.361573   0.000000
    11  C    5.023019   5.004620   5.004549   2.462517   1.389157
    12  S    6.618222   6.622926   6.622828   3.966382   2.667332
    13  H    4.068482   2.867355   2.868068   3.397019   3.809445
    14  H    2.417382   3.734964   3.734451   1.083334   2.089251
    15  H    4.651369   5.391592   5.391203   2.062399   1.019792
    16  X    2.678115   2.660209   1.000000   3.001423   3.930130
    17  X    2.155544   2.141634   1.414214   2.146088   3.178423
    18  H    4.313631   4.298195   2.353627   5.470663   6.413564
    19  X    4.583730   4.564066   2.557256   5.221530   5.992982
    20  O    5.234926   5.218931   3.310827   6.365672   7.254507
    21  H    5.661818   5.642417   3.669730   6.397560   7.133992
                   11         12         13         14         15
    11  C    0.000000
    12  S    1.651971   0.000000
    13  H    3.454637   4.885889   0.000000
    14  H    3.396789   4.749842   4.338454   0.000000
    15  H    2.026007   2.720986   4.828927   2.353252   0.000000
    16  X    4.233419   5.804379   2.305159   3.534884   4.814467
    17  X    3.615914   5.251138   2.113148   2.737749   4.077753
    18  H    6.659333   8.133306   4.256258   5.797221   7.237190
    19  X    6.101069   7.481953   3.899189   5.670718   6.818426
    20  O    7.440799   8.853500   5.030606   6.691271   8.063918
    21  H    7.193498   8.499780   4.962953   6.815241   7.934956
                   16         17         18         19         20
    16  X    0.000000
    17  X    1.000000   0.000000
    18  H    2.557256   3.499545   0.000000
    19  X    2.353627   3.353627   1.000000   0.000000
    20  O    3.458551   4.425294   0.957200   1.384280   0.000000
    21  H    3.551572   4.551406   1.513901   1.199434   0.957200
                   21
    21  H    0.000000
 Symmetry turned off by external request.
 Stoichiometry    C6H5F4NOS
 Framework group  C1[X(C6H5F4NOS)]
 Deg. of freedom    48
 Full point group                 C1      NOp   1
 Rotational constants (GHZ):      0.9906315      0.3184706      0.2791199
 Standard basis: 6-31G(d) (6D, 7F)
 Integral buffers will be    131072 words long.
 Raffenetti 1 integral format.
 Two-electron integral symmetry is turned off.
   209 basis functions,   408 primitive gaussians,   209 cartesian basis functions
    54 alpha electrons       54 beta electrons
       nuclear repulsion energy       903.7136376799 Hartrees.
 NAtoms=   18 NActive=   18 NUniq=   18 SFac= 7.50D-01 NAtFMM=   80 NAOKFM=F Big=F
 One-electron integrals computed using PRISM.
 NBasis=   209 RedAO= T  NBF=   209
 NBsUse=   209 1.00D-06 NBFU=   209
 Initial guess read from the read-write file.
 B after Tr=     0.000000    0.000000    0.000000
         Rot=    1.000000    0.000000    0.000000    0.000000 Ang=   0.00 deg.
 Requested convergence on RMS density matrix=1.00D-08 within 128 cycles.
 Requested convergence on MAX density matrix=1.00D-06.
 Requested convergence on             energy=1.00D-06.
 No special actions if energy rises.
 SCF Done:  E(RHF) =  -1154.67413449     A.U. after    5 cycles
             Convg  =    0.5384D-08             -V/T =  2.0019
 Calling FoFJK, ICntrl=      2127 FMM=F ISym2X=0 I1Cent= 0 IOpClX= 0 NMat=1 NMatS=1 NMatT=0.
 -------------------------------------------------------------------
 Center     Atomic                   Forces (Hartrees/Bohr)
 Number     Number              X              Y              Z
 -------------------------------------------------------------------
      1        9           0.000000000    0.000000000    0.000000000
      2        6           0.000000000    0.000000000    0.000000000
      3        6           0.000000000    0.000000000    0.000000000
      4        6           0.000000000    0.000000000    0.000000000
      5        6           0.000000000    0.000000000    0.000000000
      6        9           0.000000000    0.000000000    0.000000000
      7        9           0.000000000    0.000000000    0.000000000
      8        9           0.000000000    0.000000000    0.000000000
      9        6           0.000000000    0.000000000    0.000000000
     10        7           0.000000000    0.000000000    0.000000000
     11        6           0.000000000    0.000000000    0.000000000
     12       16           0.000000000    0.000000000    0.000000000
     13        1           0.000000000    0.000000000    0.000000000
     14        1           0.000000000    0.000000000    0.000000000
     15        1           0.000000000    0.000000000    0.000000000
     16        1           0.005233882    0.004973042    0.008054547
     17        8          -0.014607786   -0.003114731   -0.003711060
     18        1           0.009612440   -0.001901064   -0.004288226
 -------------------------------------------------------------------
 Cartesian Forces:  Max     0.014607786 RMS     0.002944748
 -----------------------------------------------------------------------------------------------
                       Internal Coordinate Forces (Hartree/Bohr or radian)
  Cent   Atom   N1       Length/X         N2         Alpha/Y        N3         Beta/Z          J
 -----------------------------------------------------------------------------------------------
      1  F 
      2  C 
      3  C 
      4  C 
      5  C 
      6  F 
      7  F 
      8  F 
      9  C 
     10  N 
     11  C 
     12  S 
     13  H 
     14  H 
     15  H 
         X        8   0.000000(     1)      5   0.000662(     7)      4   0.000076(    13)     0
         X       16   0.000000(     2)      8   0.000000(     8)      5  -0.000288(    14)     0
     16  H        8   0.000101(     3)     16   0.000662(     9)     17   0.000288(    15)     0
         X       18   0.000000(     4)      8  -0.000284(    10)     16   0.000000(    16)     0
     17  O       18  -0.010558(     5)     19  -0.000284(    11)      8   0.000115(    17)     0
     18  H       20  -0.010595(     6)     18   0.002652(    12)     16   0.000076(    18)     0
 -----------------------------------------------------------------------------------------------
 Internal  Forces:  Max     0.010594868 RMS     0.003589997

 GradGradGradGradGradGradGradGradGradGradGradGradGradGradGradGradGradGrad
 Berny optimization.
 Search for a local minimum.
 Step number   2 out of a maximum of   20
 All quantities printed in internal units (Hartrees-Bohrs-Radians)
 Update second derivatives using D2CorN and points    1    2
 DE= -4.68D-07 DEPred=-2.45D-07 R= 1.91D+00
 Trust test= 1.91D+00 RLast= 4.40D-03 DXMaxT set to 3.00D-01
 The second derivative matrix:
                          RX       RDUM       ROH      ADUM      AHOH
           RX           0.00227
           RDUM         0.00000   0.00000
           ROH         -0.00007   0.00000   1.12160
           ADUM         0.00003   0.00000   0.00000   2.14546
           AHOH         0.00024   0.00000   0.00000   0.00000   0.16000
           DDUM         0.00000   0.00000   0.00000   0.08002   0.00000
           DH1          0.00003   0.00000   0.00000  -0.08002   0.00000
           DOH2         0.00004   0.00000   0.00000  -0.12502   0.00000
           DH2          0.00003   0.00000   0.00000   0.00000   0.00000
                         DDUM       DH1      DOH2       DH2
           DDUM         0.18244
           DH1         -0.18244   0.18244
           DOH2         0.00000   0.00000   0.28507
           DH2          0.00000   0.00000   0.00000   0.00000
     Eigenvalues ---    0.002271000.000001000.000001000.000001000.00000
     Eigenvalues --- 1000.000001000.000001000.000001000.00000
 RFO step:  Lambda= 0.00000000D+00 EMin= 2.26523765D-03
 Quartic linear search produced a step of  2.00000.
 Variable       Old X    -DE/DX   Delta X   Delta X   Delta X     New X
                                 (Linear)    (Quad)   (Total)
    RX        4.44771   0.00010   0.00880   0.00000   0.00880   4.45651
   RDUM       1.88973   0.00000   0.00000   0.00000   0.00000   1.88973
   ROH        1.80885  -0.02115   0.00000   0.00000   0.00000   1.80885
   ADUM       1.57080   0.00076   0.00000   0.00000   0.00000   1.57080
   AHOH       1.82422   0.00265   0.00000   0.00000   0.00000   1.82422
   DDUM       0.00000  -0.00021   0.00000   0.00000   0.00000   0.00000
   DH1        3.14159   0.00029   0.00000   0.00000   0.00000   3.14159
   DOH2       3.14159   0.00012   0.00000   0.00000   0.00000   3.14159
   DH2        0.00000   0.00008   0.00000   0.00000   0.00000   0.00000
         Item               Value     Threshold  Converged?
 Maximum Force            0.000101     0.000450     YES
 RMS     Force            0.000101     0.000300     YES
 Maximum Displacement     0.008795     0.001800     NO 
 RMS     Displacement     0.002932     0.001200     NO 
 Predicted change in Energy=-8.040912D-07
 GradGradGradGradGradGradGradGradGradGradGradGradGradGradGradGradGradGrad

 ---------------------------------------------------------------------------------------------------
                            Z-MATRIX (ANGSTROMS AND DEGREES)
   CD    Cent   Atom    N1       Length/X        N2       Alpha/Y        N3        Beta/Z          J
 ---------------------------------------------------------------------------------------------------
      1      1  F       -1  -1.969300          2.053680          0.000070
      2      2  C       -1  -1.222250          0.944230          0.000030
      3      3  C       -1   0.140030          1.057400         -0.000020
      4      4  C       -1   0.927950         -0.123640         -0.000080
      5      5  C       -1   2.414660         -0.018650         -0.000010
      6      6  F       -1   3.007080         -1.234610         -0.000560
      7      7  F       -1   2.858290          0.654480         -1.086020
      8      8  F       -1   2.858270          0.653500          1.086650
      9      9  C       -1   0.306540         -1.341490         -0.000090
     10     10  N       -1  -1.054170         -1.389970         -0.000060
     11     11  C       -1  -1.930500         -0.312100          0.000000
     12     12  S       -1  -3.570980         -0.506610          0.000030
     13     13  H       -1   0.596860          2.043100         -0.000020
     14     14  H       -1   0.831760         -2.288990         -0.000150
     15     15  H       -1  -1.521480         -2.296390         -0.000090
     16         X        8   1.000000(    15)      5   90.000(    34)      4    0.000(    52)      0
     17         X       16   1.000000(    16)      8   90.000(    35)      5    0.000(    53)      0
     18     16  H        8   2.358281(    17)     16   90.000(    36)     17  180.000(    54)      0
     19         X       18   1.000000(    18)      8   90.000(    37)     16    0.000(    55)      0
     20     17  O       18   0.957200(    19)     19   90.000(    38)      8  180.000(    56)      0
     21     18  H       20   0.957200(    20)     18  104.520(    39)     16    0.000(    57)      0
 ---------------------------------------------------------------------------------------------------
                         Z-Matrix orientation:                         
 ---------------------------------------------------------------------
 Center     Atomic      Atomic             Coordinates (Angstroms)
 Number     Number       Type             X           Y           Z
 ---------------------------------------------------------------------
      1          9           0       -1.969300    2.053680    0.000070
      2          6           0       -1.222250    0.944230    0.000030
      3          6           0        0.140030    1.057400   -0.000020
      4          6           0        0.927950   -0.123640   -0.000080
      5          6           0        2.414660   -0.018650   -0.000010
      6          9           0        3.007080   -1.234610   -0.000560
      7          9           0        2.858290    0.654480   -1.086020
      8          9           0        2.858270    0.653500    1.086650
      9          6           0        0.306540   -1.341490   -0.000090
     10          7           0       -1.054170   -1.389970   -0.000060
     11          6           0       -1.930500   -0.312100    0.000000
     12         16           0       -3.570980   -0.506610    0.000030
     13          1           0        0.596860    2.043100   -0.000020
     14          1           0        0.831760   -2.288990   -0.000150
     15          1           0       -1.521480   -2.296390   -0.000090
     16         -1           0        1.915537    0.771037    1.398802
     17         -1           0        1.587558    0.274088    0.595390
     18          1           0        3.631737    1.825444    2.981323
     19         -1           0        2.689004    1.942981    3.293476
     20          8           0        3.945679    2.301123    3.750350
     21          1           0        3.150828    2.529297    4.232408
 ---------------------------------------------------------------------
                    Distance matrix (angstroms):
                    1          2          3          4          5
     1  F    0.000000
     2  C    1.337521   0.000000
     3  C    2.332777   1.366973   0.000000
     4  C    3.624194   2.400772   1.419744   0.000000
     5  C    4.849088   3.762214   2.516312   1.490413   0.000000
     6  F    5.964663   4.757581   3.670597   2.357337   1.352598
     7  F    5.142274   4.232525   2.954772   2.347541   1.352527
     8  F    5.142625   4.232719   2.955134   2.347566   1.352555
     9  C    4.087374   2.749857   2.404662   1.367227   2.488790
    10  N    3.563171   2.340244   2.723184   2.352104   3.730054
    11  C    2.366098   1.442215   2.482463   2.864656   4.355058
    12  S    3.020011   2.760701   4.027123   4.515201   6.005497
    13  H    2.566182   2.125247   1.086415   2.191890   2.748674
    14  H    5.167661   3.830492   3.417136   2.167485   2.767673
    15  H    4.373060   3.254406   3.742796   3.274225   4.547669
    16  X    4.323608   3.439806   2.278406   1.932006   1.682084
    17  X    4.021516   2.949332   1.750265   0.973578   1.060328
    18  H    6.349140   5.764186   4.655139   4.471930   3.710836
    19  X    5.706012   5.209817   4.257774   4.268459   3.843216
    20  O    7.008053   6.527905   5.485899   5.389980   4.668036
    21  H    6.659925   6.288821   5.398595   5.467468   4.994731
                    6          7          8          9         10
     6  F    0.000000
     7  F    2.183809   0.000000
     8  F    2.183834   2.172670   0.000000
     9  C    2.702654   3.416807   3.416477   0.000000
    10  N    4.064221   4.546034   4.545756   1.361573   0.000000
    11  C    5.023019   5.004620   5.004549   2.462517   1.389157
    12  S    6.618222   6.622926   6.622828   3.966382   2.667332
    13  H    4.068482   2.867355   2.868068   3.397019   3.809445
    14  H    2.417382   3.734964   3.734451   1.083334   2.089251
    15  H    4.651369   5.391592   5.391203   2.062399   1.019792
    16  X    2.678115   2.660209   1.000000   3.001423   3.930130
    17  X    2.155544   2.141634   1.414214   2.146088   3.178423
    18  H    4.318073   4.302634   2.358281   5.474964   6.417574
    19  X    4.587911   4.568246   2.561541   5.226036   5.997273
    20  O    5.239437   5.223440   3.315481   6.370067   7.258666
    21  H    5.666187   5.646786   3.674234   6.402109   7.138378
                   11         12         13         14         15
    11  C    0.000000
    12  S    1.651971   0.000000
    13  H    3.454637   4.885889   0.000000
    14  H    3.396789   4.749842   4.338454   0.000000
    15  H    2.026007   2.720986   4.828927   2.353252   0.000000
    16  X    4.233419   5.804379   2.305159   3.534884   4.814467
    17  X    3.615914   5.251138   2.113148   2.737749   4.077753
    18  H    6.663022   8.136690   4.259843   5.801519   7.241132
    19  X    6.105095   7.485631   3.903102   5.675112   6.822610
    20  O    7.444699   8.857112   5.034525   6.695661   8.068008
    21  H    7.197687   8.503673   4.967150   6.819714   7.939254
                   16         17         18         19         20
    16  X    0.000000
    17  X    1.000000   0.000000
    18  H    2.561541   3.504005   0.000000
    19  X    2.358281   3.358281   1.000000   0.000000
    20  O    3.463007   4.429828   0.957200   1.384280   0.000000
    21  H    3.556225   4.556059   1.513901   1.199434   0.957200
                   21
    21  H    0.000000
 Symmetry turned off by external request.
 Stoichiometry    C6H5F4NOS
 Framework group  C1[X(C6H5F4NOS)]
 Deg. of freedom    48
 Full point group                 C1      NOp   1
 Rotational constants (GHZ):      0.9898321      0.3183753      0.2790016
 Standard basis: 6-31G(d) (6D, 7F)
 Integral buffers will be    131072 words long.
 Raffenetti 1 integral format.
 Two-electron integral symmetry is turned off.
   209 basis functions,   408 primitive gaussians,   209 cartesian basis functions
    54 alpha electrons       54 beta electrons
       nuclear repulsion energy       903.6380183060 Hartrees.
 NAtoms=   18 NActive=   18 NUniq=   18 SFac= 7.50D-01 NAtFMM=   80 NAOKFM=F Big=F
 One-electron integrals computed using PRISM.
 NBasis=   209 RedAO= T  NBF=   209
 NBsUse=   209 1.00D-06 NBFU=   209
 Initial guess read from the read-write file.
 B after Tr=     0.000000    0.000000    0.000000
         Rot=    1.000000    0.000000    0.000000    0.000000 Ang=   0.00 deg.
 Requested convergence on RMS density matrix=1.00D-08 within 128 cycles.
 Requested convergence on MAX density matrix=1.00D-06.
 Requested convergence on             energy=1.00D-06.
 No special actions if energy rises.
 SCF Done:  E(RHF) =  -1154.67413530     A.U. after    6 cycles
             Convg  =    0.3549D-08             -V/T =  2.0019
 Calling FoFJK, ICntrl=      2127 FMM=F ISym2X=0 I1Cent= 0 IOpClX= 0 NMat=1 NMatS=1 NMatT=0.
 -------------------------------------------------------------------
 Center     Atomic                   Forces (Hartrees/Bohr)
 Number     Number              X              Y              Z
 -------------------------------------------------------------------
      1        9           0.000000000    0.000000000    0.000000000
      2        6           0.000000000    0.000000000    0.000000000
      3        6           0.000000000    0.000000000    0.000000000
      4        6           0.000000000    0.000000000    0.000000000
      5        6           0.000000000    0.000000000    0.000000000
      6        9           0.000000000    0.000000000    0.000000000
      7        9           0.000000000    0.000000000    0.000000000
      8        9           0.000000000    0.000000000    0.000000000
      9        6           0.000000000    0.000000000    0.000000000
     10        7           0.000000000    0.000000000    0.000000000
     11        6           0.000000000    0.000000000    0.000000000
     12       16           0.000000000    0.000000000    0.000000000
     13        1           0.000000000    0.000000000    0.000000000
     14        1           0.000000000    0.000000000    0.000000000
     15        1           0.000000000    0.000000000    0.000000000
     16        1           0.005223725    0.004964197    0.008039616
     17        8          -0.014602756   -0.003114742   -0.003710569
     18        1           0.009610215   -0.001901554   -0.004289408
 -------------------------------------------------------------------
 Cartesian Forces:  Max     0.014602756 RMS     0.002942812
 -----------------------------------------------------------------------------------------------
                       Internal Coordinate Forces (Hartree/Bohr or radian)
  Cent   Atom   N1       Length/X         N2         Alpha/Y        N3         Beta/Z          J
 -----------------------------------------------------------------------------------------------
      1  F 
      2  C 
      3  C 
      4  C 
      5  C 
      6  F 
      7  F 
      8  F 
      9  C 
     10  N 
     11  C 
     12  S 
     13  H 
     14  H 
     15  H 
         X        8   0.000000(     1)      5   0.000661(     7)      4   0.000076(    13)     0
         X       16   0.000000(     2)      8   0.000000(     8)      5  -0.000287(    14)     0
     16  H        8   0.000082(     3)     16   0.000661(     9)     17   0.000287(    15)     0
         X       18   0.000000(     4)      8  -0.000283(    10)     16   0.000000(    16)     0
     17  O       18  -0.010558(     5)     19  -0.000283(    11)      8   0.000115(    17)     0
     18  H       20  -0.010594(     6)     18   0.002647(    12)     16   0.000076(    18)     0
 -----------------------------------------------------------------------------------------------
 Internal  Forces:  Max     0.010593732 RMS     0.003589553

 GradGradGradGradGradGradGradGradGradGradGradGradGradGradGradGradGradGrad
 Berny optimization.
 Search for a local minimum.
 Step number   3 out of a maximum of   20
 All quantities printed in internal units (Hartrees-Bohrs-Radians)
 Update second derivatives using D2CorN and points    2    3
 DE= -8.05D-07 DEPred=-8.04D-07 R= 1.00D+00
 Trust test= 1.00D+00 RLast= 8.80D-03 DXMaxT set to 3.00D-01
 The second derivative matrix:
                          RX       RDUM       ROH      ADUM      AHOH
           RX           0.00223
           RDUM         0.00000   0.00000
           ROH         -0.00011   0.00000   1.12160
           ADUM         0.00002   0.00000   0.00000   2.14546
           AHOH         0.00035   0.00000   0.00000   0.00000   0.16000
           DDUM         0.00001   0.00000   0.00000   0.08002   0.00000
           DH1          0.00004   0.00000   0.00000  -0.08002   0.00000
           DOH2         0.00005   0.00000   0.00000  -0.12502   0.00000
           DH2          0.00005   0.00000   0.00000   0.00000   0.00000
                         DDUM       DH1      DOH2       DH2
           DDUM         0.18244
           DH1         -0.18244   0.18244
           DOH2         0.00000   0.00000   0.28507
           DH2          0.00000   0.00000   0.00000   0.00000
     Eigenvalues ---    0.002231000.000001000.000001000.000001000.00000
     Eigenvalues --- 1000.000001000.000001000.000001000.00000
 RFO step:  Lambda= 0.00000000D+00 EMin= 2.22931954D-03
 Quartic linear search produced a step of  2.00000.
 Variable       Old X    -DE/DX   Delta X   Delta X   Delta X     New X
                                 (Linear)    (Quad)   (Total)
    RX        4.45651   0.00008   0.01759   0.00000   0.01759   4.47410
   RDUM       1.88973   0.00000   0.00000   0.00000   0.00000   1.88973
   ROH        1.80885  -0.02115   0.00000   0.00000   0.00000   1.80885
   ADUM       1.57080   0.00076   0.00000   0.00000   0.00000   1.57080
   AHOH       1.82422   0.00265   0.00000   0.00000   0.00000   1.82422
   DDUM       0.00000  -0.00021   0.00000   0.00000   0.00000   0.00000
   DH1        3.14159   0.00029   0.00000   0.00000   0.00000   3.14159
   DOH2       3.14159   0.00011   0.00000   0.00000   0.00000   3.14159
   DH2        0.00000   0.00008   0.00000   0.00000   0.00000   0.00000
         Item               Value     Threshold  Converged?
 Maximum Force            0.000082     0.000450     YES
 RMS     Force            0.000082     0.000300     YES
 Maximum Displacement     0.017590     0.001800     NO 
 RMS     Displacement     0.005863     0.001200     NO 
 Predicted change in Energy=-1.093619D-06
 GradGradGradGradGradGradGradGradGradGradGradGradGradGradGradGradGradGrad

 ---------------------------------------------------------------------------------------------------
                            Z-MATRIX (ANGSTROMS AND DEGREES)
   CD    Cent   Atom    N1       Length/X        N2       Alpha/Y        N3        Beta/Z          J
 ---------------------------------------------------------------------------------------------------
      1      1  F       -1  -1.969300          2.053680          0.000070
      2      2  C       -1  -1.222250          0.944230          0.000030
      3      3  C       -1   0.140030          1.057400         -0.000020
      4      4  C       -1   0.927950         -0.123640         -0.000080
      5      5  C       -1   2.414660         -0.018650         -0.000010
      6      6  F       -1   3.007080         -1.234610         -0.000560
      7      7  F       -1   2.858290          0.654480         -1.086020
      8      8  F       -1   2.858270          0.653500          1.086650
      9      9  C       -1   0.306540         -1.341490         -0.000090
     10     10  N       -1  -1.054170         -1.389970         -0.000060
     11     11  C       -1  -1.930500         -0.312100          0.000000
     12     12  S       -1  -3.570980         -0.506610          0.000030
     13     13  H       -1   0.596860          2.043100         -0.000020
     14     14  H       -1   0.831760         -2.288990         -0.000150
     15     15  H       -1  -1.521480         -2.296390         -0.000090
     16         X        8   1.000000(    15)      5   90.000(    34)      4    0.000(    52)      0
     17         X       16   1.000000(    16)      8   90.000(    35)      5    0.000(    53)      0
     18     16  H        8   2.367590(    17)     16   90.000(    36)     17  180.000(    54)      0
     19         X       18   1.000000(    18)      8   90.000(    37)     16    0.000(    55)      0
     20     17  O       18   0.957200(    19)     19   90.000(    38)      8  180.000(    56)      0
     21     18  H       20   0.957200(    20)     18  104.520(    39)     16    0.000(    57)      0
 ---------------------------------------------------------------------------------------------------
                         Z-Matrix orientation:                         
 ---------------------------------------------------------------------
 Center     Atomic      Atomic             Coordinates (Angstroms)
 Number     Number       Type             X           Y           Z
 ---------------------------------------------------------------------
      1          9           0       -1.969300    2.053680    0.000070
      2          6           0       -1.222250    0.944230    0.000030
      3          6           0        0.140030    1.057400   -0.000020
      4          6           0        0.927950   -0.123640   -0.000080
      5          6           0        2.414660   -0.018650   -0.000010
      6          9           0        3.007080   -1.234610   -0.000560
      7          9           0        2.858290    0.654480   -1.086020
      8          9           0        2.858270    0.653500    1.086650
      9          6           0        0.306540   -1.341490   -0.000090
     10          7           0       -1.054170   -1.389970   -0.000060
     11          6           0       -1.930500   -0.312100    0.000000
     12         16           0       -3.570980   -0.506610    0.000030
     13          1           0        0.596860    2.043100   -0.000020
     14          1           0        0.831760   -2.288990   -0.000150
     15          1           0       -1.521480   -2.296390   -0.000090
     16         -1           0        1.915537    0.771037    1.398802
     17         -1           0        1.587558    0.274088    0.595390
     18          1           0        3.634790    1.830070    2.988802
     19         -1           0        2.692057    1.947606    3.300954
     20          8           0        3.948732    2.305749    3.757828
     21          1           0        3.153881    2.533923    4.239886
 ---------------------------------------------------------------------
                    Distance matrix (angstroms):
                    1          2          3          4          5
     1  F    0.000000
     2  C    1.337521   0.000000
     3  C    2.332777   1.366973   0.000000
     4  C    3.624194   2.400772   1.419744   0.000000
     5  C    4.849088   3.762214   2.516312   1.490413   0.000000
     6  F    5.964663   4.757581   3.670597   2.357337   1.352598
     7  F    5.142274   4.232525   2.954772   2.347541   1.352527
     8  F    5.142625   4.232719   2.955134   2.347566   1.352555
     9  C    4.087374   2.749857   2.404662   1.367227   2.488790
    10  N    3.563171   2.340244   2.723184   2.352104   3.730054
    11  C    2.366098   1.442215   2.482463   2.864656   4.355058
    12  S    3.020011   2.760701   4.027123   4.515201   6.005497
    13  H    2.566182   2.125247   1.086415   2.191890   2.748674
    14  H    5.167661   3.830492   3.417136   2.167485   2.767673
    15  H    4.373060   3.254406   3.742796   3.274225   4.547669
    16  X    4.323608   3.439806   2.278406   1.932006   1.682084
    17  X    4.021516   2.949332   1.750265   0.973578   1.060328
    18  H    6.355183   5.771335   4.662984   4.480779   3.720145
    19  X    5.712735   5.217726   4.266350   4.277728   3.852204
    20  O    7.014798   6.535582   5.494180   5.398975   4.677345
    21  H    6.667357   6.297144   5.407422   5.476743   5.003878
                    6          7          8          9         10
     6  F    0.000000
     7  F    2.183809   0.000000
     8  F    2.183834   2.172670   0.000000
     9  C    2.702654   3.416807   3.416477   0.000000
    10  N    4.064221   4.546034   4.545756   1.361573   0.000000
    11  C    5.023019   5.004620   5.004549   2.462517   1.389157
    12  S    6.618222   6.622926   6.622828   3.966382   2.667332
    13  H    4.068482   2.867355   2.868068   3.397019   3.809445
    14  H    2.417382   3.734964   3.734451   1.083334   2.089251
    15  H    4.651369   5.391592   5.391203   2.062399   1.019792
    16  X    2.678115   2.660209   1.000000   3.001423   3.930130
    17  X    2.155544   2.141634   1.414214   2.146088   3.178423
    18  H    4.326958   4.311512   2.367590   5.483568   6.425597
    19  X    4.596274   4.576609   2.570113   5.235049   6.005858
    20  O    5.248460   5.232458   3.324790   6.378861   7.266986
    21  H    5.674925   5.655524   3.683242   6.411206   7.147151
                   11         12         13         14         15
    11  C    0.000000
    12  S    1.651971   0.000000
    13  H    3.454637   4.885889   0.000000
    14  H    3.396789   4.749842   4.338454   0.000000
    15  H    2.026007   2.720986   4.828927   2.353252   0.000000
    16  X    4.233419   5.804379   2.305159   3.534884   4.814467
    17  X    3.615914   5.251138   2.113148   2.737749   4.077753
    18  H    6.670403   8.143461   4.267020   5.810117   7.249018
    19  X    6.113150   7.492991   3.910933   5.683902   6.830980
    20  O    7.452501   8.864337   5.042366   6.704442   8.076190
    21  H    7.206067   8.511461   4.975547   6.828663   7.947850
                   16         17         18         19         20
    16  X    0.000000
    17  X    1.000000   0.000000
    18  H    2.570113   3.512928   0.000000
    19  X    2.367590   3.367590   1.000000   0.000000
    20  O    3.471920   4.438897   0.957200   1.384280   0.000000
    21  H    3.565532   4.565366   1.513901   1.199434   0.957200
                   21
    21  H    0.000000
 Symmetry turned off by external request.
 Stoichiometry    C6H5F4NOS
 Framework group  C1[X(C6H5F4NOS)]
 Deg. of freedom    48
 Full point group                 C1      NOp   1
 Rotational constants (GHZ):      0.9882366      0.3181848      0.2787649
 Standard basis: 6-31G(d) (6D, 7F)
 Integral buffers will be    131072 words long.
 Raffenetti 1 integral format.
 Two-electron integral symmetry is turned off.
   209 basis functions,   408 primitive gaussians,   209 cartesian basis functions
    54 alpha electrons       54 beta electrons
       nuclear repulsion energy       903.4871982226 Hartrees.
 NAtoms=   18 NActive=   18 NUniq=   18 SFac= 7.50D-01 NAtFMM=   80 NAOKFM=F Big=F
 One-electron integrals computed using PRISM.
 NBasis=   209 RedAO= T  NBF=   209
 NBsUse=   209 1.00D-06 NBFU=   209
 Initial guess read from the read-write file.
 B after Tr=     0.000000    0.000000    0.000000
         Rot=    1.000000    0.000000    0.000000    0.000000 Ang=   0.00 deg.
 Requested convergence on RMS density matrix=1.00D-08 within 128 cycles.
 Requested convergence on MAX density matrix=1.00D-06.
 Requested convergence on             energy=1.00D-06.
 No special actions if energy rises.
 SCF Done:  E(RHF) =  -1154.67413640     A.U. after    6 cycles
             Convg  =    0.7125D-08             -V/T =  2.0019
 Calling FoFJK, ICntrl=      2127 FMM=F ISym2X=0 I1Cent= 0 IOpClX= 0 NMat=1 NMatS=1 NMatT=0.
 -------------------------------------------------------------------
 Center     Atomic                   Forces (Hartrees/Bohr)
 Number     Number              X              Y              Z
 -------------------------------------------------------------------
      1        9           0.000000000    0.000000000    0.000000000
      2        6           0.000000000    0.000000000    0.000000000
      3        6           0.000000000    0.000000000    0.000000000
      4        6           0.000000000    0.000000000    0.000000000
      5        6           0.000000000    0.000000000    0.000000000
      6        9           0.000000000    0.000000000    0.000000000
      7        9           0.000000000    0.000000000    0.000000000
      8        9           0.000000000    0.000000000    0.000000000
      9        6           0.000000000    0.000000000    0.000000000
     10        7           0.000000000    0.000000000    0.000000000
     11        6           0.000000000    0.000000000    0.000000000
     12       16           0.000000000    0.000000000    0.000000000
     13        1           0.000000000    0.000000000    0.000000000
     14        1           0.000000000    0.000000000    0.000000000
     15        1           0.000000000    0.000000000    0.000000000
     16        1           0.005203933    0.004947101    0.008010712
     17        8          -0.014592872   -0.003114790   -0.003709622
     18        1           0.009605830   -0.001902498   -0.004291715
 -------------------------------------------------------------------
 Cartesian Forces:  Max     0.014592872 RMS     0.002939046
 -----------------------------------------------------------------------------------------------
                       Internal Coordinate Forces (Hartree/Bohr or radian)
  Cent   Atom   N1       Length/X         N2         Alpha/Y        N3         Beta/Z          J
 -----------------------------------------------------------------------------------------------
      1  F 
      2  C 
      3  C 
      4  C 
      5  C 
      6  F 
      7  F 
      8  F 
      9  C 
     10  N 
     11  C 
     12  S 
     13  H 
     14  H 
     15  H 
         X        8   0.000000(     1)      5   0.000658(     7)      4   0.000075(    13)     0
         X       16   0.000000(     2)      8   0.000000(     8)      5  -0.000287(    14)     0
     16  H        8   0.000044(     3)     16   0.000658(     9)     17   0.000287(    15)     0
         X       18   0.000000(     4)      8  -0.000280(    10)     16   0.000000(    16)     0
     17  O       18  -0.010557(     5)     19  -0.000280(    11)      8   0.000113(    17)     0
     18  H       20  -0.010591(     6)     18   0.002639(    12)     16   0.000075(    18)     0
 -----------------------------------------------------------------------------------------------
 Internal  Forces:  Max     0.010591478 RMS     0.003588696

 GradGradGradGradGradGradGradGradGradGradGradGradGradGradGradGradGradGrad
 Berny optimization.
 Search for a local minimum.
 Step number   4 out of a maximum of   20
 All quantities printed in internal units (Hartrees-Bohrs-Radians)
 Update second derivatives using D2CorN and points    3    4
 DE= -1.10D-06 DEPred=-1.09D-06 R= 1.01D+00
 SS=  1.41D+00  RLast= 1.76D-02 DXNew= 5.0454D-01 5.2771D-02
 Trust test= 1.01D+00 RLast= 1.76D-02 DXMaxT set to 3.00D-01
 The second derivative matrix:
                          RX       RDUM       ROH      ADUM      AHOH
           RX           0.00216
           RDUM         0.00000   0.00000
           ROH         -0.00012   0.00000   1.12160
           ADUM         0.00003   0.00000   0.00000   2.14546
           AHOH         0.00041   0.00000   0.00000   0.00000   0.16000
           DDUM         0.00001   0.00000   0.00000   0.08002   0.00000
           DH1          0.00005   0.00000   0.00000  -0.08002   0.00000
           DOH2         0.00006   0.00000   0.00000  -0.12502   0.00000
           DH2          0.00005   0.00000   0.00000   0.00000   0.00000
                         DDUM       DH1      DOH2       DH2
           DDUM         0.18244
           DH1         -0.18244   0.18244
           DOH2         0.00000   0.00000   0.28507
           DH2          0.00000   0.00000   0.00000   0.00000
     Eigenvalues ---    0.002161000.000001000.000001000.000001000.00000
     Eigenvalues --- 1000.000001000.000001000.000001000.00000
 RFO step:  Lambda= 0.00000000D+00 EMin= 2.15976563D-03
 Quartic linear search produced a step of  1.20869.
 Variable       Old X    -DE/DX   Delta X   Delta X   Delta X     New X
                                 (Linear)    (Quad)   (Total)
    RX        4.47410   0.00004   0.02126   0.00000   0.02126   4.49536
   RDUM       1.88973   0.00000   0.00000   0.00000   0.00000   1.88973
   ROH        1.80885  -0.02115   0.00000   0.00000   0.00000   1.80885
   ADUM       1.57080   0.00076   0.00000   0.00000   0.00000   1.57080
   AHOH       1.82422   0.00264   0.00000   0.00000   0.00000   1.82422
   DDUM       0.00000  -0.00021   0.00000   0.00000   0.00000   0.00000
   DH1        3.14159   0.00029   0.00000   0.00000   0.00000   3.14159
   DOH2       3.14159   0.00011   0.00000   0.00000   0.00000   3.14159
   DH2        0.00000   0.00007   0.00000   0.00000   0.00000   0.00000
         Item               Value     Threshold  Converged?
 Maximum Force            0.000044     0.000450     YES
 RMS     Force            0.000044     0.000300     YES
 Maximum Displacement     0.021261     0.001800     NO 
 RMS     Displacement     0.007087     0.001200     NO 
 Predicted change in Energy=-4.428417D-07
 GradGradGradGradGradGradGradGradGradGradGradGradGradGradGradGradGradGrad

 ---------------------------------------------------------------------------------------------------
                            Z-MATRIX (ANGSTROMS AND DEGREES)
   CD    Cent   Atom    N1       Length/X        N2       Alpha/Y        N3        Beta/Z          J
 ---------------------------------------------------------------------------------------------------
      1      1  F       -1  -1.969300          2.053680          0.000070
      2      2  C       -1  -1.222250          0.944230          0.000030
      3      3  C       -1   0.140030          1.057400         -0.000020
      4      4  C       -1   0.927950         -0.123640         -0.000080
      5      5  C       -1   2.414660         -0.018650         -0.000010
      6      6  F       -1   3.007080         -1.234610         -0.000560
      7      7  F       -1   2.858290          0.654480         -1.086020
      8      8  F       -1   2.858270          0.653500          1.086650
      9      9  C       -1   0.306540         -1.341490         -0.000090
     10     10  N       -1  -1.054170         -1.389970         -0.000060
     11     11  C       -1  -1.930500         -0.312100          0.000000
     12     12  S       -1  -3.570980         -0.506610          0.000030
     13     13  H       -1   0.596860          2.043100         -0.000020
     14     14  H       -1   0.831760         -2.288990         -0.000150
     15     15  H       -1  -1.521480         -2.296390         -0.000090
     16         X        8   1.000000(    15)      5   90.000(    34)      4    0.000(    52)      0
     17         X       16   1.000000(    16)      8   90.000(    35)      5    0.000(    53)      0
     18     16  H        8   2.378841(    17)     16   90.000(    36)     17  180.000(    54)      0
     19         X       18   1.000000(    18)      8   90.000(    37)     16    0.000(    55)      0
     20     17  O       18   0.957200(    19)     19   90.000(    38)      8  180.000(    56)      0
     21     18  H       20   0.957200(    20)     18  104.520(    39)     16    0.000(    57)      0
 ---------------------------------------------------------------------------------------------------
                         Z-Matrix orientation:                         
 ---------------------------------------------------------------------
 Center     Atomic      Atomic             Coordinates (Angstroms)
 Number     Number       Type             X           Y           Z
 ---------------------------------------------------------------------
      1          9           0       -1.969300    2.053680    0.000070
      2          6           0       -1.222250    0.944230    0.000030
      3          6           0        0.140030    1.057400   -0.000020
      4          6           0        0.927950   -0.123640   -0.000080
      5          6           0        2.414660   -0.018650   -0.000010
[...]
 !       DH1       180.0      -DE/DX =    0.0003                        !
 !      DOH2       180.0      -DE/DX =    0.0001                        !
 !       DH2         0.0      -DE/DX =    0.0001                        !
 ------------------------------------------------------------------------
 GradGradGradGradGradGradGradGradGradGradGradGradGradGradGradGradGradGrad

 ---------------------------------------------------------------------------------------------------
                            Z-MATRIX (ANGSTROMS AND DEGREES)
   CD    Cent   Atom    N1       Length/X        N2       Alpha/Y        N3        Beta/Z          J
 ---------------------------------------------------------------------------------------------------
      1      1  F       -1  -1.969300          2.053680          0.000070
      2      2  C       -1  -1.222250          0.944230          0.000030
      3      3  C       -1   0.140030          1.057400         -0.000020
      4      4  C       -1   0.927950         -0.123640         -0.000080
      5      5  C       -1   2.414660         -0.018650         -0.000010
      6      6  F       -1   3.007080         -1.234610         -0.000560
      7      7  F       -1   2.858290          0.654480         -1.086020
      8      8  F       -1   2.858270          0.653500          1.086650
      9      9  C       -1   0.306540         -1.341490         -0.000090
     10     10  N       -1  -1.054170         -1.389970         -0.000060
     11     11  C       -1  -1.930500         -0.312100          0.000000
     12     12  S       -1  -3.570980         -0.506610          0.000030
     13     13  H       -1   0.596860          2.043100         -0.000020
     14     14  H       -1   0.831760         -2.288990         -0.000150
     15     15  H       -1  -1.521480         -2.296390         -0.000090
     16         X        8   1.000000(    15)      5   90.000(    34)      4    0.000(    52)      0
     17         X       16   1.000000(    16)      8   90.000(    35)      5    0.000(    53)      0
     18     16  H        8   2.378841(    17)     16   90.000(    36)     17  180.000(    54)      0
     19         X       18   1.000000(    18)      8   90.000(    37)     16    0.000(    55)      0
     20     17  O       18   0.957200(    19)     19   90.000(    38)      8  180.000(    56)      0
     21     18  H       20   0.957200(    20)     18  104.520(    39)     16    0.000(    57)      0
 ---------------------------------------------------------------------------------------------------
                         Z-Matrix orientation:                         
 ---------------------------------------------------------------------
 Center     Atomic      Atomic             Coordinates (Angstroms)
 Number     Number       Type             X           Y           Z
 ---------------------------------------------------------------------
      1          9           0       -1.969300    2.053680    0.000070
      2          6           0       -1.222250    0.944230    0.000030
      3          6           0        0.140030    1.057400   -0.000020
      4          6           0        0.927950   -0.123640   -0.000080
      5          6           0        2.414660   -0.018650   -0.000010
      6          9           0        3.007080   -1.234610   -0.000560
      7          9           0        2.858290    0.654480   -1.086020
      8          9           0        2.858270    0.653500    1.086650
      9          6           0        0.306540   -1.341490   -0.000090
     10          7           0       -1.054170   -1.389970   -0.000060
     11          6           0       -1.930500   -0.312100    0.000000
     12         16           0       -3.570980   -0.506610    0.000030
     13          1           0        0.596860    2.043100   -0.000020
     14          1           0        0.831760   -2.288990   -0.000150
     15          1           0       -1.521480   -2.296390   -0.000090
     16         -1           0        1.915537    0.771037    1.398802
     17         -1           0        1.587558    0.274088    0.595390
     18          1           0        3.638480    1.835661    2.997841
     19         -1           0        2.695747    1.953197    3.309993
     20          8           0        3.952422    2.311340    3.766867
     21          1           0        3.157571    2.539514    4.248925
 ---------------------------------------------------------------------
                    Distance matrix (angstroms):
                    1          2          3          4          5
     1  F    0.000000
     2  C    1.337521   0.000000
     3  C    2.332777   1.366973   0.000000
     4  C    3.624194   2.400772   1.419744   0.000000
     5  C    4.849088   3.762214   2.516312   1.490413   0.000000
     6  F    5.964663   4.757581   3.670597   2.357337   1.352598
     7  F    5.142274   4.232525   2.954772   2.347541   1.352527
     8  F    5.142625   4.232719   2.955134   2.347566   1.352555
     9  C    4.087374   2.749857   2.404662   1.367227   2.488790
    10  N    3.563171   2.340244   2.723184   2.352104   3.730054
    11  C    2.366098   1.442215   2.482463   2.864656   4.355058
    12  S    3.020011   2.760701   4.027123   4.515201   6.005497
    13  H    2.566182   2.125247   1.086415   2.191890   2.748674
    14  H    5.167661   3.830492   3.417136   2.167485   2.767673
    15  H    4.373060   3.254406   3.742796   3.274225   4.547669
    16  X    4.323608   3.439806   2.278406   1.932006   1.682084
    17  X    4.021516   2.949332   1.750265   0.973578   1.060328
    18  H    6.362497   5.779984   4.672474   4.491477   3.731396
    19  X    5.720870   5.227291   4.276720   4.288933   3.863071
    20  O    7.022958   6.544867   5.504193   5.409848   4.688596
    21  H    6.676347   6.307208   5.418094   5.487954   5.014934
                    6          7          8          9         10
     6  F    0.000000
     7  F    2.183809   0.000000
     8  F    2.183834   2.172670   0.000000
     9  C    2.702654   3.416807   3.416477   0.000000
    10  N    4.064221   4.546034   4.545756   1.361573   0.000000
    11  C    5.023019   5.004620   5.004549   2.462517   1.389157
    12  S    6.618222   6.622926   6.622828   3.966382   2.667332
    13  H    4.068482   2.867355   2.868068   3.397019   3.809445
    14  H    2.417382   3.734964   3.734451   1.083334   2.089251
    15  H    4.651369   5.391592   5.391203   2.062399   1.019792
    16  X    2.678115   2.660209   1.000000   3.001423   3.930130
    17  X    2.155544   2.141634   1.414214   2.146088   3.178423
    18  H    4.337699   4.322245   2.378841   5.493970   6.435299
    19  X    4.606388   4.586722   2.580481   5.245944   6.016236
    20  O    5.259367   5.243360   3.336041   6.389491   7.277046
    21  H    5.685489   5.666089   3.694132   6.422203   7.157756
                   11         12         13         14         15
    11  C    0.000000
    12  S    1.651971   0.000000
    13  H    3.454637   4.885889   0.000000
    14  H    3.396789   4.749842   4.338454   0.000000
    15  H    2.026007   2.720986   4.828927   2.353252   0.000000
    16  X    4.233419   5.804379   2.305159   3.534884   4.814467
    17  X    3.615914   5.251138   2.113148   2.737749   4.077753
    18  H    6.679331   8.151651   4.275705   5.820513   7.258555
    19  X    6.122891   7.501892   3.920408   5.694528   6.841100
    20  O    7.461937   8.873076   5.051850   6.715057   8.086083
    21  H    7.216199   8.520879   4.985700   6.839480   7.958242
                   16         17         18         19         20
    16  X    0.000000
    17  X    1.000000   0.000000
    18  H    2.580481   3.523714   0.000000
    19  X    2.378841   3.378841   1.000000   0.000000
    20  O    3.482695   4.449859   0.957200   1.384280   0.000000
    21  H    3.576780   4.576616   1.513901   1.199434   0.957200
                   21
    21  H    0.000000
 Symmetry turned off by external request.
 Stoichiometry    C6H5F4NOS
 Framework group  C1[X(C6H5F4NOS)]
 Deg. of freedom    48
 Full point group                 C1      NOp   1
 Rotational constants (GHZ):      0.9863136      0.3179543      0.2784787

 **********************************************************************

            Population analysis using the SCF density.

 **********************************************************************

 Alpha  occ. eigenvalues --  -91.90867 -26.37468 -26.37321 -26.36514 -26.33853
 Alpha  occ. eigenvalues --  -20.55734 -15.69129 -11.55009 -11.38232 -11.37633
 Alpha  occ. eigenvalues --  -11.36624 -11.31685 -11.30827  -8.91954  -6.60281
 Alpha  occ. eigenvalues --   -6.60005  -6.59878  -1.74948  -1.65957  -1.65290
 Alpha  occ. eigenvalues --   -1.65104  -1.35966  -1.33926  -1.17642  -1.12498
 Alpha  occ. eigenvalues --   -1.03584  -0.97754  -0.93149  -0.88717  -0.85460
 Alpha  occ. eigenvalues --   -0.84538  -0.84234  -0.77512  -0.76372  -0.74309
 Alpha  occ. eigenvalues --   -0.73160  -0.72367  -0.71727  -0.70717  -0.70438
 Alpha  occ. eigenvalues --   -0.68495  -0.68213  -0.66984  -0.64528  -0.62944
 Alpha  occ. eigenvalues --   -0.61263  -0.59902  -0.56839  -0.52969  -0.49537
 Alpha  occ. eigenvalues --   -0.47071  -0.43687  -0.34486  -0.31387
 Alpha virt. eigenvalues --    0.04045   0.08245   0.17297   0.21445   0.24078
 Alpha virt. eigenvalues --    0.24834   0.26012   0.26124   0.29121   0.31203
 Alpha virt. eigenvalues --    0.33505   0.34960   0.38890   0.40797   0.42109
 Alpha virt. eigenvalues --    0.43656   0.46255   0.49077   0.53758   0.55090
 Alpha virt. eigenvalues --    0.56333   0.59363   0.60809   0.63937   0.66227
 Alpha virt. eigenvalues --    0.67396   0.71463   0.72608   0.73129   0.74922
 Alpha virt. eigenvalues --    0.76724   0.77460   0.82496   0.84054   0.87039
 Alpha virt. eigenvalues --    0.88644   0.89456   0.91729   0.95246   0.99370
 Alpha virt. eigenvalues --    1.01782   1.02262   1.02524   1.04185   1.07081
 Alpha virt. eigenvalues --    1.08822   1.09394   1.12380   1.13198   1.14816
 Alpha virt. eigenvalues --    1.15659   1.16989   1.17224   1.18118   1.24021
 Alpha virt. eigenvalues --    1.27916   1.28969   1.30858   1.32616   1.33772
 Alpha virt. eigenvalues --    1.34368   1.36789   1.40893   1.41629   1.41942
 Alpha virt. eigenvalues --    1.44445   1.46952   1.51592   1.59552   1.59981
 Alpha virt. eigenvalues --    1.60885   1.62755   1.63227   1.63853   1.64609
 Alpha virt. eigenvalues --    1.65531   1.66951   1.69176   1.69654   1.71520
 Alpha virt. eigenvalues --    1.72882   1.75795   1.76540   1.80846   1.86076
 Alpha virt. eigenvalues --    1.91021   1.91891   1.93166   1.99434   2.02302
 Alpha virt. eigenvalues --    2.03622   2.03928   2.05429   2.07008   2.08619
 Alpha virt. eigenvalues --    2.09594   2.11433   2.12148   2.17552   2.19795
 Alpha virt. eigenvalues --    2.21962   2.22039   2.24079   2.27961   2.29202
 Alpha virt. eigenvalues --    2.29880   2.32264   2.33250   2.34157   2.35322
 Alpha virt. eigenvalues --    2.37414   2.38675   2.42779   2.44543   2.45171
 Alpha virt. eigenvalues --    2.46555   2.51757   2.60254   2.61480   2.63450
 Alpha virt. eigenvalues --    2.64956   2.67746   2.74664   2.82344   2.84068
 Alpha virt. eigenvalues --    2.84138   2.90782   2.92390   2.92831   2.94972
 Alpha virt. eigenvalues --    2.99762   3.06643   3.09064   3.16743   3.21589
 Alpha virt. eigenvalues --    3.29034   3.37216   3.38380   3.42446   3.44784
 Alpha virt. eigenvalues --    3.49020   3.70728   4.02045   4.35946   4.39664
 Alpha virt. eigenvalues --    4.44606   4.47793   4.59636   4.63716   4.72428
 Alpha virt. eigenvalues --    4.81598   5.02426   5.16305   5.57330   6.02459
          Condensed to atoms (all electrons):
              1          2          3          4          5          6
     1  F    9.159132   0.267931  -0.033787   0.002214  -0.000015   0.000000
     2  C    0.267931   4.575961   0.569937  -0.026565   0.000793  -0.000019
     3  C   -0.033787   0.569937   5.071849   0.352859  -0.012541   0.002182
     4  C    0.002214  -0.026565   0.352859   5.207934   0.418743  -0.045296
     5  C   -0.000015   0.000793  -0.012541   0.418743   3.550280   0.290738
     6  F    0.000000  -0.000019   0.002182  -0.045296   0.290738   9.183477
     7  F    0.000000   0.000293   0.005077  -0.055387   0.286389  -0.030759
     8  F    0.000000   0.000292   0.005117  -0.054101   0.273721  -0.030201
     9  C    0.000132  -0.023012  -0.054608   0.592241  -0.020962   0.005426
    10  N    0.001383  -0.053462  -0.021191  -0.035884   0.001226   0.000238
    11  C   -0.040748   0.377340  -0.079125  -0.001236   0.000082   0.000002
    12  S    0.003496  -0.083544   0.001594  -0.000047   0.000006   0.000000
    13  H   -0.000269  -0.016966   0.368696  -0.030605  -0.000260   0.000035
    14  H    0.000000  -0.000113   0.001803  -0.022667  -0.000140   0.004983
    15  H   -0.000018   0.003854  -0.000572   0.002343  -0.000015   0.000001
    16  H    0.000000   0.000000   0.000007   0.000065   0.000075   0.000010
    17  O    0.000000   0.000000   0.000000  -0.000003   0.000009   0.000000
    18  H    0.000000   0.000000   0.000000   0.000000   0.000000   0.000000
              7          8          9         10         11         12
     1  F    0.000000   0.000000   0.000132   0.001383  -0.040748   0.003496
     2  C    0.000293   0.000292  -0.023012  -0.053462   0.377340  -0.083544
     3  C    0.005077   0.005117  -0.054608  -0.021191  -0.079125   0.001594
     4  C   -0.055387  -0.054101   0.592241  -0.035884  -0.001236  -0.000047
     5  C    0.286389   0.273721  -0.020962   0.001226   0.000082   0.000006
     6  F   -0.030759  -0.030201   0.005426   0.000238   0.000002   0.000000
     7  F    9.196443  -0.033480   0.000509  -0.000006  -0.000002   0.000000
     8  F   -0.033480   9.210304   0.000481  -0.000005  -0.000002   0.000000
     9  C    0.000509   0.000481   4.732589   0.266702  -0.038434   0.003296
    10  N   -0.000006  -0.000005   0.266702   7.235666   0.211532  -0.104405
    11  C   -0.000002  -0.000002  -0.038434   0.211532   4.956974   0.447430
    12  S    0.000000   0.000000   0.003296  -0.104405   0.447430  15.944053
    13  H    0.000905   0.000896   0.002412  -0.000262   0.002624  -0.000056
    14  H    0.000083   0.000083   0.379795  -0.031844   0.000955  -0.000131
    15  H    0.000000   0.000000  -0.021465   0.309781  -0.017810   0.013695
    16  H    0.000011   0.008196   0.000000   0.000000   0.000000   0.000000
    17  O    0.000000  -0.000678   0.000000   0.000000   0.000000   0.000000
    18  H    0.000000  -0.000022   0.000000   0.000000   0.000000   0.000000
             13         14         15         16         17         18
     1  F   -0.000269   0.000000  -0.000018   0.000000   0.000000   0.000000
     2  C   -0.016966  -0.000113   0.003854   0.000000   0.000000   0.000000
     3  C    0.368696   0.001803  -0.000572   0.000007   0.000000   0.000000
     4  C   -0.030605  -0.022667   0.002343   0.000065  -0.000003   0.000000
     5  C   -0.000260  -0.000140  -0.000015   0.000075   0.000009   0.000000
     6  F    0.000035   0.004983   0.000001   0.000010   0.000000   0.000000
     7  F    0.000905   0.000083   0.000000   0.000011   0.000000   0.000000
     8  F    0.000896   0.000083   0.000000   0.008196  -0.000678  -0.000022
     9  C    0.002412   0.379795  -0.021465   0.000000   0.000000   0.000000
    10  N   -0.000262  -0.031844   0.309781   0.000000   0.000000   0.000000
    11  C    0.002624   0.000955  -0.017810   0.000000   0.000000   0.000000
    12  S   -0.000056  -0.000131   0.013695   0.000000   0.000000   0.000000
    13  H    0.393291  -0.000062   0.000008   0.000002   0.000000   0.000000
    14  H   -0.000062   0.379658  -0.002110   0.000000   0.000000   0.000000
    15  H    0.000008  -0.002110   0.269626   0.000000   0.000000   0.000000
    16  H    0.000002   0.000000   0.000000   0.310366   0.262155  -0.018501
    17  O    0.000000   0.000000   0.000000   0.262155   8.349906   0.265255
    18  H    0.000000   0.000000   0.000000  -0.018501   0.265255   0.322987
 Mulliken atomic charges:
              1
     1  F   -0.359452
     2  C    0.407279
     3  C   -0.177298
     4  C   -0.304609
     5  C    1.211870
     6  F   -0.380818
     7  F   -0.370077
     8  F   -0.380604
     9  C    0.174898
    10  N   -0.779470
    11  C    0.180417
    12  S   -0.225386
    13  H    0.279610
    14  H    0.289707
    15  H    0.442680
    16  H    0.437614
    17  O   -0.876645
    18  H    0.430282
 Sum of Mulliken atomic charges =   0.00000
 Mulliken charges with hydrogens summed into heavy atoms:
              1
     1  F   -0.359452
     2  C    0.407279
     3  C    0.102311
     4  C   -0.304609
     5  C    1.211870
     6  F   -0.380818
     7  F   -0.370077
     8  F   -0.380604
     9  C    0.464605
    10  N   -0.336789
    11  C    0.180417
    12  S   -0.225386
    17  O   -0.008748
 Sum of Mulliken charges with hydrogens summed into heavy atoms =   0.00000
 Electronic spatial extent (au):  <R**2>=           3880.1062
 Charge=              0.0000 electrons
 Dipole moment (field-independent basis, Debye):
    X=              1.2177    Y=             -3.2775    Z=             -0.7684  Tot=              3.5799
 Quadrupole moment (field-independent basis, Debye-Ang):
   XX=           -120.7879   YY=            -73.4207   ZZ=            -84.8936
   XY=             -5.2062   XZ=            -11.1044   YZ=             -2.0935
 Traceless Quadrupole moment (field-independent basis, Debye-Ang):
   XX=            -27.7539   YY=             19.6134   ZZ=              8.1405
   XY=             -5.2062   XZ=            -11.1044   YZ=             -2.0935
 Octapole moment (field-independent basis, Debye-Ang**2):
  XXX=            -61.4689  YYY=            -61.6251  ZZZ=            -82.3278  XYY=            -24.0126
  XXY=            -56.3011  XXZ=            -96.1444  XZZ=            -54.3717  YZZ=            -15.2542
  YYZ=            -30.6114  XYZ=            -28.1457
 Hexadecapole moment (field-independent basis, Debye-Ang**3):
 XXXX=          -3693.0481 YYYY=           -683.0664 ZZZZ=           -700.4971 XXXY=           -448.6185
 XXXZ=           -662.7556 YYYX=           -237.9147 YYYZ=           -187.0148 ZZZX=           -457.3879
 ZZZY=           -164.8735 XXYY=           -769.2355 XXZZ=           -927.2552 YYZZ=           -245.5576
 XXYZ=           -234.0666 YYXZ=           -167.8099 ZZXY=           -174.8612
 N-N= 9.033056438809D+02 E-N=-4.543965125871D+03  KE= 1.152539271908D+03
 1\1\GINC-B1\FOpt\RHF\6-31G(d)\C6H5F4N1O1S1\ANA\24-Sep-2021\1\\#HF/6-31
 G* Opt=Z-matrix NoSymm\\water interaction with atom F8\\0,1\F,-1,-1.96
 93,2.05368,0.00007\C,-1,-1.22225,0.94423,0.00003\C,-1,0.14003,1.0574,-
 0.00002\C,-1,0.92795,-0.12364,-0.00008\C,-1,2.41466,-0.01865,-0.00001\
 F,-1,3.00708,-1.23461,-0.00056\F,-1,2.85829,0.65448,-1.08602\F,-1,2.85
 827,0.6535,1.08665\C,-1,0.30654,-1.34149,-0.00009\N,-1,-1.05417,-1.389
 97,-0.00006\C,-1,-1.9305,-0.3121,0.\S,-1,-3.57098,-0.50661,0.00003\H,-
 1,0.59686,2.0431,-0.00002\H,-1,0.83176,-2.28899,-0.00015\H,-1,-1.52148
 ,-2.29639,-0.00009\X,8,RDUM,5,ADUM,4,DDUM,0\X,16,RDUM,8,ADUM,5,DDUM,0\
 H,8,RX,16,ADUM,17,DH1,0\X,18,RDUM,8,ADUM,16,DDUM,0\O,18,ROH,19,ADUM,8,
 DOH2,0\H,20,ROH,18,AHOH,16,DH2,0\\RX=2.37884057\RDUM=1.\ROH=0.9572\ADU
 M=90.\AHOH=104.52\DDUM=0.\DH1=180.\DOH2=180.\DH2=0.\\Version=EM64L-G09
 RevA.01\HF=-1154.6741369\RMSD=8.845e-09\RMSF=2.935e-03\Dipole=0.479093
 7,-1.2894745,-0.3023202\Quadrupole=-20.6343183,14.5820842,6.0522341,-3
 .8706519,-8.2558425,-1.5564979\PG=C01 [X(C6H5F4N1O1S1)]\\@


 FIREWORKS ENDED
 AND SPECTATORS GONE AWAY....
 AH, HOW VAST AND DARK
                     SHIKI
 Job cpu time:  0 days  0 hours  3 minutes 57.8 seconds.
 File lengths (MBytes):  RWF=     33 Int=      0 D2E=      0 Chk=      3 Scr=      1
 Normal termination of Gaussian 09 at Fri Sep 24 08:11:33 2021.
