 Entering Gaussian System, Link 0=g09
 Initial command:
 /home/ana/programs/g09/l1.exe /home/ana/programs/g09/scratch/Gau-702799.inp -scrdir=/home/ana/programs/g09/scratch/
 Entering Link 1 = /home/ana/programs/g09/l1.exe PID=    702801.
  
 Copyright (c) 1988,1990,1992,1993,1995,1998,2003,2009, Gaussian, Inc.
                  All Rights Reserved.
  
 This is part of the Gaussian(R) 09 program.  It is based on
 the Gaussian(R) 03 system (copyright 2003, Gaussian, Inc.),
 the Gaussian(R) 98 system (copyright 1998, Gaussian, Inc.),
 the Gaussian(R) 94 system (copyright 1995, Gaussian, Inc.),
 the Gaussian 92(TM) system (copyright 1992, Gaussian, Inc.),
 the Gaussian 90(TM) system (copyright 1990, Gaussian, Inc.),
 the Gaussian 88(TM) system (copyright 1988, Gaussian, Inc.),
 the Gaussian 86(TM) system (copyright 1986, Carnegie Mellon
 University), and the Gaussian 82(TM) system (copyright 1983,
 Carnegie Mellon University). Gaussian is a federally registered
 trademark of Gaussian, Inc.
  
 This software contains proprietary and confidential information,
 including trade secrets, belonging to Gaussian, Inc.
  
 This software is provided under written license and may be
 used, copied, transmitted, or stored only in accord with that
 written license.
  
 The following legend is applicable only to US Government
 contracts under FAR:
  
                    RESTRICTED RIGHTS LEGEND
  
 Use, reproduction and disclosure by the US Government is
 subject to restrictions as set forth in subparagraphs (a)
 and (c) of the Commercial Computer Software - Restricted
 Rights clause in FAR 52.227-19.
  
 Gaussian, Inc.
 340 Quinnipiac St., Bldg. 40, Wallingford CT 06492
  
  
 ---------------------------------------------------------------
 Warning -- This program may not be used in any manner that
 competes with the business of Gaussian, Inc. or will provide
 assistance to any competitor of Gaussian, Inc.  The licensee
 of this program is prohibited from giving any competitor of
 Gaussian, Inc. access to this program.  By using this program,
 the user acknowledges that Gaussian, Inc. is engaged in the
 business of creating and licensing software in the field of
 computational chemistry and represents and warrants to the
 licensee that it is not a competitor of Gaussian, Inc. and that
 it will not use this program in any manner prohibited above.
 ---------------------------------------------------------------
  

 Cite this work as:
 Gaussian 09, Revision A.01,
 M. J. Frisch, G. W. Trucks, H. B. Schlegel, G. E. Scuseria, 
 M. A. Robb, J. R. Cheeseman, G. Scalmani, V. Barone, B. Mennucci, 
 G. A. Petersson, H. Nakatsuji, M. Caricato, X. Li, H. P. Hratchian, 
 A. F. Izmaylov, J. Bloino, G. Zheng, J. L. Sonnenberg, M. Hada, 
 M. Ehara, K. Toyota, R. Fukuda, J. Hasegawa, M. Ishida, T. Nakajima, 
 Y. Honda, O. Kitao, H. Nakai, T. Vreven, J. A. Montgomery, Jr., 
 J. E. Peralta, F. Ogliaro, M. Bearpark, J. J. Heyd, E. Brothers, 
 K. N. Kudin, V. N. Staroverov, R. Kobayashi, J. Normand, 
 K. Raghavachari, A. Rendell, J. C. Burant, S. S. Iyengar, J. Tomasi, 
 M. Cossi, N. Rega, J. M. Millam, M. Klene, J. E. Knox, J. B. Cross, 
 V. Bakken, C. Adamo, J. Jaramillo, R. Gomperts, R. E. Stratmann, 
 O. Yazyev, A. J. Austin, R. Cammi, C. Pomelli, J. W. Ochterski, 
 R. L. Martin, K. Morokuma, V. G. Zakrzewski, G. A. Voth, 
 P. Salvador, J. J. Dannenberg, S. Dapprich, A. D. Daniels, 
 O. Farkas, J. B. Foresman, J. V. Ortiz, J. Cioslowski, 
 and D. J. Fox, Gaussian, Inc., Wallingford CT, 2009.
 
 ******************************************
 Gaussian 09:  EM64L-G09RevA.01  8-May-2009
                24-Sep-2021 
 ******************************************
 %NPROC=4
 Will use up to    4 processors via shared memory.
 %NoSave
 ------------------------------
 #HF/6-31G* Opt=Z-matrix NoSymm
 ------------------------------
 1/10=7,18=40,38=1/1,3;
 2/12=2,15=1,17=6,18=5,29=3,40=1/2;
 3/5=1,6=6,7=1,11=9,16=1,25=1,30=1,71=1/1,2,3;
 4//1;
 5/5=2,38=5/2;
 6/7=2,8=2,9=2,10=2,28=1/1;
 7/29=1,30=1/1,2,3,16;
 1/10=7,18=40/3(2);
 2/15=1,29=3/2;
 99//99;
 2/15=1,29=3/2;
 3/5=1,6=6,7=1,11=9,16=1,25=1,30=1,71=1/1,2,3;
 4/5=5,16=3/1;
 5/5=2,38=5/2;
 7/30=1/1,2,3,16;
 1/18=40/3(-5);
 2/15=1,29=3/2;
 6/7=2,8=2,9=2,10=2,19=2,28=1/1;
 99/9=1/99;
 ------------------------------
 water interaction with atom F8
 ------------------------------
 Symbolic Z-matrix:
 Charge =  0 Multiplicity = 1
 9                    -1   -1.9693    2.05368   0.00007 
 6                    -1   -1.22225   0.94423   0.00003 
 6                    -1    0.14003   1.0574   -0.00002 
 6                    -1    0.92795  -0.12364  -0.00008 
 6                    -1    2.41466  -0.01865  -0.00001 
 9                    -1    3.00708  -1.23461  -0.00056 
 9                    -1    2.85829   0.65448  -1.08602 
 9                    -1    2.85827   0.6535    1.08665 
 6                    -1    0.30654  -1.34149  -0.00009 
 7                    -1   -1.05417  -1.38997  -0.00006 
 6                    -1   -1.9305   -0.3121    0. 
 16                   -1   -3.57098  -0.50661   0.00003 
 1                    -1    0.59686   2.0431   -0.00002 
 1                    -1    0.83176  -2.28899  -0.00015 
 1                    -1   -1.52148  -2.29639  -0.00009 
 X                    8    RDUM     5    ADUM     4    DDUM     0
 X                    16   RDUM     8    ADUM     5    DDUM     0
 H1                   8    RX       16   ADUM     17   DH1      0
 X                    18   RDUM     8    ADUM     16   DDUM     0
 OH2                  18   ROH      19   ADUM     8    DOH2     0
 H2                   20   ROH      18   AHOH     16   DH2      0
       Variables:
  RX                    2.3513                   
       Constants:
  RDUM                  1.                       
  ROH                   0.9572                   
  ADUM                 90.                       
  AHOH                104.52                     
  DDUM                  0.                       
  DH1                 180.                       
  DOH2                180.                       
  DH2                 180.                       
 

 GradGradGradGradGradGradGradGradGradGradGradGradGradGradGradGradGradGrad
 Berny optimization.
 Initialization pass.
                       ----------------------------
                       !    Initial Parameters    !
                       ! (Angstroms and Degrees)  !
 ----------------------                            ----------------------
 !      Name          Value   Derivative information (Atomic Units)     !
 ------------------------------------------------------------------------
 !       RX          2.3513   estimate D2E/DX2                          !
 !      RDUM         1.0      Frozen                                    !
 !       ROH         0.9572   Frozen                                    !
 !      ADUM        90.0      Frozen                                    !
 !      AHOH       104.52     Frozen                                    !
 !      DDUM         0.0      Frozen                                    !
 !       DH1       180.0      Frozen                                    !
 !      DOH2       180.0      Frozen                                    !
 !       DH2       180.0      Frozen                                    !
 ------------------------------------------------------------------------
 Trust Radius=3.00D-01 FncErr=1.00D-07 GrdErr=1.00D-07
 Number of steps in this run=  20 maximum allowed number of steps= 100.
 GradGradGradGradGradGradGradGradGradGradGradGradGradGradGradGradGradGrad

 ---------------------------------------------------------------------------------------------------
                            Z-MATRIX (ANGSTROMS AND DEGREES)
   CD    Cent   Atom    N1       Length/X        N2       Alpha/Y        N3        Beta/Z          J
 ---------------------------------------------------------------------------------------------------
      1      1  F       -1  -1.969300          2.053680          0.000070
      2      2  C       -1  -1.222250          0.944230          0.000030
      3      3  C       -1   0.140030          1.057400         -0.000020
      4      4  C       -1   0.927950         -0.123640         -0.000080
      5      5  C       -1   2.414660         -0.018650         -0.000010
      6      6  F       -1   3.007080         -1.234610         -0.000560
      7      7  F       -1   2.858290          0.654480         -1.086020
      8      8  F       -1   2.858270          0.653500          1.086650
      9      9  C       -1   0.306540         -1.341490         -0.000090
     10     10  N       -1  -1.054170         -1.389970         -0.000060
     11     11  C       -1  -1.930500         -0.312100          0.000000
     12     12  S       -1  -3.570980         -0.506610          0.000030
     13     13  H       -1   0.596860          2.043100         -0.000020
     14     14  H       -1   0.831760         -2.288990         -0.000150
     15     15  H       -1  -1.521480         -2.296390         -0.000090
     16         X        8   1.000000(    15)      5   90.000(    34)      4    0.000(    52)      0
     17         X       16   1.000000(    16)      8   90.000(    35)      5    0.000(    53)      0
     18     16  H        8   2.351300(    17)     16   90.000(    36)     17  180.000(    54)      0
     19         X       18   1.000000(    18)      8   90.000(    37)     16    0.000(    55)      0
     20     17  O       18   0.957200(    19)     19   90.000(    38)      8  180.000(    56)      0
     21     18  H       20   0.957200(    20)     18  104.520(    39)     16  180.000(    57)      0
 ---------------------------------------------------------------------------------------------------
                         Z-Matrix orientation:                         
 ---------------------------------------------------------------------
 Center     Atomic      Atomic             Coordinates (Angstroms)
 Number     Number       Type             X           Y           Z
 ---------------------------------------------------------------------
      1          9           0       -1.969300    2.053680    0.000070
      2          6           0       -1.222250    0.944230    0.000030
      3          6           0        0.140030    1.057400   -0.000020
      4          6           0        0.927950   -0.123640   -0.000080
      5          6           0        2.414660   -0.018650   -0.000010
      6          9           0        3.007080   -1.234610   -0.000560
      7          9           0        2.858290    0.654480   -1.086020
      8          9           0        2.858270    0.653500    1.086650
      9          6           0        0.306540   -1.341490   -0.000090
     10          7           0       -1.054170   -1.389970   -0.000060
     11          6           0       -1.930500   -0.312100    0.000000
     12         16           0       -3.570980   -0.506610    0.000030
     13          1           0        0.596860    2.043100   -0.000020
     14          1           0        0.831760   -2.288990   -0.000150
     15          1           0       -1.521480   -2.296390   -0.000090
     16         -1           0        1.915537    0.771037    1.398802
     17         -1           0        1.587558    0.274088    0.595390
     18          1           0        3.629448    1.821975    2.975714
     19         -1           0        2.686714    1.939511    3.287867
     20          8           0        3.943389    2.297654    3.744741
     21          1           0        4.895662    2.308002    3.648301
 ---------------------------------------------------------------------
                    Distance matrix (angstroms):
                    1          2          3          4          5
     1  F    0.000000
     2  C    1.337521   0.000000
     3  C    2.332777   1.366973   0.000000
     4  C    3.624194   2.400772   1.419744   0.000000
     5  C    4.849088   3.762214   2.516312   1.490413   0.000000
     6  F    5.964663   4.757581   3.670597   2.357337   1.352598
     7  F    5.142274   4.232525   2.954772   2.347541   1.352527
     8  F    5.142625   4.232719   2.955134   2.347566   1.352555
     9  C    4.087374   2.749857   2.404662   1.367227   2.488790
    10  N    3.563171   2.340244   2.723184   2.352104   3.730054
    11  C    2.366098   1.442215   2.482463   2.864656   4.355058
    12  S    3.020011   2.760701   4.027123   4.515201   6.005497
    13  H    2.566182   2.125247   1.086415   2.191890   2.748674
    14  H    5.167661   3.830492   3.417136   2.167485   2.767673
    15  H    4.373060   3.254406   3.742796   3.274225   4.547669
    16  X    4.323608   3.439806   2.278406   1.932006   1.682084
    17  X    4.021516   2.949332   1.750265   0.973578   1.060328
    18  H    6.344614   5.758828   4.649258   4.465295   3.703855
    19  X    5.700975   5.203889   4.251343   4.261507   3.836475
    20  O    7.002998   6.522150   5.479690   5.383235   4.661055
    21  H    7.778302   7.252490   6.122931   5.913232   4.987871
                    6          7          8          9         10
     6  F    0.000000
     7  F    2.183809   0.000000
     8  F    2.183834   2.172670   0.000000
     9  C    2.702654   3.416807   3.416477   0.000000
    10  N    4.064221   4.546034   4.545756   1.361573   0.000000
    11  C    5.023019   5.004620   5.004549   2.462517   1.389157
    12  S    6.618222   6.622926   6.622828   3.966382   2.667332
    13  H    4.068482   2.867355   2.868068   3.397019   3.809445
    14  H    2.417382   3.734964   3.734451   1.083334   2.089251
    15  H    4.651369   5.391592   5.391203   2.062399   1.019792
    16  X    2.678115   2.660209   1.000000   3.001423   3.930130
    17  X    2.155544   2.141634   1.414214   2.146088   3.178423
    18  H    4.311410   4.295976   2.351300   5.468513   6.411559
    19  X    4.581641   4.561976   2.555115   5.219278   5.990837
    20  O    5.232670   5.216676   3.308500   6.363474   7.252427
    21  H    5.425037   5.412838   3.667479   6.905765   7.898483
                   11         12         13         14         15
    11  C    0.000000
    12  S    1.651971   0.000000
    13  H    3.454637   4.885889   0.000000
    14  H    3.396789   4.749842   4.338454   0.000000
    15  H    2.026007   2.720986   4.828927   2.353252   0.000000
    16  X    4.233419   5.804379   2.305159   3.534884   4.814467
    17  X    3.615914   5.251138   2.113148   2.737749   4.077753
    18  H    6.657490   8.131615   4.254466   5.795072   7.235219
    19  X    6.099056   7.480115   3.897233   5.668521   6.816335
    20  O    7.438849   8.851695   5.028647   6.689076   8.061873
    21  H    8.171385   9.639292   5.644477   7.138545   8.700052
                   16         17         18         19         20
    16  X    0.000000
    17  X    1.000000   0.000000
    18  H    2.555115   3.497315   0.000000
    19  X    2.351300   3.351300   1.000000   0.000000
    20  O    3.456324   4.423027   0.957200   1.384280   0.000000
    21  H    4.037778   4.939699   1.513901   2.268292   0.957200
                   21
    21  H    0.000000
 Symmetry turned off by external request.
 Stoichiometry    C6H5F4NOS
 Framework group  C1[X(C6H5F4NOS)]
 Deg. of freedom    48
 Full point group                 C1      NOp   1
 Rotational constants (GHZ):      1.0040472      0.3159107      0.2778126
 Standard basis: 6-31G(d) (6D, 7F)
 Integral buffers will be    131072 words long.
 Raffenetti 1 integral format.
 Two-electron integral symmetry is turned off.
   209 basis functions,   408 primitive gaussians,   209 cartesian basis functions
    54 alpha electrons       54 beta electrons
       nuclear repulsion energy       903.2571492836 Hartrees.
 NAtoms=   18 NActive=   18 NUniq=   18 SFac= 7.50D-01 NAtFMM=   80 NAOKFM=F Big=F
 One-electron integrals computed using PRISM.
 NBasis=   209 RedAO= T  NBF=   209
 NBsUse=   209 1.00D-06 NBFU=   209
 Harris functional with IExCor=  205 diagonalized for initial guess.
 ExpMin= 1.17D-01 ExpMax= 2.19D+04 ExpMxC= 3.30D+03 IAcc=1 IRadAn=         1 AccDes= 0.00D+00
 HarFok:  IExCor=  205 AccDes= 0.00D+00 IRadAn=         1 IDoV= 1
 ScaDFX=  1.000000  1.000000  1.000000  1.000000
 FoFCou: FMM=F IPFlag=           0 FMFlag=      100000 FMFlg1=           0
         NFxFlg=           0 DoJE=T BraDBF=F KetDBF=T FulRan=T
         Omega=  0.000000  0.000000  1.000000  0.000000  0.000000 ICntrl=     500 IOpCl=  0
         NMat0=    1 NMatS0=    1 NMatT0=    0 NMatD0=    1 NMtDS0=    0 NMtDT0=    0
         I1Cent=           4 NGrid=           0.
 Symmetry not used in FoFCou.
 Requested convergence on RMS density matrix=1.00D-08 within 128 cycles.
 Requested convergence on MAX density matrix=1.00D-06.
 Requested convergence on             energy=1.00D-06.
 No special actions if energy rises.
 Integral accuracy reduced to 1.0D-05 until final iterations.
 Initial convergence to 1.0D-05 achieved.  Increase integral accuracy.
 SCF Done:  E(RHF) =  -1154.67458818     A.U. after   15 cycles
             Convg  =    0.5436D-08             -V/T =  2.0019

 **********************************************************************

            Population analysis using the SCF density.

 **********************************************************************

 Alpha  occ. eigenvalues --  -91.90604 -26.37519 -26.37339 -26.36570 -26.33521
 Alpha  occ. eigenvalues --  -20.55687 -15.68886 -11.54991 -11.37967 -11.37331
 Alpha  occ. eigenvalues --  -11.36412 -11.31388 -11.30620  -8.91691  -6.60019
 Alpha  occ. eigenvalues --   -6.59743  -6.59616  -1.74994  -1.65998  -1.65344
 Alpha  occ. eigenvalues --   -1.64767  -1.35721  -1.33881  -1.17417  -1.12234
 Alpha  occ. eigenvalues --   -1.03435  -0.97589  -0.92962  -0.88490  -0.85321
 Alpha  occ. eigenvalues --   -0.84554  -0.84273  -0.77311  -0.76167  -0.74096
 Alpha  occ. eigenvalues --   -0.73212  -0.72352  -0.71396  -0.70485  -0.70398
 Alpha  occ. eigenvalues --   -0.68488  -0.68252  -0.67037  -0.64305  -0.62696
 Alpha  occ. eigenvalues --   -0.61057  -0.59716  -0.56806  -0.52709  -0.49501
 Alpha  occ. eigenvalues --   -0.46808  -0.43407  -0.34225  -0.31127
 Alpha virt. eigenvalues --    0.04332   0.08478   0.17505   0.21599   0.24366
 Alpha virt. eigenvalues --    0.25017   0.26275   0.26339   0.29265   0.31396
 Alpha virt. eigenvalues --    0.33726   0.35200   0.39022   0.40902   0.42310
 Alpha virt. eigenvalues --    0.43742   0.46505   0.49302   0.53934   0.55326
 Alpha virt. eigenvalues --    0.56597   0.59563   0.61060   0.64184   0.66397
 Alpha virt. eigenvalues --    0.67338   0.71690   0.72842   0.73273   0.75182
 Alpha virt. eigenvalues --    0.76989   0.77712   0.82750   0.84302   0.87341
 Alpha virt. eigenvalues --    0.88834   0.89621   0.91974   0.95507   0.99619
 Alpha virt. eigenvalues --    1.01973   1.02442   1.02648   1.04488   1.07351
 Alpha virt. eigenvalues --    1.09085   1.09602   1.12548   1.13382   1.15084
 Alpha virt. eigenvalues --    1.15911   1.17015   1.17318   1.18232   1.24235
 Alpha virt. eigenvalues --    1.28133   1.29134   1.31098   1.32664   1.33977
 Alpha virt. eigenvalues --    1.34556   1.36862   1.40954   1.41868   1.42184
 Alpha virt. eigenvalues --    1.44457   1.47234   1.51904   1.59564   1.60101
 Alpha virt. eigenvalues --    1.60851   1.62847   1.63209   1.63942   1.64682
 Alpha virt. eigenvalues --    1.65771   1.67201   1.69497   1.69819   1.71759
 Alpha virt. eigenvalues --    1.73594   1.76056   1.76819   1.81028   1.86273
 Alpha virt. eigenvalues --    1.91278   1.91912   1.93396   1.99443   2.02337
 Alpha virt. eigenvalues --    2.03635   2.04163   2.05543   2.07043   2.08562
 Alpha virt. eigenvalues --    2.09919   2.11388   2.12188   2.17845   2.20070
 Alpha virt. eigenvalues --    2.22066   2.22180   2.24260   2.27946   2.29383
 Alpha virt. eigenvalues --    2.29984   2.32372   2.33476   2.34169   2.35323
 Alpha virt. eigenvalues --    2.37638   2.38881   2.43038   2.44615   2.45402
 Alpha virt. eigenvalues --    2.46679   2.51986   2.60387   2.61749   2.63616
 Alpha virt. eigenvalues --    2.65159   2.67801   2.74784   2.82601   2.84341
 Alpha virt. eigenvalues --    2.84388   2.90934   2.92622   2.93058   2.95008
 Alpha virt. eigenvalues --    2.99912   3.06665   3.09270   3.16867   3.21757
 Alpha virt. eigenvalues --    3.29195   3.37200   3.38411   3.42750   3.44841
 Alpha virt. eigenvalues --    3.49267   3.70974   4.02314   4.36200   4.39923
 Alpha virt. eigenvalues --    4.44839   4.48051   4.59890   4.63895   4.72659
 Alpha virt. eigenvalues --    4.81818   5.02676   5.16441   5.57617   6.02594
          Condensed to atoms (all electrons):
              1          2          3          4          5          6
     1  F    9.158434   0.268112  -0.033638   0.002211  -0.000015   0.000000
     2  C    0.268112   4.573091   0.570601  -0.026130   0.000792  -0.000019
     3  C   -0.033638   0.570601   5.067986   0.352633  -0.012510   0.002162
     4  C    0.002211  -0.026130   0.352633   5.206291   0.419565  -0.045316
     5  C   -0.000015   0.000792  -0.012510   0.419565   3.552992   0.290233
     6  F    0.000000  -0.000019   0.002162  -0.045316   0.290233   9.185107
     7  F    0.000000   0.000293   0.005079  -0.055649   0.285969  -0.030732
     8  F    0.000000   0.000291   0.005094  -0.054435   0.273721  -0.030202
     9  C    0.000134  -0.023082  -0.054192   0.592021  -0.021121   0.005339
    10  N    0.001382  -0.053178  -0.021218  -0.035624   0.001228   0.000237
    11  C   -0.040742   0.377759  -0.079340  -0.001226   0.000081   0.000002
    12  S    0.003521  -0.083361   0.001593  -0.000050   0.000006   0.000000
    13  H   -0.000284  -0.016552   0.368474  -0.030759  -0.000245   0.000034
    14  H    0.000000  -0.000114   0.001797  -0.022867  -0.000145   0.004931
    15  H   -0.000018   0.003854  -0.000572   0.002348  -0.000016   0.000001
    16  H    0.000000   0.000000   0.000008   0.000070   0.000079   0.000011
    17  O    0.000000   0.000000   0.000000  -0.000003   0.000010   0.000000
    18  H    0.000000   0.000000   0.000000   0.000000   0.000000   0.000000
              7          8          9         10         11         12
     1  F    0.000000   0.000000   0.000134   0.001382  -0.040742   0.003521
     2  C    0.000293   0.000291  -0.023082  -0.053178   0.377759  -0.083361
     3  C    0.005079   0.005094  -0.054192  -0.021218  -0.079340   0.001593
     4  C   -0.055649  -0.054435   0.592021  -0.035624  -0.001226  -0.000050
     5  C    0.285969   0.273721  -0.021121   0.001228   0.000081   0.000006
     6  F   -0.030732  -0.030202   0.005339   0.000237   0.000002   0.000000
     7  F    9.198123  -0.033488   0.000504  -0.000006  -0.000002   0.000000
     8  F   -0.033488   9.210286   0.000464  -0.000005  -0.000002   0.000000
     9  C    0.000504   0.000464   4.731577   0.267261  -0.038410   0.003320
    10  N   -0.000006  -0.000005   0.267261   7.234997   0.211411  -0.104491
    11  C   -0.000002  -0.000002  -0.038410   0.211411   4.956324   0.447206
    12  S    0.000000   0.000000   0.003320  -0.104491   0.447206  15.944964
    13  H    0.000887   0.000871   0.002399  -0.000261   0.002627  -0.000055
    14  H    0.000082   0.000081   0.380078  -0.031897   0.000958  -0.000132
    15  H    0.000000   0.000000  -0.021495   0.309798  -0.017812   0.013769
    16  H    0.000013   0.008641   0.000000   0.000000   0.000000   0.000000
    17  O    0.000000  -0.000751   0.000000   0.000000   0.000000   0.000000
    18  H    0.000000  -0.000023   0.000000   0.000000   0.000000   0.000000
             13         14         15         16         17         18
     1  F   -0.000284   0.000000  -0.000018   0.000000   0.000000   0.000000
     2  C   -0.016552  -0.000114   0.003854   0.000000   0.000000   0.000000
     3  C    0.368474   0.001797  -0.000572   0.000008   0.000000   0.000000
     4  C   -0.030759  -0.022867   0.002348   0.000070  -0.000003   0.000000
     5  C   -0.000245  -0.000145  -0.000016   0.000079   0.000010   0.000000
     6  F    0.000034   0.004931   0.000001   0.000011   0.000000   0.000000
     7  F    0.000887   0.000082   0.000000   0.000013   0.000000   0.000000
     8  F    0.000871   0.000081   0.000000   0.008641  -0.000751  -0.000023
     9  C    0.002399   0.380078  -0.021495   0.000000   0.000000   0.000000
    10  N   -0.000261  -0.031897   0.309798   0.000000   0.000000   0.000000
    11  C    0.002627   0.000958  -0.017812   0.000000   0.000000   0.000000
    12  S   -0.000055  -0.000132   0.013769   0.000000   0.000000   0.000000
    13  H    0.392048  -0.000062   0.000008   0.000002   0.000000   0.000000
    14  H   -0.000062   0.381236  -0.002126   0.000000   0.000000   0.000000
    15  H    0.000008  -0.002126   0.270056   0.000000   0.000000   0.000000
    16  H    0.000002   0.000000   0.000000   0.309594   0.262126  -0.018538
    17  O    0.000000   0.000000   0.000000   0.262126   8.351761   0.265714
    18  H    0.000000   0.000000   0.000000  -0.018538   0.265714   0.321162
 Mulliken atomic charges:
              1
     1  F   -0.359097
     2  C    0.407644
     3  C   -0.173953
     4  C   -0.303081
     5  C    1.209375
     6  F   -0.381788
     7  F   -0.371073
     8  F   -0.380543
     9  C    0.175202
    10  N   -0.779634
    11  C    0.181167
    12  S   -0.226290
    13  H    0.280868
    14  H    0.288179
    15  H    0.442203
    16  H    0.437995
    17  O   -0.878857
    18  H    0.431684
 Sum of Mulliken atomic charges =   0.00000
 Mulliken charges with hydrogens summed into heavy atoms:
              1
     1  F   -0.359097
     2  C    0.407644
     3  C    0.106915
     4  C   -0.303081
     5  C    1.209375
     6  F   -0.381788
     7  F   -0.371073
     8  F   -0.380543
     9  C    0.463381
    10  N   -0.337431
    11  C    0.181167
    12  S   -0.226290
    17  O   -0.009178
 Sum of Mulliken charges with hydrogens summed into heavy atoms =   0.00000
 Electronic spatial extent (au):  <R**2>=           3887.9502
 Charge=              0.0000 electrons
 Dipole moment (field-independent basis, Debye):
    X=              4.4618    Y=             -3.6403    Z=             -1.8174  Tot=              6.0384
 Quadrupole moment (field-independent basis, Debye-Ang):
   XX=            -94.1687   YY=            -75.4530   ZZ=            -93.7142
   XY=              1.3192   XZ=             -2.1859   YZ=             -6.4430
 Traceless Quadrupole moment (field-independent basis, Debye-Ang):
   XX=             -6.3901   YY=             12.3256   ZZ=             -5.9356
   XY=              1.3192   XZ=             -2.1859   YZ=             -6.4430
 Octapole moment (field-independent basis, Debye-Ang**2):
  XXX=            102.6939  YYY=            -68.3526  ZZZ=           -134.4966  XYY=            -12.5021
  XXY=              3.7037  XXZ=             -5.7228  XZZ=            -36.4240  YZZ=            -43.5546
  YYZ=            -45.0403  XYZ=            -12.5085
 Hexadecapole moment (field-independent basis, Debye-Ang**3):
 XXXX=          -2795.1780 YYYY=           -702.7577 ZZZZ=           -970.4832 XXXY=            -69.3129
 XXXZ=            -76.2240 YYYX=           -220.0073 YYYZ=           -229.1027 ZZZX=           -454.9698
 ZZZY=           -319.2596 XXYY=           -642.8976 XXZZ=           -640.2496 YYZZ=           -328.8415
 XXYZ=            -37.2413 YYXZ=           -146.1682 ZZXY=           -155.7411
 N-N= 9.032571492836D+02 E-N=-4.544034100493D+03  KE= 1.152539332631D+03
 Calling FoFJK, ICntrl=      2127 FMM=F ISym2X=0 I1Cent= 0 IOpClX= 0 NMat=1 NMatS=1 NMatT=0.
 -------------------------------------------------------------------
 Center     Atomic                   Forces (Hartrees/Bohr)
 Number     Number              X              Y              Z
 -------------------------------------------------------------------
      1        9           0.000000000    0.000000000    0.000000000
      2        6           0.000000000    0.000000000    0.000000000
      3        6           0.000000000    0.000000000    0.000000000
      4        6           0.000000000    0.000000000    0.000000000
      5        6           0.000000000    0.000000000    0.000000000
      6        9           0.000000000    0.000000000    0.000000000
      7        9           0.000000000    0.000000000    0.000000000
      8        9           0.000000000    0.000000000    0.000000000
      9        6           0.000000000    0.000000000    0.000000000
     10        7           0.000000000    0.000000000    0.000000000
     11        6           0.000000000    0.000000000    0.000000000
     12       16           0.000000000    0.000000000    0.000000000
     13        1           0.000000000    0.000000000    0.000000000
     14        1           0.000000000    0.000000000    0.000000000
     15        1           0.000000000    0.000000000    0.000000000
     16        1           0.002600099    0.005306843    0.008951482
     17        8           0.007912156   -0.005894669   -0.011080708
     18        1          -0.010462449    0.000497202    0.002070093
 -------------------------------------------------------------------
 Cartesian Forces:  Max     0.011080708 RMS     0.002884116
 -----------------------------------------------------------------------------------------------
                       Internal Coordinate Forces (Hartree/Bohr or radian)
  Cent   Atom   N1       Length/X         N2         Alpha/Y        N3         Beta/Z          J
 -----------------------------------------------------------------------------------------------
      1  F 
      2  C 
      3  C 
      4  C 
      5  C 
      6  F 
      7  F 
      8  F 
      9  C 
     10  N 
     11  C 
     12  S 
     13  H 
     14  H 
     15  H 
         X        8   0.000000(     1)      5   0.000095(     7)      4   0.000023(    13)     0
         X       16   0.000000(     2)      8   0.000000(     8)      5  -0.000071(    14)     0
     16  H        8  -0.000076(     3)     16   0.000095(     9)     17   0.000071(    15)     0
         X       18   0.000000(     4)      8  -0.000243(    10)     16   0.000000(    16)     0
     17  O       18  -0.010758(     5)     19  -0.000243(    11)      8  -0.000103(    17)     0
     18  H       20  -0.010612(     6)     18   0.002129(    12)     16   0.000023(    18)     0
 -----------------------------------------------------------------------------------------------
 Internal  Forces:  Max     0.010757947 RMS     0.003598138

 GradGradGradGradGradGradGradGradGradGradGradGradGradGradGradGradGradGrad
 Berny optimization.
 Search for a local minimum.
 Step number   1 out of a maximum of   20
 All quantities printed in internal units (Hartrees-Bohrs-Radians)
 Second derivative matrix not updated -- first step.
 The second derivative matrix:
                          RX       RDUM       ROH      ADUM      AHOH
           RX           0.02532
           RDUM         0.00000   0.00000
           ROH          0.00000   0.00000   1.12160
           ADUM         0.00000   0.00000   0.00000   2.14546
           AHOH         0.00000   0.00000   0.00000   0.00000   0.16000
           DDUM         0.00000   0.00000   0.00000   0.08002   0.00000
           DH1          0.00000   0.00000   0.00000  -0.08002   0.00000
           DOH2         0.00000   0.00000   0.00000  -0.12502   0.00000
           DH2          0.00000   0.00000   0.00000   0.00000   0.00000
                         DDUM       DH1      DOH2       DH2
           DDUM         0.18244
           DH1         -0.18244   0.18244
           DOH2         0.00000   0.00000   0.28507
           DH2          0.00000   0.00000   0.00000   0.00000
     Eigenvalues ---    0.025321000.000001000.000001000.000001000.00000
     Eigenvalues --- 1000.000001000.000001000.000001000.00000
 RFO step:  Lambda=-2.29369495D-07 EMin= 2.53198400D-02
 Linear search not attempted -- first point.
 Variable       Old X    -DE/DX   Delta X   Delta X   Delta X     New X
                                 (Linear)    (Quad)   (Total)
    RX        4.44331  -0.00008   0.00000  -0.00301  -0.00301   4.44030
   RDUM       1.88973   0.00000   0.00000   0.00000   0.00000   1.88973
   ROH        1.80885  -0.02137   0.00000   0.00000   0.00000   1.80885
   ADUM       1.57080  -0.00029   0.00000   0.00000   0.00000   1.57080
   AHOH       1.82422   0.00213   0.00000   0.00000   0.00000   1.82422
   DDUM       0.00000  -0.00005   0.00000   0.00000   0.00000   0.00000
   DH1        3.14159   0.00007   0.00000   0.00000   0.00000   3.14159
   DOH2       3.14159  -0.00010   0.00000   0.00000   0.00000   3.14159
   DH2        3.14159   0.00002   0.00000   0.00000   0.00000   3.14159
         Item               Value     Threshold  Converged?
 Maximum Force            0.000076     0.000450     YES
 RMS     Force            0.000076     0.000300     YES
 Maximum Displacement     0.003010     0.001800     NO 
 RMS     Displacement     0.001003     0.001200     YES
 Predicted change in Energy=-1.146847D-07
 GradGradGradGradGradGradGradGradGradGradGradGradGradGradGradGradGradGrad

 ---------------------------------------------------------------------------------------------------
                            Z-MATRIX (ANGSTROMS AND DEGREES)
   CD    Cent   Atom    N1       Length/X        N2       Alpha/Y        N3        Beta/Z          J
 ---------------------------------------------------------------------------------------------------
      1      1  F       -1  -1.969300          2.053680          0.000070
      2      2  C       -1  -1.222250          0.944230          0.000030
      3      3  C       -1   0.140030          1.057400         -0.000020
      4      4  C       -1   0.927950         -0.123640         -0.000080
      5      5  C       -1   2.414660         -0.018650         -0.000010
      6      6  F       -1   3.007080         -1.234610         -0.000560
      7      7  F       -1   2.858290          0.654480         -1.086020
      8      8  F       -1   2.858270          0.653500          1.086650
      9      9  C       -1   0.306540         -1.341490         -0.000090
     10     10  N       -1  -1.054170         -1.389970         -0.000060
     11     11  C       -1  -1.930500         -0.312100          0.000000
     12     12  S       -1  -3.570980         -0.506610          0.000030
     13     13  H       -1   0.596860          2.043100         -0.000020
     14     14  H       -1   0.831760         -2.288990         -0.000150
     15     15  H       -1  -1.521480         -2.296390         -0.000090
     16         X        8   1.000000(    15)      5   90.000(    34)      4    0.000(    52)      0
     17         X       16   1.000000(    16)      8   90.000(    35)      5    0.000(    53)      0
     18     16  H        8   2.349707(    17)     16   90.000(    36)     17  180.000(    54)      0
     19         X       18   1.000000(    18)      8   90.000(    37)     16    0.000(    55)      0
     20     17  O       18   0.957200(    19)     19   90.000(    38)      8  180.000(    56)      0
     21     18  H       20   0.957200(    20)     18  104.520(    39)     16  180.000(    57)      0
 ---------------------------------------------------------------------------------------------------
                         Z-Matrix orientation:                         
 ---------------------------------------------------------------------
 Center     Atomic      Atomic             Coordinates (Angstroms)
 Number     Number       Type             X           Y           Z
 ---------------------------------------------------------------------
      1          9           0       -1.969300    2.053680    0.000070
      2          6           0       -1.222250    0.944230    0.000030
      3          6           0        0.140030    1.057400   -0.000020
      4          6           0        0.927950   -0.123640   -0.000080
      5          6           0        2.414660   -0.018650   -0.000010
      6          9           0        3.007080   -1.234610   -0.000560
      7          9           0        2.858290    0.654480   -1.086020
      8          9           0        2.858270    0.653500    1.086650
      9          6           0        0.306540   -1.341490   -0.000090
     10          7           0       -1.054170   -1.389970   -0.000060
     11          6           0       -1.930500   -0.312100    0.000000
     12         16           0       -3.570980   -0.506610    0.000030
     13          1           0        0.596860    2.043100   -0.000020
     14          1           0        0.831760   -2.288990   -0.000150
     15          1           0       -1.521480   -2.296390   -0.000090
     16         -1           0        1.915537    0.771037    1.398802
     17         -1           0        1.587558    0.274088    0.595390
     18          1           0        3.628925    1.821183    2.974435
     19         -1           0        2.686192    1.938720    3.286587
     20          8           0        3.942867    2.296862    3.743461
     21          1           0        4.895140    2.307211    3.647021
 ---------------------------------------------------------------------
                    Distance matrix (angstroms):
                    1          2          3          4          5
     1  F    0.000000
     2  C    1.337521   0.000000
     3  C    2.332777   1.366973   0.000000
     4  C    3.624194   2.400772   1.419744   0.000000
     5  C    4.849088   3.762214   2.516312   1.490413   0.000000
     6  F    5.964663   4.757581   3.670597   2.357337   1.352598
     7  F    5.142274   4.232525   2.954772   2.347541   1.352527
     8  F    5.142625   4.232719   2.955134   2.347566   1.352555
     9  C    4.087374   2.749857   2.404662   1.367227   2.488790
    10  N    3.563171   2.340244   2.723184   2.352104   3.730054
    11  C    2.366098   1.442215   2.482463   2.864656   4.355058
    12  S    3.020011   2.760701   4.027123   4.515201   6.005497
    13  H    2.566182   2.125247   1.086415   2.191890   2.748674
    14  H    5.167661   3.830492   3.417136   2.167485   2.767673
    15  H    4.373060   3.254406   3.742796   3.274225   4.547669
    16  X    4.323608   3.439806   2.278406   1.932006   1.682084
    17  X    4.021516   2.949332   1.750265   0.973578   1.060328
    18  H    6.343581   5.757606   4.647917   4.463781   3.702262
    19  X    5.699826   5.202537   4.249877   4.259921   3.834938
    20  O    7.001845   6.520838   5.478274   5.381696   4.659462
    21  H    7.777215   7.251257   6.121602   5.911766   4.986306
                    6          7          8          9         10
     6  F    0.000000
     7  F    2.183809   0.000000
     8  F    2.183834   2.172670   0.000000
     9  C    2.702654   3.416807   3.416477   0.000000
    10  N    4.064221   4.546034   4.545756   1.361573   0.000000
    11  C    5.023019   5.004620   5.004549   2.462517   1.389157
    12  S    6.618222   6.622926   6.622828   3.966382   2.667332
    13  H    4.068482   2.867355   2.868068   3.397019   3.809445
    14  H    2.417382   3.734964   3.734451   1.083334   2.089251
    15  H    4.651369   5.391592   5.391203   2.062399   1.019792
    16  X    2.678115   2.660209   1.000000   3.001423   3.930130
    17  X    2.155544   2.141634   1.414214   2.146088   3.178423
    18  H    4.309891   4.294458   2.349707   5.467041   6.410187
    19  X    4.580210   4.560546   2.553649   5.217736   5.989368
    20  O    5.231127   5.215133   3.306907   6.361969   7.251004
    21  H    5.423478   5.411280   3.665938   6.904324   7.897128
                   11         12         13         14         15
    11  C    0.000000
    12  S    1.651971   0.000000
    13  H    3.454637   4.885889   0.000000
    14  H    3.396789   4.749842   4.338454   0.000000
    15  H    2.026007   2.720986   4.828927   2.353252   0.000000
    16  X    4.233419   5.804379   2.305159   3.534884   4.814467
    17  X    3.615914   5.251138   2.113148   2.737749   4.077753
    18  H    6.656228   8.130457   4.253240   5.793601   7.233870
    19  X    6.097679   7.478857   3.895894   5.667018   6.814903
    20  O    7.437515   8.850459   5.027306   6.687574   8.060473
    21  H    8.170123   9.638118   5.643215   7.137084   8.698711
                   16         17         18         19         20
    16  X    0.000000
    17  X    1.000000   0.000000
    18  H    2.553649   3.495789   0.000000
    19  X    2.349707   3.349707   1.000000   0.000000
    20  O    3.454799   4.421476   0.957200   1.384280   0.000000
    21  H    4.036379   4.938233   1.513901   2.268292   0.957200
                   21
    21  H    0.000000
 Symmetry turned off by external request.
 Stoichiometry    C6H5F4NOS
 Framework group  C1[X(C6H5F4NOS)]
 Deg. of freedom    48
 Full point group                 C1      NOp   1
 Rotational constants (GHZ):      1.0043233      0.3159434      0.2778526
 Standard basis: 6-31G(d) (6D, 7F)
 Integral buffers will be    131072 words long.
 Raffenetti 1 integral format.
 Two-electron integral symmetry is turned off.
   209 basis functions,   408 primitive gaussians,   209 cartesian basis functions
    54 alpha electrons       54 beta electrons
       nuclear repulsion energy       903.2828170598 Hartrees.
 NAtoms=   18 NActive=   18 NUniq=   18 SFac= 7.50D-01 NAtFMM=   80 NAOKFM=F Big=F
 One-electron integrals computed using PRISM.
 NBasis=   209 RedAO= T  NBF=   209
 NBsUse=   209 1.00D-06 NBFU=   209
 Initial guess read from the read-write file.
 B after Tr=     0.000000    0.000000    0.000000
         Rot=    1.000000    0.000000    0.000000    0.000000 Ang=   0.00 deg.
 Requested convergence on RMS density matrix=1.00D-08 within 128 cycles.
 Requested convergence on MAX density matrix=1.00D-06.
 Requested convergence on             energy=1.00D-06.
 No special actions if energy rises.
 SCF Done:  E(RHF) =  -1154.67458840     A.U. after    5 cycles
             Convg  =    0.3383D-08             -V/T =  2.0019
 Calling FoFJK, ICntrl=      2127 FMM=F ISym2X=0 I1Cent= 0 IOpClX= 0 NMat=1 NMatS=1 NMatT=0.
 -------------------------------------------------------------------
 Center     Atomic                   Forces (Hartrees/Bohr)
 Number     Number              X              Y              Z
 -------------------------------------------------------------------
      1        9           0.000000000    0.000000000    0.000000000
      2        6           0.000000000    0.000000000    0.000000000
      3        6           0.000000000    0.000000000    0.000000000
      4        6           0.000000000    0.000000000    0.000000000
      5        6           0.000000000    0.000000000    0.000000000
      6        9           0.000000000    0.000000000    0.000000000
      7        9           0.000000000    0.000000000    0.000000000
      8        9           0.000000000    0.000000000    0.000000000
      9        6           0.000000000    0.000000000    0.000000000
     10        7           0.000000000    0.000000000    0.000000000
     11        6           0.000000000    0.000000000    0.000000000
     12       16           0.000000000    0.000000000    0.000000000
     13        1           0.000000000    0.000000000    0.000000000
     14        1           0.000000000    0.000000000    0.000000000
     15        1           0.000000000    0.000000000    0.000000000
     16        1           0.002602155    0.005310123    0.008957219
     17        8           0.007912699   -0.005894927   -0.011081514
     18        1          -0.010462832    0.000497444    0.002070551
 -------------------------------------------------------------------
 Cartesian Forces:  Max     0.011081514 RMS     0.002884720
 -----------------------------------------------------------------------------------------------
                       Internal Coordinate Forces (Hartree/Bohr or radian)
  Cent   Atom   N1       Length/X         N2         Alpha/Y        N3         Beta/Z          J
 -----------------------------------------------------------------------------------------------
      1  F 
      2  C 
      3  C 
      4  C 
      5  C 
      6  F 
      7  F 
      8  F 
      9  C 
     10  N 
     11  C 
     12  S 
     13  H 
     14  H 
     15  H 
         X        8   0.000000(     1)      5   0.000095(     7)      4   0.000023(    13)     0
         X       16   0.000000(     2)      8   0.000000(     8)      5  -0.000071(    14)     0
     16  H        8  -0.000070(     3)     16   0.000095(     9)     17   0.000071(    15)     0
         X       18   0.000000(     4)      8  -0.000243(    10)     16   0.000000(    16)     0
     17  O       18  -0.010758(     5)     19  -0.000243(    11)      8  -0.000103(    17)     0
     18  H       20  -0.010612(     6)     18   0.002130(    12)     16   0.000023(    18)     0
 -----------------------------------------------------------------------------------------------
 Internal  Forces:  Max     0.010758183 RMS     0.003598269

 GradGradGradGradGradGradGradGradGradGradGradGradGradGradGradGradGradGrad
 Berny optimization.
 Search for a local minimum.
 Step number   2 out of a maximum of   20
 All quantities printed in internal units (Hartrees-Bohrs-Radians)
 Update second derivatives using D2CorN and points    2
 DE= -2.19D-07 DEPred=-1.15D-07 R= 1.91D+00
 Trust test= 1.91D+00 RLast= 3.01D-03 DXMaxT set to 3.00D-01
 The second derivative matrix:
                          RX       RDUM       ROH      ADUM      AHOH
           RX           0.02532
           RDUM         0.00000   0.00000
           ROH          0.00000   0.00000   1.12160
           ADUM         0.00000   0.00000   0.00000   2.14546
           AHOH         0.00000   0.00000   0.00000   0.00000   0.16000
           DDUM         0.00000   0.00000   0.00000   0.08002   0.00000
           DH1          0.00000   0.00000   0.00000  -0.08002   0.00000
           DOH2         0.00000   0.00000   0.00000  -0.12502   0.00000
           DH2          0.00000   0.00000   0.00000   0.00000   0.00000
                         DDUM       DH1      DOH2       DH2
           DDUM         0.18244
           DH1         -0.18244   0.18244
           DOH2         0.00000   0.00000   0.28507
           DH2          0.00000   0.00000   0.00000   0.00000
     Eigenvalues ---    0.025321000.000001000.000001000.000001000.00000
     Eigenvalues --- 1000.000001000.000001000.000001000.00000
 RFO step:  Lambda= 0.00000000D+00 EMin= 2.53198400D-02
 Quartic linear search produced a step of  2.00000.
 Variable       Old X    -DE/DX   Delta X   Delta X   Delta X     New X
                                 (Linear)    (Quad)   (Total)
    RX        4.44030  -0.00007  -0.00602   0.00000  -0.00602   4.43428
   RDUM       1.88973   0.00000   0.00000   0.00000   0.00000   1.88973
   ROH        1.80885  -0.02137   0.00000   0.00000   0.00000   1.80885
   ADUM       1.57080  -0.00030   0.00000   0.00000   0.00000   1.57080
   AHOH       1.82422   0.00213   0.00000   0.00000   0.00000   1.82422
   DDUM       0.00000  -0.00005   0.00000   0.00000   0.00000   0.00000
   DH1        3.14159   0.00007   0.00000   0.00000   0.00000   3.14159
   DOH2       3.14159  -0.00010   0.00000   0.00000   0.00000   3.14159
   DH2        3.14159   0.00002   0.00000   0.00000   0.00000   3.14159
         Item               Value     Threshold  Converged?
 Maximum Force            0.000070     0.000450     YES
 RMS     Force            0.000070     0.000300     YES
 Maximum Displacement     0.006020     0.001800     NO 
 RMS     Displacement     0.002007     0.001200     NO 
 Predicted change in Energy=-4.019483D-08
 GradGradGradGradGradGradGradGradGradGradGradGradGradGradGradGradGradGrad

 ---------------------------------------------------------------------------------------------------
                            Z-MATRIX (ANGSTROMS AND DEGREES)
   CD    Cent   Atom    N1       Length/X        N2       Alpha/Y        N3        Beta/Z          J
 ---------------------------------------------------------------------------------------------------
      1      1  F       -1  -1.969300          2.053680          0.000070
      2      2  C       -1  -1.222250          0.944230          0.000030
      3      3  C       -1   0.140030          1.057400         -0.000020
      4      4  C       -1   0.927950         -0.123640         -0.000080
      5      5  C       -1   2.414660         -0.018650         -0.000010
      6      6  F       -1   3.007080         -1.234610         -0.000560
      7      7  F       -1   2.858290          0.654480         -1.086020
      8      8  F       -1   2.858270          0.653500          1.086650
      9      9  C       -1   0.306540         -1.341490         -0.000090
     10     10  N       -1  -1.054170         -1.389970         -0.000060
     11     11  C       -1  -1.930500         -0.312100          0.000000
     12     12  S       -1  -3.570980         -0.506610          0.000030
     13     13  H       -1   0.596860          2.043100         -0.000020
     14     14  H       -1   0.831760         -2.288990         -0.000150
     15     15  H       -1  -1.521480         -2.296390         -0.000090
     16         X        8   1.000000(    15)      5   90.000(    34)      4    0.000(    52)      0
     17         X       16   1.000000(    16)      8   90.000(    35)      5    0.000(    53)      0
     18     16  H        8   2.346522(    17)     16   90.000(    36)     17  180.000(    54)      0
     19         X       18   1.000000(    18)      8   90.000(    37)     16    0.000(    55)      0
     20     17  O       18   0.957200(    19)     19   90.000(    38)      8  180.000(    56)      0
     21     18  H       20   0.957200(    20)     18  104.520(    39)     16  180.000(    57)      0
 ---------------------------------------------------------------------------------------------------
                         Z-Matrix orientation:                         
 ---------------------------------------------------------------------
 Center     Atomic      Atomic             Coordinates (Angstroms)
 Number     Number       Type             X           Y           Z
 ---------------------------------------------------------------------
      1          9           0       -1.969300    2.053680    0.000070
      2          6           0       -1.222250    0.944230    0.000030
      3          6           0        0.140030    1.057400   -0.000020
      4          6           0        0.927950   -0.123640   -0.000080
      5          6           0        2.414660   -0.018650   -0.000010
      6          9           0        3.007080   -1.234610   -0.000560
      7          9           0        2.858290    0.654480   -1.086020
      8          9           0        2.858270    0.653500    1.086650
      9          6           0        0.306540   -1.341490   -0.000090
     10          7           0       -1.054170   -1.389970   -0.000060
     11          6           0       -1.930500   -0.312100    0.000000
     12         16           0       -3.570980   -0.506610    0.000030
     13          1           0        0.596860    2.043100   -0.000020
     14          1           0        0.831760   -2.288990   -0.000150
     15          1           0       -1.521480   -2.296390   -0.000090
     16         -1           0        1.915537    0.771037    1.398802
     17         -1           0        1.587558    0.274088    0.595390
     18          1           0        3.627880    1.819600    2.971876
     19         -1           0        2.685147    1.937137    3.284028
     20          8           0        3.941822    2.295279    3.740902
     21          1           0        4.894095    2.305628    3.644462
 ---------------------------------------------------------------------
                    Distance matrix (angstroms):
                    1          2          3          4          5
     1  F    0.000000
     2  C    1.337521   0.000000
     3  C    2.332777   1.366973   0.000000
     4  C    3.624194   2.400772   1.419744   0.000000
     5  C    4.849088   3.762214   2.516312   1.490413   0.000000
     6  F    5.964663   4.757581   3.670597   2.357337   1.352598
     7  F    5.142274   4.232525   2.954772   2.347541   1.352527
     8  F    5.142625   4.232719   2.955134   2.347566   1.352555
     9  C    4.087374   2.749857   2.404662   1.367227   2.488790
    10  N    3.563171   2.340244   2.723184   2.352104   3.730054
    11  C    2.366098   1.442215   2.482463   2.864656   4.355058
    12  S    3.020011   2.760701   4.027123   4.515201   6.005497
    13  H    2.566182   2.125247   1.086415   2.191890   2.748674
    14  H    5.167661   3.830492   3.417136   2.167485   2.767673
    15  H    4.373060   3.254406   3.742796   3.274225   4.547669
    16  X    4.323608   3.439806   2.278406   1.932006   1.682084
    17  X    4.021516   2.949332   1.750265   0.973578   1.060328
    18  H    6.341518   5.755163   4.645235   4.460754   3.699077
    19  X    5.697529   5.199833   4.246944   4.256749   3.831863
    20  O    6.999540   6.518213   5.475442   5.378619   4.656277
    21  H    7.775041   7.248791   6.118943   5.908835   4.983176
                    6          7          8          9         10
     6  F    0.000000
     7  F    2.183809   0.000000
     8  F    2.183834   2.172670   0.000000
     9  C    2.702654   3.416807   3.416477   0.000000
    10  N    4.064221   4.546034   4.545756   1.361573   0.000000
    11  C    5.023019   5.004620   5.004549   2.462517   1.389157
    12  S    6.618222   6.622926   6.622828   3.966382   2.667332
    13  H    4.068482   2.867355   2.868068   3.397019   3.809445
    14  H    2.417382   3.734964   3.734451   1.083334   2.089251
    15  H    4.651369   5.391592   5.391203   2.062399   1.019792
    16  X    2.678115   2.660209   1.000000   3.001423   3.930130
    17  X    2.155544   2.141634   1.414214   2.146088   3.178423
    18  H    4.306851   4.291421   2.346522   5.464098   6.407444
    19  X    4.577350   4.557687   2.550719   5.214652   5.986432
    20  O    5.228040   5.212048   3.303722   6.358961   7.248158
    21  H    5.420359   5.408165   3.662856   6.901441   7.894418
                   11         12         13         14         15
    11  C    0.000000
    12  S    1.651971   0.000000
    13  H    3.454637   4.885889   0.000000
    14  H    3.396789   4.749842   4.338454   0.000000
    15  H    2.026007   2.720986   4.828927   2.353252   0.000000
    16  X    4.233419   5.804379   2.305159   3.534884   4.814467
    17  X    3.615914   5.251138   2.113148   2.737749   4.077753
    18  H    6.653704   8.128143   4.250788   5.790660   7.231173
    19  X    6.094925   7.476341   3.893218   5.664011   6.812040
    20  O    7.434846   8.847989   5.024626   6.684570   8.057674
    21  H    8.167601   9.635770   5.640691   7.134163   8.696030
                   16         17         18         19         20
    16  X    0.000000
    17  X    1.000000   0.000000
    18  H    2.550719   3.492737   0.000000
    19  X    2.346522   3.346522   1.000000   0.000000
    20  O    3.451750   4.418373   0.957200   1.384280   0.000000
    21  H    4.033580   4.935300   1.513901   2.268292   0.957200
                   21
    21  H    0.000000
 Symmetry turned off by external request.
 Stoichiometry    C6H5F4NOS
 Framework group  C1[X(C6H5F4NOS)]
 Deg. of freedom    48
 Full point group                 C1      NOp   1
 Rotational constants (GHZ):      1.0048759      0.3160087      0.2779325
 Standard basis: 6-31G(d) (6D, 7F)
 Integral buffers will be    131072 words long.
 Raffenetti 1 integral format.
 Two-electron integral symmetry is turned off.
   209 basis functions,   408 primitive gaussians,   209 cartesian basis functions
    54 alpha electrons       54 beta electrons
       nuclear repulsion energy       903.3342014834 Hartrees.
 NAtoms=   18 NActive=   18 NUniq=   18 SFac= 7.50D-01 NAtFMM=   80 NAOKFM=F Big=F
 One-electron integrals computed using PRISM.
 NBasis=   209 RedAO= T  NBF=   209
 NBsUse=   209 1.00D-06 NBFU=   209
 Initial guess read from the read-write file.
 B after Tr=     0.000000    0.000000    0.000000
         Rot=    1.000000    0.000000    0.000000    0.000000 Ang=   0.00 deg.
 Requested convergence on RMS density matrix=1.00D-08 within 128 cycles.
 Requested convergence on MAX density matrix=1.00D-06.
 Requested convergence on             energy=1.00D-06.
 No special actions if energy rises.
 SCF Done:  E(RHF) =  -1154.67458878     A.U. after    5 cycles
             Convg  =    0.7069D-08             -V/T =  2.0019
 Calling FoFJK, ICntrl=      2127 FMM=F ISym2X=0 I1Cent= 0 IOpClX= 0 NMat=1 NMatS=1 NMatT=0.
 -------------------------------------------------------------------
 Center     Atomic                   Forces (Hartrees/Bohr)
 Number     Number              X              Y              Z
 -------------------------------------------------------------------
      1        9           0.000000000    0.000000000    0.000000000
      2        6           0.000000000    0.000000000    0.000000000
      3        6           0.000000000    0.000000000    0.000000000
      4        6           0.000000000    0.000000000    0.000000000
      5        6           0.000000000    0.000000000    0.000000000
      6        9           0.000000000    0.000000000    0.000000000
      7        9           0.000000000    0.000000000    0.000000000
      8        9           0.000000000    0.000000000    0.000000000
      9        6           0.000000000    0.000000000    0.000000000
     10        7           0.000000000    0.000000000    0.000000000
     11        6           0.000000000    0.000000000    0.000000000
     12       16           0.000000000    0.000000000    0.000000000
     13        1           0.000000000    0.000000000    0.000000000
     14        1           0.000000000    0.000000000    0.000000000
     15        1           0.000000000    0.000000000    0.000000000
     16        1           0.002606298    0.005316766    0.008968830
     17        8           0.007913797   -0.005895459   -0.011083158
     18        1          -0.010463595    0.000497936    0.002071480
 -------------------------------------------------------------------
 Cartesian Forces:  Max     0.011083158 RMS     0.002885941
 -----------------------------------------------------------------------------------------------
                       Internal Coordinate Forces (Hartree/Bohr or radian)
  Cent   Atom   N1       Length/X         N2         Alpha/Y        N3         Beta/Z          J
 -----------------------------------------------------------------------------------------------
      1  F 
      2  C 
      3  C 
      4  C 
      5  C 
      6  F 
      7  F 
      8  F 
      9  C 
     10  N 
     11  C 
     12  S 
     13  H 
     14  H 
     15  H 
         X        8   0.000000(     1)      5   0.000094(     7)      4   0.000023(    13)     0
         X       16   0.000000(     2)      8   0.000000(     8)      5  -0.000070(    14)     0
     16  H        8  -0.000056(     3)     16   0.000094(     9)     17   0.000070(    15)     0
         X       18   0.000000(     4)      8  -0.000244(    10)     16   0.000000(    16)     0
     17  O       18  -0.010759(     5)     19  -0.000244(    11)      8  -0.000104(    17)     0
     18  H       20  -0.010613(     6)     18   0.002132(    12)     16   0.000023(    18)     0
 -----------------------------------------------------------------------------------------------
 Internal  Forces:  Max     0.010758667 RMS     0.003598537

 GradGradGradGradGradGradGradGradGradGradGradGradGradGradGradGradGradGrad
 Berny optimization.
 Search for a local minimum.
 Step number   3 out of a maximum of   20
 All quantities printed in internal units (Hartrees-Bohrs-Radians)
 Update second derivatives using D2CorN and points    2    3
 DE= -3.78D-07 DEPred=-4.02D-08 R= 9.40D+00
 Trust test= 9.40D+00 RLast= 6.02D-03 DXMaxT set to 3.00D-01
 The second derivative matrix:
                          RX       RDUM       ROH      ADUM      AHOH
           RX           0.00224
           RDUM         0.00000   0.00000
           ROH         -0.00011   0.00000   1.12160
           ADUM        -0.00031   0.00000   0.00000   2.14546
           AHOH         0.00015   0.00000   0.00000   0.00000   0.16000
           DDUM         0.00003   0.00000   0.00000   0.08002   0.00000
           DH1         -0.00003   0.00000   0.00000  -0.08002   0.00000
           DOH2        -0.00005   0.00000   0.00000  -0.12502   0.00000
           DH2          0.00000   0.00000   0.00000   0.00000   0.00000
                         DDUM       DH1      DOH2       DH2
           DDUM         0.18244
           DH1         -0.18244   0.18244
           DOH2         0.00000   0.00000   0.28507
           DH2          0.00000   0.00000   0.00000   0.00000
     Eigenvalues ---    0.002241000.000001000.000001000.000001000.00000
     Eigenvalues --- 1000.000001000.000001000.000001000.00000
 RFO step:  Lambda= 0.00000000D+00 EMin= 2.24334444D-03
 Quartic linear search produced a step of  2.00000.
 Variable       Old X    -DE/DX   Delta X   Delta X   Delta X     New X
                                 (Linear)    (Quad)   (Total)
    RX        4.43428  -0.00006  -0.01204   0.00000  -0.01204   4.42224
   RDUM       1.88973   0.00000   0.00000   0.00000   0.00000   1.88973
   ROH        1.80885  -0.02137   0.00000   0.00000   0.00000   1.80885
   ADUM       1.57080  -0.00030   0.00000   0.00000   0.00000   1.57080
   AHOH       1.82422   0.00213   0.00000   0.00000   0.00000   1.82422
   DDUM       0.00000  -0.00005   0.00000   0.00000   0.00000   0.00000
   DH1        3.14159   0.00007   0.00000   0.00000   0.00000   3.14159
   DOH2       3.14159  -0.00010   0.00000   0.00000   0.00000   3.14159
   DH2        3.14159   0.00002   0.00000   0.00000   0.00000   3.14159
         Item               Value     Threshold  Converged?
 Maximum Force            0.000056     0.000450     YES
 RMS     Force            0.000056     0.000300     YES
 Maximum Displacement     0.012039     0.001800     NO 
 RMS     Displacement     0.004013     0.001200     NO 
 Predicted change in Energy=-5.119224D-07
 GradGradGradGradGradGradGradGradGradGradGradGradGradGradGradGradGradGrad

 ---------------------------------------------------------------------------------------------------
                            Z-MATRIX (ANGSTROMS AND DEGREES)
   CD    Cent   Atom    N1       Length/X        N2       Alpha/Y        N3        Beta/Z          J
 ---------------------------------------------------------------------------------------------------
      1      1  F       -1  -1.969300          2.053680          0.000070
      2      2  C       -1  -1.222250          0.944230          0.000030
      3      3  C       -1   0.140030          1.057400         -0.000020
      4      4  C       -1   0.927950         -0.123640         -0.000080
      5      5  C       -1   2.414660         -0.018650         -0.000010
      6      6  F       -1   3.007080         -1.234610         -0.000560
      7      7  F       -1   2.858290          0.654480         -1.086020
      8      8  F       -1   2.858270          0.653500          1.086650
      9      9  C       -1   0.306540         -1.341490         -0.000090
     10     10  N       -1  -1.054170         -1.389970         -0.000060
     11     11  C       -1  -1.930500         -0.312100          0.000000
     12     12  S       -1  -3.570980         -0.506610          0.000030
     13     13  H       -1   0.596860          2.043100         -0.000020
     14     14  H       -1   0.831760         -2.288990         -0.000150
     15     15  H       -1  -1.521480         -2.296390         -0.000090
     16         X        8   1.000000(    15)      5   90.000(    34)      4    0.000(    52)      0
     17         X       16   1.000000(    16)      8   90.000(    35)      5    0.000(    53)      0
     18     16  H        8   2.340151(    17)     16   90.000(    36)     17  180.000(    54)      0
     19         X       18   1.000000(    18)      8   90.000(    37)     16    0.000(    55)      0
     20     17  O       18   0.957200(    19)     19   90.000(    38)      8  180.000(    56)      0
     21     18  H       20   0.957200(    20)     18  104.520(    39)     16  180.000(    57)      0
 ---------------------------------------------------------------------------------------------------
                         Z-Matrix orientation:                         
 ---------------------------------------------------------------------
 Center     Atomic      Atomic             Coordinates (Angstroms)
 Number     Number       Type             X           Y           Z
 ---------------------------------------------------------------------
      1          9           0       -1.969300    2.053680    0.000070
      2          6           0       -1.222250    0.944230    0.000030
      3          6           0        0.140030    1.057400   -0.000020
      4          6           0        0.927950   -0.123640   -0.000080
      5          6           0        2.414660   -0.018650   -0.000010
      6          9           0        3.007080   -1.234610   -0.000560
      7          9           0        2.858290    0.654480   -1.086020
      8          9           0        2.858270    0.653500    1.086650
      9          6           0        0.306540   -1.341490   -0.000090
     10          7           0       -1.054170   -1.389970   -0.000060
     11          6           0       -1.930500   -0.312100    0.000000
     12         16           0       -3.570980   -0.506610    0.000030
     13          1           0        0.596860    2.043100   -0.000020
     14          1           0        0.831760   -2.288990   -0.000150
     15          1           0       -1.521480   -2.296390   -0.000090
     16         -1           0        1.915537    0.771037    1.398802
     17         -1           0        1.587558    0.274088    0.595390
     18          1           0        3.625791    1.816434    2.966757
     19         -1           0        2.683058    1.933971    3.278910
     20          8           0        3.939733    2.292113    3.735784
     21          1           0        4.892006    2.302462    3.639344
 ---------------------------------------------------------------------
                    Distance matrix (angstroms):
                    1          2          3          4          5
     1  F    0.000000
     2  C    1.337521   0.000000
     3  C    2.332777   1.366973   0.000000
     4  C    3.624194   2.400772   1.419744   0.000000
     5  C    4.849088   3.762214   2.516312   1.490413   0.000000
     6  F    5.964663   4.757581   3.670597   2.357337   1.352598
     7  F    5.142274   4.232525   2.954772   2.347541   1.352527
     8  F    5.142625   4.232719   2.955134   2.347566   1.352555
     9  C    4.087374   2.749857   2.404662   1.367227   2.488790
    10  N    3.563171   2.340244   2.723184   2.352104   3.730054
    11  C    2.366098   1.442215   2.482463   2.864656   4.355058
    12  S    3.020011   2.760701   4.027123   4.515201   6.005497
    13  H    2.566182   2.125247   1.086415   2.191890   2.748674
    14  H    5.167661   3.830492   3.417136   2.167485   2.767673
    15  H    4.373060   3.254406   3.742796   3.274225   4.547669
    16  X    4.323608   3.439806   2.278406   1.932006   1.682084
    17  X    4.021516   2.949332   1.750265   0.973578   1.060328
    18  H    6.337394   5.750279   4.639874   4.454700   3.692706
    19  X    5.692939   5.194427   4.241078   4.250404   3.825713
    20  O    6.994932   6.512965   5.469779   5.372465   4.649906
    21  H    7.770696   7.243861   6.113626   5.902975   4.976916
                    6          7          8          9         10
     6  F    0.000000
     7  F    2.183809   0.000000
     8  F    2.183834   2.172670   0.000000
     9  C    2.702654   3.416807   3.416477   0.000000
    10  N    4.064221   4.546034   4.545756   1.361573   0.000000
    11  C    5.023019   5.004620   5.004549   2.462517   1.389157
    12  S    6.618222   6.622926   6.622828   3.966382   2.667332
    13  H    4.068482   2.867355   2.868068   3.397019   3.809445
    14  H    2.417382   3.734964   3.734451   1.083334   2.089251
    15  H    4.651369   5.391592   5.391203   2.062399   1.019792
    16  X    2.678115   2.660209   1.000000   3.001423   3.930130
    17  X    2.155544   2.141634   1.414214   2.146088   3.178423
    18  H    4.300773   4.285347   2.340151   5.458213   6.401958
    19  X    4.571632   4.551968   2.544859   5.208485   5.980560
    20  O    5.221866   5.205877   3.297351   6.352945   7.242467
    21  H    5.414122   5.401935   3.656693   6.895677   7.889000
                   11         12         13         14         15
    11  C    0.000000
    12  S    1.651971   0.000000
    13  H    3.454637   4.885889   0.000000
    14  H    3.396789   4.749842   4.338454   0.000000
    15  H    2.026007   2.720986   4.828927   2.353252   0.000000
    16  X    4.233419   5.804379   2.305159   3.534884   4.814467
    17  X    3.615914   5.251138   2.113148   2.737749   4.077753
    18  H    6.648660   8.123516   4.245888   5.784778   7.225780
    19  X    6.089417   7.471310   3.887867   5.657997   6.806315
    20  O    7.429511   8.843049   5.019266   6.678563   8.052078
    21  H    8.162557   9.631075   5.635647   7.128319   8.690668
                   16         17         18         19         20
    16  X    0.000000
    17  X    1.000000   0.000000
    18  H    2.544859   3.486633   0.000000
    19  X    2.340151   3.340151   1.000000   0.000000
    20  O    3.445653   4.412168   0.957200   1.384280   0.000000
    21  H    4.027984   4.929435   1.513901   2.268292   0.957200
                   21
    21  H    0.000000
 Symmetry turned off by external request.
 Stoichiometry    C6H5F4NOS
 Framework group  C1[X(C6H5F4NOS)]
 Deg. of freedom    48
 Full point group                 C1      NOp   1
 Rotational constants (GHZ):      1.0059825      0.3161395      0.2780922
 Standard basis: 6-31G(d) (6D, 7F)
 Integral buffers will be    131072 words long.
 Raffenetti 1 integral format.
 Two-electron integral symmetry is turned off.
   209 basis functions,   408 primitive gaussians,   209 cartesian basis functions
    54 alpha electrons       54 beta electrons
       nuclear repulsion energy       903.4371663292 Hartrees.
 NAtoms=   18 NActive=   18 NUniq=   18 SFac= 7.50D-01 NAtFMM=   80 NAOKFM=F Big=F
 One-electron integrals computed using PRISM.
 NBasis=   209 RedAO= T  NBF=   209
 NBsUse=   209 1.00D-06 NBFU=   209
 Initial guess read from the read-write file.
 B after Tr=     0.000000    0.000000    0.000000
         Rot=    1.000000    0.000000    0.000000    0.000000 Ang=   0.00 deg.
 Requested convergence on RMS density matrix=1.00D-08 within 128 cycles.
 Requested convergence on MAX density matrix=1.00D-06.
 Requested convergence on             energy=1.00D-06.
 No special actions if energy rises.
 SCF Done:  E(RHF) =  -1154.67458929     A.U. after    6 cycles
             Convg  =    0.4527D-08             -V/T =  2.0019
 Calling FoFJK, ICntrl=      2127 FMM=F ISym2X=0 I1Cent= 0 IOpClX= 0 NMat=1 NMatS=1 NMatT=0.
 -------------------------------------------------------------------
 Center     Atomic                   Forces (Hartrees/Bohr)
 Number     Number              X              Y              Z
 -------------------------------------------------------------------
      1        9           0.000000000    0.000000000    0.000000000
      2        6           0.000000000    0.000000000    0.000000000
      3        6           0.000000000    0.000000000    0.000000000
      4        6           0.000000000    0.000000000    0.000000000
      5        6           0.000000000    0.000000000    0.000000000
      6        9           0.000000000    0.000000000    0.000000000
      7        9           0.000000000    0.000000000    0.000000000
      8        9           0.000000000    0.000000000    0.000000000
      9        6           0.000000000    0.000000000    0.000000000
     10        7           0.000000000    0.000000000    0.000000000
     11        6           0.000000000    0.000000000    0.000000000
     12       16           0.000000000    0.000000000    0.000000000
     13        1           0.000000000    0.000000000    0.000000000
     14        1           0.000000000    0.000000000    0.000000000
     15        1           0.000000000    0.000000000    0.000000000
     16        1           0.002614737    0.005330375    0.008992590
     17        8           0.007916040   -0.005896570   -0.011086530
     18        1          -0.010465117    0.000498940    0.002073372
 -------------------------------------------------------------------
 Cartesian Forces:  Max     0.011086530 RMS     0.002888442
 -----------------------------------------------------------------------------------------------
                       Internal Coordinate Forces (Hartree/Bohr or radian)
  Cent   Atom   N1       Length/X         N2         Alpha/Y        N3         Beta/Z          J
 -----------------------------------------------------------------------------------------------
      1  F 
      2  C 
      3  C 
      4  C 
      5  C 
      6  F 
      7  F 
      8  F 
      9  C 
     10  N 
     11  C 
     12  S 
     13  H 
     14  H 
     15  H 
         X        8   0.000000(     1)      5   0.000092(     7)      4   0.000023(    13)     0
         X       16   0.000000(     2)      8   0.000000(     8)      5  -0.000070(    14)     0
     16  H        8  -0.000028(     3)     16   0.000092(     9)     17   0.000070(    15)     0
         X       18   0.000000(     4)      8  -0.000245(    10)     16   0.000000(    16)     0
     17  O       18  -0.010760(     5)     19  -0.000245(    11)      8  -0.000105(    17)     0
     18  H       20  -0.010615(     6)     18   0.002135(    12)     16   0.000023(    18)     0
 -----------------------------------------------------------------------------------------------
 Internal  Forces:  Max     0.010759673 RMS     0.003599090

 GradGradGradGradGradGradGradGradGradGradGradGradGradGradGradGradGradGrad
 Berny optimization.
 Search for a local minimum.
 Step number   4 out of a maximum of   20
 All quantities printed in internal units (Hartrees-Bohrs-Radians)
 Update second derivatives using D2CorN and points    3    4
 DE= -5.09D-07 DEPred=-5.12D-07 R= 9.95D-01
 Trust test= 9.95D-01 RLast= 1.20D-02 DXMaxT set to 3.00D-01
 The second derivative matrix:
                          RX       RDUM       ROH      ADUM      AHOH
           RX           0.00229
           RDUM         0.00000   0.00000
           ROH         -0.00017   0.00000   1.12160
           ADUM        -0.00045   0.00000   0.00000   2.14546
           AHOH         0.00022   0.00000   0.00000   0.00000   0.16000
           DDUM         0.00004   0.00000   0.00000   0.08002   0.00000
           DH1         -0.00004   0.00000   0.00000  -0.08002   0.00000
           DOH2        -0.00008   0.00000   0.00000  -0.12502   0.00000
           DH2          0.00000   0.00000   0.00000   0.00000   0.00000
                         DDUM       DH1      DOH2       DH2
           DDUM         0.18244
           DH1         -0.18244   0.18244
           DOH2         0.00000   0.00000   0.28507
           DH2          0.00000   0.00000   0.00000   0.00000
     Eigenvalues ---    0.002291000.000001000.000001000.000001000.00000
     Eigenvalues --- 1000.000001000.000001000.000001000.00000
 RFO step:  Lambda= 0.00000000D+00 EMin= 2.29370255D-03
 Quartic linear search produced a step of  0.99809.
 Variable       Old X    -DE/DX   Delta X   Delta X   Delta X     New X
                                 (Linear)    (Quad)   (Total)
    RX        4.42224  -0.00003  -0.01202   0.00000  -0.01202   4.41023
   RDUM       1.88973   0.00000   0.00000   0.00000   0.00000   1.88973
   ROH        1.80885  -0.02137   0.00000   0.00000   0.00000   1.80885
   ADUM       1.57080  -0.00031   0.00000   0.00000   0.00000   1.57080
   AHOH       1.82422   0.00214   0.00000   0.00000   0.00000   1.82422
   DDUM       0.00000  -0.00005   0.00000   0.00000   0.00000   0.00000
   DH1        3.14159   0.00007   0.00000   0.00000   0.00000   3.14159
   DOH2       3.14159  -0.00010   0.00000   0.00000   0.00000   3.14159
   DH2        3.14159   0.00002   0.00000   0.00000   0.00000   3.14159
         Item               Value     Threshold  Converged?
 Maximum Force            0.000028     0.000450     YES
 RMS     Force            0.000028     0.000300     YES
 Maximum Displacement     0.012016     0.001800     NO 
 RMS     Displacement     0.004005     0.001200     NO 
 Predicted change in Energy=-1.758059D-07
 GradGradGradGradGradGradGradGradGradGradGradGradGradGradGradGradGradGrad

 ---------------------------------------------------------------------------------------------------
                            Z-MATRIX (ANGSTROMS AND DEGREES)
   CD    Cent   Atom    N1       Length/X        N2       Alpha/Y        N3        Beta/Z          J
 ---------------------------------------------------------------------------------------------------
      1      1  F       -1  -1.969300          2.053680          0.000070
      2      2  C       -1  -1.222250          0.944230          0.000030
      3      3  C       -1   0.140030          1.057400         -0.000020
      4      4  C       -1   0.927950         -0.123640         -0.000080
      5      5  C       -1   2.414660         -0.018650         -0.000010
      6      6  F       -1   3.007080         -1.234610         -0.000560
      7      7  F       -1   2.858290          0.654480         -1.086020
      8      8  F       -1   2.858270          0.653500          1.086650
      9      9  C       -1   0.306540         -1.341490         -0.000090
     10     10  N       -1  -1.054170         -1.389970         -0.000060
     11     11  C       -1  -1.930500         -0.312100          0.000000
     12     12  S       -1  -3.570980         -0.506610          0.000030
     13     13  H       -1   0.596860          2.043100         -0.000020
     14     14  H       -1   0.831760         -2.288990         -0.000150
     15     15  H       -1  -1.521480         -2.296390         -0.000090
     16         X        8   1.000000(    15)      5   90.000(    34)      4    0.000(    52)      0
     17         X       16   1.000000(    16)      8   90.000(    35)      5    0.000(    53)      0
     18     16  H        8   2.333792(    17)     16   90.000(    36)     17  180.000(    54)      0
     19         X       18   1.000000(    18)      8   90.000(    37)     16    0.000(    55)      0
     20     17  O       18   0.957200(    19)     19   90.000(    38)      8  180.000(    56)      0
     21     18  H       20   0.957200(    20)     18  104.520(    39)     16  180.000(    57)      0
 ---------------------------------------------------------------------------------------------------
                         Z-Matrix orientation:                         
 ---------------------------------------------------------------------
 Center     Atomic      Atomic             Coordinates (Angstroms)
 Number     Number       Type             X           Y           Z
 ---------------------------------------------------------------------
      1          9           0       -1.969300    2.053680    0.000070
      2          6           0       -1.222250    0.944230    0.000030
      3          6           0        0.140030    1.057400   -0.000020
      4          6           0        0.927950   -0.123640   -0.000080
      5          6           0        2.414660   -0.018650   -0.000010
      6          9           0        3.007080   -1.234610   -0.000560
[...]
     5  C    4.849088   3.762214   2.516312   1.490413   0.000000
     6  F    5.964663   4.757581   3.670597   2.357337   1.352598
     7  F    5.142274   4.232525   2.954772   2.347541   1.352527
     8  F    5.142625   4.232719   2.955134   2.347566   1.352555
     9  C    4.087374   2.749857   2.404662   1.367227   2.488790
    10  N    3.563171   2.340244   2.723184   2.352104   3.730054
    11  C    2.366098   1.442215   2.482463   2.864656   4.355058
    12  S    3.020011   2.760701   4.027123   4.515201   6.005497
    13  H    2.566182   2.125247   1.086415   2.191890   2.748674
    14  H    5.167661   3.830492   3.417136   2.167485   2.767673
    15  H    4.373060   3.254406   3.742796   3.274225   4.547669
    16  X    4.323608   3.439806   2.278406   1.932006   1.682084
    17  X    4.021516   2.949332   1.750265   0.973578   1.060328
    18  H    6.333281   5.745407   4.634525   4.448659   3.686348
    19  X    5.688360   5.189033   4.235226   4.244073   3.819576
    20  O    6.990336   6.507729   5.464129   5.366322   4.643548
    21  H    7.766363   7.238943   6.108321   5.897126   4.970669
                    6          7          8          9         10
     6  F    0.000000
     7  F    2.183809   0.000000
     8  F    2.183834   2.172670   0.000000
     9  C    2.702654   3.416807   3.416477   0.000000
    10  N    4.064221   4.546034   4.545756   1.361573   0.000000
    11  C    5.023019   5.004620   5.004549   2.462517   1.389157
    12  S    6.618222   6.622926   6.622828   3.966382   2.667332
    13  H    4.068482   2.867355   2.868068   3.397019   3.809445
    14  H    2.417382   3.734964   3.734451   1.083334   2.089251
    15  H    4.651369   5.391592   5.391203   2.062399   1.019792
    16  X    2.678115   2.660209   1.000000   3.001423   3.930130
    17  X    2.155544   2.141634   1.414214   2.146088   3.178423
    18  H    4.294707   4.279286   2.333792   5.452341   6.396484
    19  X    4.565926   4.546262   2.539013   5.202331   5.974700
    20  O    5.215704   5.199718   3.290992   6.346941   7.236788
    21  H    5.407897   5.395717   3.650542   6.889924   7.883593
                   11         12         13         14         15
    11  C    0.000000
    12  S    1.651971   0.000000
    13  H    3.454637   4.885889   0.000000
    14  H    3.396789   4.749842   4.338454   0.000000
    15  H    2.026007   2.720986   4.828927   2.353252   0.000000
    16  X    4.233419   5.804379   2.305159   3.534884   4.814467
    17  X    3.615914   5.251138   2.113148   2.737749   4.077753
    18  H    6.643627   8.118901   4.241002   5.778908   7.220399
    19  X    6.083921   7.466291   3.882530   5.651996   6.800603
    20  O    7.424188   8.838120   5.013920   6.672567   8.046493
    21  H    8.157525   9.626392   5.630614   7.122488   8.685318
                   16         17         18         19         20
    16  X    0.000000
    17  X    1.000000   0.000000
    18  H    2.539013   3.480542   0.000000
    19  X    2.333792   3.333792   1.000000   0.000000
    20  O    3.439568   4.405975   0.957200   1.384280   0.000000
    21  H    4.022401   4.923583   1.513901   2.268292   0.957200
                   21
    21  H    0.000000
 Symmetry turned off by external request.
 Stoichiometry    C6H5F4NOS
 Framework group  C1[X(C6H5F4NOS)]
 Deg. of freedom    48
 Full point group                 C1      NOp   1
 Rotational constants (GHZ):      1.0070890      0.3162699      0.2782516

 **********************************************************************

            Population analysis using the SCF density.

 **********************************************************************

 Alpha  occ. eigenvalues --  -91.90606 -26.37528 -26.37361 -26.36578 -26.33523
 Alpha  occ. eigenvalues --  -20.55671 -15.68888 -11.55003 -11.37969 -11.37333
 Alpha  occ. eigenvalues --  -11.36416 -11.31390 -11.30624  -8.91693  -6.60021
 Alpha  occ. eigenvalues --   -6.59745  -6.59618  -1.75007  -1.66013  -1.65355
 Alpha  occ. eigenvalues --   -1.64769  -1.35724  -1.33869  -1.17421  -1.12237
 Alpha  occ. eigenvalues --   -1.03442  -0.97596  -0.92968  -0.88494  -0.85329
 Alpha  occ. eigenvalues --   -0.84570  -0.84286  -0.77316  -0.76172  -0.74100
 Alpha  occ. eigenvalues --   -0.73226  -0.72363  -0.71398  -0.70486  -0.70393
 Alpha  occ. eigenvalues --   -0.68496  -0.68262  -0.67049  -0.64310  -0.62699
 Alpha  occ. eigenvalues --   -0.61061  -0.59721  -0.56792  -0.52712  -0.49488
 Alpha  occ. eigenvalues --   -0.46811  -0.43409  -0.34227  -0.31129
 Alpha virt. eigenvalues --    0.04330   0.08474   0.17503   0.21634   0.24366
 Alpha virt. eigenvalues --    0.25014   0.26273   0.26336   0.29266   0.31443
 Alpha virt. eigenvalues --    0.33731   0.35201   0.39019   0.40910   0.42306
 Alpha virt. eigenvalues --    0.43793   0.46503   0.49299   0.53932   0.55323
 Alpha virt. eigenvalues --    0.56595   0.59559   0.61057   0.64180   0.66391
 Alpha virt. eigenvalues --    0.67331   0.71686   0.72838   0.73268   0.75179
 Alpha virt. eigenvalues --    0.76988   0.77709   0.82748   0.84299   0.87338
 Alpha virt. eigenvalues --    0.88830   0.89618   0.91971   0.95505   0.99617
 Alpha virt. eigenvalues --    1.01971   1.02467   1.02660   1.04487   1.07349
 Alpha virt. eigenvalues --    1.09083   1.09604   1.12603   1.13380   1.15082
 Alpha virt. eigenvalues --    1.15910   1.17025   1.17358   1.18226   1.24232
 Alpha virt. eigenvalues --    1.28135   1.29240   1.31096   1.32655   1.33973
 Alpha virt. eigenvalues --    1.34555   1.36874   1.40954   1.41865   1.42181
 Alpha virt. eigenvalues --    1.44459   1.47232   1.51902   1.59549   1.60094
 Alpha virt. eigenvalues --    1.60840   1.62856   1.63211   1.63935   1.64677
 Alpha virt. eigenvalues --    1.65788   1.67203   1.69498   1.69817   1.71767
 Alpha virt. eigenvalues --    1.73937   1.76053   1.76946   1.81049   1.86273
 Alpha virt. eigenvalues --    1.91381   1.91908   1.93393   1.99433   2.02353
 Alpha virt. eigenvalues --    2.03647   2.04162   2.05538   2.07054   2.08549
 Alpha virt. eigenvalues --    2.09918   2.11374   2.12181   2.17843   2.20068
 Alpha virt. eigenvalues --    2.22057   2.22174   2.24256   2.27940   2.29379
 Alpha virt. eigenvalues --    2.29978   2.32371   2.33472   2.34159   2.35315
 Alpha virt. eigenvalues --    2.37635   2.38877   2.43034   2.44607   2.45399
 Alpha virt. eigenvalues --    2.46673   2.51982   2.60378   2.61747   2.63717
 Alpha virt. eigenvalues --    2.65156   2.67803   2.74777   2.82598   2.84338
 Alpha virt. eigenvalues --    2.84385   2.90927   2.92618   2.93053   2.95032
 Alpha virt. eigenvalues --    2.99905   3.06655   3.09266   3.16862   3.21752
 Alpha virt. eigenvalues --    3.29189   3.37194   3.38420   3.42747   3.44860
 Alpha virt. eigenvalues --    3.49268   3.70971   4.02476   4.36198   4.39922
 Alpha virt. eigenvalues --    4.44835   4.48048   4.59888   4.63890   4.72821
 Alpha virt. eigenvalues --    4.81824   5.02732   5.16518   5.57632   6.02669
          Condensed to atoms (all electrons):
              1          2          3          4          5          6
     1  F    9.158416   0.268118  -0.033636   0.002211  -0.000015   0.000000
     2  C    0.268118   4.573048   0.570619  -0.026128   0.000791  -0.000019
     3  C   -0.033636   0.570619   5.067981   0.352610  -0.012516   0.002161
     4  C    0.002211  -0.026128   0.352610   5.206297   0.419609  -0.045310
     5  C   -0.000015   0.000791  -0.012516   0.419609   3.553020   0.290248
     6  F    0.000000  -0.000019   0.002161  -0.045310   0.290248   9.185040
     7  F    0.000000   0.000293   0.005080  -0.055649   0.285987  -0.030731
     8  F    0.000000   0.000291   0.005095  -0.054406   0.273497  -0.030189
     9  C    0.000134  -0.023083  -0.054177   0.592023  -0.021124   0.005338
    10  N    0.001382  -0.053176  -0.021220  -0.035621   0.001228   0.000237
    11  C   -0.040741   0.377749  -0.079347  -0.001224   0.000081   0.000002
    12  S    0.003521  -0.083360   0.001592  -0.000050   0.000006   0.000000
    13  H   -0.000284  -0.016540   0.368468  -0.030764  -0.000245   0.000034
    14  H    0.000000  -0.000114   0.001796  -0.022869  -0.000146   0.004930
    15  H   -0.000018   0.003854  -0.000572   0.002348  -0.000016   0.000001
    16  H    0.000000   0.000000   0.000008   0.000073   0.000082   0.000012
    17  O    0.000000   0.000000   0.000000  -0.000003   0.000011   0.000000
    18  H    0.000000   0.000000   0.000000   0.000000   0.000000   0.000000
              7          8          9         10         11         12
     1  F    0.000000   0.000000   0.000134   0.001382  -0.040741   0.003521
     2  C    0.000293   0.000291  -0.023083  -0.053176   0.377749  -0.083360
     3  C    0.005080   0.005095  -0.054177  -0.021220  -0.079347   0.001592
     4  C   -0.055649  -0.054406   0.592023  -0.035621  -0.001224  -0.000050
     5  C    0.285987   0.273497  -0.021124   0.001228   0.000081   0.000006
     6  F   -0.030731  -0.030189   0.005338   0.000237   0.000002   0.000000
     7  F    9.198055  -0.033475   0.000504  -0.000006  -0.000002   0.000000
     8  F   -0.033475   9.210256   0.000463  -0.000005  -0.000002   0.000000
     9  C    0.000504   0.000463   4.731492   0.267290  -0.038408   0.003320
    10  N   -0.000006  -0.000005   0.267290   7.234991   0.211390  -0.104490
    11  C   -0.000002  -0.000002  -0.038408   0.211390   4.956343   0.447222
    12  S    0.000000   0.000000   0.003320  -0.104490   0.447222  15.944890
    13  H    0.000886   0.000870   0.002399  -0.000261   0.002626  -0.000055
    14  H    0.000082   0.000081   0.380077  -0.031894   0.000958  -0.000132
    15  H    0.000000   0.000000  -0.021494   0.309796  -0.017811   0.013769
    16  H    0.000013   0.008925   0.000000   0.000000   0.000000   0.000000
    17  O    0.000000  -0.000800   0.000000   0.000000   0.000000   0.000000
    18  H    0.000000  -0.000023   0.000000   0.000000   0.000000   0.000000
             13         14         15         16         17         18
     1  F   -0.000284   0.000000  -0.000018   0.000000   0.000000   0.000000
     2  C   -0.016540  -0.000114   0.003854   0.000000   0.000000   0.000000
     3  C    0.368468   0.001796  -0.000572   0.000008   0.000000   0.000000
     4  C   -0.030764  -0.022869   0.002348   0.000073  -0.000003   0.000000
     5  C   -0.000245  -0.000146  -0.000016   0.000082   0.000011   0.000000
     6  F    0.000034   0.004930   0.000001   0.000012   0.000000   0.000000
     7  F    0.000886   0.000082   0.000000   0.000013   0.000000   0.000000
     8  F    0.000870   0.000081   0.000000   0.008925  -0.000800  -0.000023
     9  C    0.002399   0.380077  -0.021494   0.000000   0.000000   0.000000
    10  N   -0.000261  -0.031894   0.309796   0.000000   0.000000   0.000000
    11  C    0.002626   0.000958  -0.017811   0.000000   0.000000   0.000000
    12  S   -0.000055  -0.000132   0.013769   0.000000   0.000000   0.000000
    13  H    0.392016  -0.000062   0.000008   0.000002   0.000000   0.000000
    14  H   -0.000062   0.381227  -0.002126   0.000000   0.000000   0.000000
    15  H    0.000008  -0.002126   0.270048   0.000000   0.000000   0.000000
    16  H    0.000002   0.000000   0.000000   0.309004   0.262045  -0.018521
    17  O    0.000000   0.000000   0.000000   0.262045   8.352440   0.265721
    18  H    0.000000   0.000000   0.000000  -0.018521   0.265721   0.321219
 Mulliken atomic charges:
              1
     1  F   -0.359086
     2  C    0.407656
     3  C   -0.173943
     4  C   -0.303147
     5  C    1.209500
     6  F   -0.381754
     7  F   -0.371037
     8  F   -0.380577
     9  C    0.175247
    10  N   -0.779641
    11  C    0.181162
    12  S   -0.226234
    13  H    0.280901
    14  H    0.288190
    15  H    0.442212
    16  H    0.438358
    17  O   -0.879412
    18  H    0.431604
 Sum of Mulliken atomic charges =   0.00000
 Mulliken charges with hydrogens summed into heavy atoms:
              1
     1  F   -0.359086
     2  C    0.407656
     3  C    0.106958
     4  C   -0.303147
     5  C    1.209500
     6  F   -0.381754
     7  F   -0.371037
     8  F   -0.380577
     9  C    0.463437
    10  N   -0.337429
    11  C    0.181162
    12  S   -0.226234
    17  O   -0.009450
 Sum of Mulliken charges with hydrogens summed into heavy atoms =   0.00000
 Electronic spatial extent (au):  <R**2>=           3881.2269
 Charge=              0.0000 electrons
 Dipole moment (field-independent basis, Debye):
    X=              4.4578    Y=             -3.6428    Z=             -1.8212  Tot=              6.0381
 Quadrupole moment (field-independent basis, Debye-Ang):
   XX=            -94.1918   YY=            -75.4405   ZZ=            -93.6807
   XY=              1.3041   XZ=             -2.2095   YZ=             -6.4249
 Traceless Quadrupole moment (field-independent basis, Debye-Ang):
   XX=             -6.4208   YY=             12.3305   ZZ=             -5.9097
   XY=              1.3041   XZ=             -2.2095   YZ=             -6.4249
 Octapole moment (field-independent basis, Debye-Ang**2):
  XXX=            102.5296  YYY=            -68.0878  ZZZ=           -133.7929  XYY=            -12.4578
  XXY=              3.6211  XXZ=             -5.8405  XZZ=            -36.3344  YZZ=            -43.2583
  YYZ=            -44.8037  XYZ=            -12.4915
 Hexadecapole moment (field-independent basis, Debye-Ang**3):
 XXXX=          -2795.4842 YYYY=           -700.7192 ZZZZ=           -963.2492 XXXY=            -69.5355
 XXXZ=            -76.4954 YYYX=           -218.8353 YYYZ=           -227.1664 ZZZX=           -452.2712
 ZZZY=           -316.2598 XXYY=           -642.6107 XXZZ=           -639.7937 YYZZ=           -326.8597
 XXYZ=            -37.2474 YYXZ=           -145.3221 ZZXY=           -154.8391
 N-N= 9.035401959688D+02 E-N=-4.544595504675D+03  KE= 1.152539321135D+03
 1\1\GINC-B1\FOpt\RHF\6-31G(d)\C6H5F4N1O1S1\ANA\24-Sep-2021\1\\#HF/6-31
 G* Opt=Z-matrix NoSymm\\water interaction with atom F8\\0,1\F,-1,-1.96
 93,2.05368,0.00007\C,-1,-1.22225,0.94423,0.00003\C,-1,0.14003,1.0574,-
 0.00002\C,-1,0.92795,-0.12364,-0.00008\C,-1,2.41466,-0.01865,-0.00001\
 F,-1,3.00708,-1.23461,-0.00056\F,-1,2.85829,0.65448,-1.08602\F,-1,2.85
 827,0.6535,1.08665\C,-1,0.30654,-1.34149,-0.00009\N,-1,-1.05417,-1.389
 97,-0.00006\C,-1,-1.9305,-0.3121,0.\S,-1,-3.57098,-0.50661,0.00003\H,-
 1,0.59686,2.0431,-0.00002\H,-1,0.83176,-2.28899,-0.00015\H,-1,-1.52148
 ,-2.29639,-0.00009\X,8,RDUM,5,ADUM,4,DDUM,0\X,16,RDUM,8,ADUM,5,DDUM,0\
 H,8,RX,16,ADUM,17,DH1,0\X,18,RDUM,8,ADUM,16,DDUM,0\O,18,ROH,19,ADUM,8,
 DOH2,0\H,20,ROH,18,AHOH,16,DH2,0\\RX=2.33379245\RDUM=1.\ROH=0.9572\ADU
 M=90.\AHOH=104.52\DDUM=0.\DH1=180.\DOH2=180.\DH2=180.\\Version=EM64L-G
 09RevA.01\HF=-1154.6745895\RMSD=4.570e-09\RMSF=2.891e-03\Dipole=1.7538
 249,-1.4331853,-0.7165335\Quadrupole=-4.7736872,9.1674244,-4.3937371,0
 .9695765,-1.6427022,-4.7767307\PG=C01 [X(C6H5F4N1O1S1)]\\@


                                                                                    A
                                                                                  AA
                                                                                 AAA
                                                                                AAAA
                                                                               AAAAA
                                                                              AAAAAA   KKKKKKKK
                                                                             AAAAAAA   KKKKKKKK
                                                                            AAAAAAAA   KKKKKKKK
                                       ZZZZZZZZZZZZZZZZZZZZ                AAAA  AAA   KKKKKKKK
                                       ZZZZZZZZZZZZZZZZZZZ                AAAA   AAA   KKKKKKKK          K
                                       ZZZZZZZZZZZZZZZZZZ                AAAA    AAA   KKKKKKKK         KKK
                                       ZZZZZZZZZZZZZZZZZ                AAAA     AAA   KKKKKKKK        KKKKK
                                       ZZZZZZZZZZZZZZZZ                AAAA      AAA   KKKKKKKK       KKKKKKK
                                                ZZZZZZ                AAAA       AAA   KKKKKKKK      KKKKKKK
                                               ZZZZZZ                AAAA        AAA   KKKKKKKK     KKKKKKK
                                              ZZZZZZ                AAAA         AAA   KKKKKKKK    KKKKKKK
                                             ZZZZZZ                AAAA          AAA   KKKKKKKK   KKKKKKK
                                            ZZZZZZ                AAAAAAAAAAAAAAAAAA   KKKKKKKK  KKKKKKK
                                           ZZZZZZ                AAAAAAAAAAAAAAAAAAA   KKKKKKKK KKKKKKK
                                          ZZZZZZ                AAAAAAAAAAAAAAAAAAAA   KKKKKKKKKKKKKKK
                                         ZZZZZZ                AAAAAAAAAAAAAAAAAAAAA   KKKKKKKKKKKKKK
                                        ZZZZZZ                AAAAAA        AAAAAAAA   KKKKKKKKKKKKK
                                       ZZZZZZ                AAAAAA         AAAAAAAA   KKKKKKKKKKKK
                                      ZZZZZZ                AAAAAA          AAAAAAAA   KKKKKKKKKKK
                                     ZZZZZZ                AAAAAA           AAAAAAAA   KKKKKKKKKKKK
                                    ZZZZZZ                AAAAAA            AAAAAAAA   KKKKKKKKKKKKK
                                   ZZZZZZ                AAAAAA             AAAAAAAA   KKKKKKKKKKKKKK
                                  ZZZZZZ                AAAAAA              AAAAAAAA   KKKKKKKKKKKKKKK
                                 ZZZZZZ                AAAAAA               AAAAAAAA   KKKKK KKKKKKKKKK
                                ZZZZZZ                AAAAAA                AAAAAAAA   KKKKK  KKKKKKKKKK
                               ZZZZZZ                AAAAAA                            KKKKK   KKKKKKKKKK
                              ZZZZZZ                AAAAAA                             KKKKK    KKKKKKKKKK
                             ZZZZZZ                                                    KKKKK     KKKKKKKKKK
                            ZZZZZZ                                                     KKKKK      KKKKKKKKKK
                           ZZZZZZ                                                      KKKKK       KKKKKKKKKK
                          ZZZZZZ                                                       KKKKK        KKKKKKKKKK
                         ZZZZZZZZZZZZZZZZZZZZZZZZZZZZZZZZZZZZZZZZ                      KKKKK         KKKKKKKKKK
                        ZZZZZZZZZZZZZZZZZZZZZZZZZZZZZZZZZZZZZZZZZ                      KKKKK          KKKKKKKKKK
                       ZZZZZZZZZZZZZZZZZZZZZZZZZZZZZZZZZZZZZZZZZZ                      KKKKK           KKKKKKKKKK
                       ZZZZZZZZZZZZZZZZZZZZZZZZZZZZZZZZZZZZZZZZZZ                      KKKKK            KKKKKKKKKK
                       ZZZZZZZZZZZZZZZZZZZZZZZZZZZZZZZZZZZZZZZZZZ                      KKKKK             KKKKKKKKKK
                       ZZZZZZZZZZZZZZZZZZZZZZZZZZZZZZZZZZZZZZZZZZ                      KKKKK              KKKKKKKKKK
                       ZZZZZZZZZZZZZZZZZZZZZZZZZZZZZZZZZZZZZZZZZZ                      KKKKK               KKKKKKKKKK
                       ZZZZZZZZZZZZZZZZZZZZZZZZZZZZZZZZZZZZZZZZZZ                      KKKKK                KKKKKKKKKK
                       ZZZZZZZZZZZZZZZZZZZZZZZZZZZZZZZZZZZZZZZZZZ                      KKKKK
                                                                                       KKKKK
                                                                                          (J.P.)
 Job cpu time:  0 days  0 hours  4 minutes 11.1 seconds.
 File lengths (MBytes):  RWF=     26 Int=      0 D2E=      0 Chk=      3 Scr=      1
 Normal termination of Gaussian 09 at Fri Sep 24 08:13:36 2021.
