 Entering Gaussian System, Link 0=g09
 Initial command:
 /home/ana/programs/g09/l1.exe /home/ana/programs/g09/scratch/Gau-703218.inp -scrdir=/home/ana/programs/g09/scratch/
 Entering Link 1 = /home/ana/programs/g09/l1.exe PID=    703220.
  
 Copyright (c) 1988,1990,1992,1993,1995,1998,2003,2009, Gaussian, Inc.
                  All Rights Reserved.
  
 This is part of the Gaussian(R) 09 program.  It is based on
 the Gaussian(R) 03 system (copyright 2003, Gaussian, Inc.),
 the Gaussian(R) 98 system (copyright 1998, Gaussian, Inc.),
 the Gaussian(R) 94 system (copyright 1995, Gaussian, Inc.),
 the Gaussian 92(TM) system (copyright 1992, Gaussian, Inc.),
 the Gaussian 90(TM) system (copyright 1990, Gaussian, Inc.),
 the Gaussian 88(TM) system (copyright 1988, Gaussian, Inc.),
 the Gaussian 86(TM) system (copyright 1986, Carnegie Mellon
 University), and the Gaussian 82(TM) system (copyright 1983,
 Carnegie Mellon University). Gaussian is a federally registered
 trademark of Gaussian, Inc.
  
 This software contains proprietary and confidential information,
 including trade secrets, belonging to Gaussian, Inc.
  
 This software is provided under written license and may be
 used, copied, transmitted, or stored only in accord with that
 written license.
  
 The following legend is applicable only to US Government
 contracts under FAR:
  
                    RESTRICTED RIGHTS LEGEND
  
 Use, reproduction and disclosure by the US Government is
 subject to restrictions as set forth in subparagraphs (a)
 and (c) of the Commercial Computer Software - Restricted
 Rights clause in FAR 52.227-19.
  
 Gaussian, Inc.
 340 Quinnipiac St., Bldg. 40, Wallingford CT 06492
  
  
 ---------------------------------------------------------------
 Warning -- This program may not be used in any manner that
 competes with the business of Gaussian, Inc. or will provide
 assistance to any competitor of Gaussian, Inc.  The licensee
 of this program is prohibited from giving any competitor of
 Gaussian, Inc. access to this program.  By using this program,
 the user acknowledges that Gaussian, Inc. is engaged in the
 business of creating and licensing software in the field of
 computational chemistry and represents and warrants to the
 licensee that it is not a competitor of Gaussian, Inc. and that
 it will not use this program in any manner prohibited above.
 ---------------------------------------------------------------
  

 Cite this work as:
 Gaussian 09, Revision A.01,
 M. J. Frisch, G. W. Trucks, H. B. Schlegel, G. E. Scuseria, 
 M. A. Robb, J. R. Cheeseman, G. Scalmani, V. Barone, B. Mennucci, 
 G. A. Petersson, H. Nakatsuji, M. Caricato, X. Li, H. P. Hratchian, 
 A. F. Izmaylov, J. Bloino, G. Zheng, J. L. Sonnenberg, M. Hada, 
 M. Ehara, K. Toyota, R. Fukuda, J. Hasegawa, M. Ishida, T. Nakajima, 
 Y. Honda, O. Kitao, H. Nakai, T. Vreven, J. A. Montgomery, Jr., 
 J. E. Peralta, F. Ogliaro, M. Bearpark, J. J. Heyd, E. Brothers, 
 K. N. Kudin, V. N. Staroverov, R. Kobayashi, J. Normand, 
 K. Raghavachari, A. Rendell, J. C. Burant, S. S. Iyengar, J. Tomasi, 
 M. Cossi, N. Rega, J. M. Millam, M. Klene, J. E. Knox, J. B. Cross, 
 V. Bakken, C. Adamo, J. Jaramillo, R. Gomperts, R. E. Stratmann, 
 O. Yazyev, A. J. Austin, R. Cammi, C. Pomelli, J. W. Ochterski, 
 R. L. Martin, K. Morokuma, V. G. Zakrzewski, G. A. Voth, 
 P. Salvador, J. J. Dannenberg, S. Dapprich, A. D. Daniels, 
 O. Farkas, J. B. Foresman, J. V. Ortiz, J. Cioslowski, 
 and D. J. Fox, Gaussian, Inc., Wallingford CT, 2009.
 
 ******************************************
 Gaussian 09:  EM64L-G09RevA.01  8-May-2009
                24-Sep-2021 
 ******************************************
 %NPROC=4
 Will use up to    4 processors via shared memory.
 %NoSave
 ------------------------------
 #HF/6-31G* Opt=Z-matrix NoSymm
 ------------------------------
 1/10=7,18=40,38=1/1,3;
 2/12=2,15=1,17=6,18=5,29=3,40=1/2;
 3/5=1,6=6,7=1,11=9,16=1,25=1,30=1,71=1/1,2,3;
 4//1;
 5/5=2,38=5/2;
 6/7=2,8=2,9=2,10=2,28=1/1;
 7/29=1,30=1/1,2,3,16;
 1/10=7,18=40/3(2);
 2/15=1,29=3/2;
 99//99;
 2/15=1,29=3/2;
 3/5=1,6=6,7=1,11=9,16=1,25=1,30=1,71=1/1,2,3;
 4/5=5,16=3/1;
 5/5=2,38=5/2;
 7/30=1/1,2,3,16;
 1/18=40/3(-5);
 2/15=1,29=3/2;
 6/7=2,8=2,9=2,10=2,19=2,28=1/1;
 99/9=1/99;
 ------------------------------
 water interaction with atom F8
 ------------------------------
 Symbolic Z-matrix:
 Charge =  0 Multiplicity = 1
 9                    -1   -1.9693    2.05368   0.00007 
 6                    -1   -1.22225   0.94423   0.00003 
 6                    -1    0.14003   1.0574   -0.00002 
 6                    -1    0.92795  -0.12364  -0.00008 
 6                    -1    2.41466  -0.01865  -0.00001 
 9                    -1    3.00708  -1.23461  -0.00056 
 9                    -1    2.85829   0.65448  -1.08602 
 9                    -1    2.85827   0.6535    1.08665 
 6                    -1    0.30654  -1.34149  -0.00009 
 7                    -1   -1.05417  -1.38997  -0.00006 
 6                    -1   -1.9305   -0.3121    0. 
 16                   -1   -3.57098  -0.50661   0.00003 
 1                    -1    0.59686   2.0431   -0.00002 
 1                    -1    0.83176  -2.28899  -0.00015 
 1                    -1   -1.52148  -2.29639  -0.00009 
 X                    8    RDUM     5    ADUM     4    DDUM     0
 X                    16   RDUM     8    ADUM     5    DDUM     0
 H1                   8    RX       16   ADUM     17   DH1      0
 X                    18   RDUM     8    ADUM     16   DDUM     0
 OH2                  18   ROH      19   ADUM     8    DOH2     0
 H2                   20   ROH      18   AHOH     16   DH2      0
       Variables:
  RX                    2.3338                   
       Constants:
  RDUM                  1.                       
  ROH                   0.9572                   
  ADUM                 90.                       
  AHOH                104.52                     
  DDUM                  0.                       
  DH1                 180.                       
  DOH2                180.                       
  DH2                 270.                       
 

 GradGradGradGradGradGradGradGradGradGradGradGradGradGradGradGradGradGrad
 Berny optimization.
 Initialization pass.
                       ----------------------------
                       !    Initial Parameters    !
                       ! (Angstroms and Degrees)  !
 ----------------------                            ----------------------
 !      Name          Value   Derivative information (Atomic Units)     !
 ------------------------------------------------------------------------
 !       RX          2.3338   estimate D2E/DX2                          !
 !      RDUM         1.0      Frozen                                    !
 !       ROH         0.9572   Frozen                                    !
 !      ADUM        90.0      Frozen                                    !
 !      AHOH       104.52     Frozen                                    !
 !      DDUM         0.0      Frozen                                    !
 !       DH1       180.0      Frozen                                    !
 !      DOH2       180.0      Frozen                                    !
 !       DH2       270.0      Frozen                                    !
 ------------------------------------------------------------------------
 Trust Radius=3.00D-01 FncErr=1.00D-07 GrdErr=1.00D-07
 Number of steps in this run=  20 maximum allowed number of steps= 100.
 GradGradGradGradGradGradGradGradGradGradGradGradGradGradGradGradGradGrad

 ---------------------------------------------------------------------------------------------------
                            Z-MATRIX (ANGSTROMS AND DEGREES)
   CD    Cent   Atom    N1       Length/X        N2       Alpha/Y        N3        Beta/Z          J
 ---------------------------------------------------------------------------------------------------
      1      1  F       -1  -1.969300          2.053680          0.000070
      2      2  C       -1  -1.222250          0.944230          0.000030
      3      3  C       -1   0.140030          1.057400         -0.000020
      4      4  C       -1   0.927950         -0.123640         -0.000080
      5      5  C       -1   2.414660         -0.018650         -0.000010
      6      6  F       -1   3.007080         -1.234610         -0.000560
      7      7  F       -1   2.858290          0.654480         -1.086020
      8      8  F       -1   2.858270          0.653500          1.086650
      9      9  C       -1   0.306540         -1.341490         -0.000090
     10     10  N       -1  -1.054170         -1.389970         -0.000060
     11     11  C       -1  -1.930500         -0.312100          0.000000
     12     12  S       -1  -3.570980         -0.506610          0.000030
     13     13  H       -1   0.596860          2.043100         -0.000020
     14     14  H       -1   0.831760         -2.288990         -0.000150
     15     15  H       -1  -1.521480         -2.296390         -0.000090
     16         X        8   1.000000(    15)      5   90.000(    34)      4    0.000(    52)      0
     17         X       16   1.000000(    16)      8   90.000(    35)      5    0.000(    53)      0
     18     16  H        8   2.333800(    17)     16   90.000(    36)     17  180.000(    54)      0
     19         X       18   1.000000(    18)      8   90.000(    37)     16    0.000(    55)      0
     20     17  O       18   0.957200(    19)     19   90.000(    38)      8  180.000(    56)      0
     21     18  H       20   0.957200(    20)     18  104.520(    39)     16  270.000(    57)      0
 ---------------------------------------------------------------------------------------------------
                         Z-Matrix orientation:                         
 ---------------------------------------------------------------------
 Center     Atomic      Atomic             Coordinates (Angstroms)
 Number     Number       Type             X           Y           Z
 ---------------------------------------------------------------------
      1          9           0       -1.969300    2.053680    0.000070
      2          6           0       -1.222250    0.944230    0.000030
      3          6           0        0.140030    1.057400   -0.000020
      4          6           0        0.927950   -0.123640   -0.000080
      5          6           0        2.414660   -0.018650   -0.000010
      6          9           0        3.007080   -1.234610   -0.000560
      7          9           0        2.858290    0.654480   -1.086020
      8          9           0        2.858270    0.653500    1.086650
      9          6           0        0.306540   -1.341490   -0.000090
     10          7           0       -1.054170   -1.389970   -0.000060
     11          6           0       -1.930500   -0.312100    0.000000
     12         16           0       -3.570980   -0.506610    0.000030
     13          1           0        0.596860    2.043100   -0.000020
     14          1           0        0.831760   -2.288990   -0.000150
     15          1           0       -1.521480   -2.296390   -0.000090
     16         -1           0        1.915537    0.771037    1.398802
     17         -1           0        1.587558    0.274088    0.595390
     18          1           0        3.623708    1.813278    2.961655
     19         -1           0        2.680975    1.930815    3.273807
     20          8           0        3.937650    2.288957    3.730681
     21          1           0        3.960121    3.204917    3.453654
 ---------------------------------------------------------------------
                    Distance matrix (angstroms):
                    1          2          3          4          5
     1  F    0.000000
     2  C    1.337521   0.000000
     3  C    2.332777   1.366973   0.000000
     4  C    3.624194   2.400772   1.419744   0.000000
     5  C    4.849088   3.762214   2.516312   1.490413   0.000000
     6  F    5.964663   4.757581   3.670597   2.357337   1.352598
     7  F    5.142274   4.232525   2.954772   2.347541   1.352527
     8  F    5.142625   4.232719   2.955134   2.347566   1.352555
     9  C    4.087374   2.749857   2.404662   1.367227   2.488790
    10  N    3.563171   2.340244   2.723184   2.352104   3.730054
    11  C    2.366098   1.442215   2.482463   2.864656   4.355058
    12  S    3.020011   2.760701   4.027123   4.515201   6.005497
    13  H    2.566182   2.125247   1.086415   2.191890   2.748674
    14  H    5.167661   3.830492   3.417136   2.167485   2.767673
    15  H    4.373060   3.254406   3.742796   3.274225   4.547669
    16  X    4.323608   3.439806   2.278406   1.932006   1.682084
    17  X    4.021516   2.949332   1.750265   0.973578   1.060328
    18  H    6.333286   5.745413   4.634531   4.448667   3.686355
    19  X    5.688366   5.189039   4.235233   4.244080   3.819583
    20  O    6.990341   6.507735   5.464136   5.366330   4.643555
    21  H    6.957774   6.625344   5.579676   5.674648   4.970676
                    6          7          8          9         10
     6  F    0.000000
     7  F    2.183809   0.000000
     8  F    2.183834   2.172670   0.000000
     9  C    2.702654   3.416807   3.416477   0.000000
    10  N    4.064221   4.546034   4.545756   1.361573   0.000000
    11  C    5.023019   5.004620   5.004549   2.462517   1.389157
    12  S    6.618222   6.622926   6.622828   3.966382   2.667332
    13  H    4.068482   2.867355   2.868068   3.397019   3.809445
    14  H    2.417382   3.734964   3.734451   1.083334   2.089251
    15  H    4.651369   5.391592   5.391203   2.062399   1.019792
    16  X    2.678115   2.660209   1.000000   3.001423   3.930130
    17  X    2.155544   2.141634   1.414214   2.146088   3.178423
    18  H    4.294714   4.279293   2.333800   5.452348   6.396491
    19  X    4.565932   4.546269   2.539020   5.202338   5.974707
    20  O    5.215711   5.199725   3.291000   6.346949   7.236795
    21  H    5.705197   5.322349   3.650549   6.778408   7.627859
                   11         12         13         14         15
    11  C    0.000000
    12  S    1.651971   0.000000
    13  H    3.454637   4.885889   0.000000
    14  H    3.396789   4.749842   4.338454   0.000000
    15  H    2.026007   2.720986   4.828927   2.353252   0.000000
    16  X    4.233419   5.804379   2.305159   3.534884   4.814467
    17  X    3.615914   5.251138   2.113148   2.737749   4.077753
    18  H    6.643633   8.118906   4.241007   5.778915   7.220406
    19  X    6.083928   7.466297   3.882536   5.652003   6.800609
    20  O    7.424194   8.838126   5.013926   6.672574   8.046500
    21  H    7.680921   9.078569   4.958750   7.204055   8.499451
                   16         17         18         19         20
    16  X    0.000000
    17  X    1.000000   0.000000
    18  H    2.539020   3.480549   0.000000
    19  X    2.333800   3.333800   1.000000   0.000000
    20  O    3.439576   4.405982   0.957200   1.384280   0.000000
    21  H    3.785037   4.731647   1.513901   1.814358   0.957200
                   21
    21  H    0.000000
 Symmetry turned off by external request.
 Stoichiometry    C6H5F4NOS
 Framework group  C1[X(C6H5F4NOS)]
 Deg. of freedom    48
 Full point group                 C1      NOp   1
 Rotational constants (GHZ):      0.9992439      0.3180591      0.2787521
 Standard basis: 6-31G(d) (6D, 7F)
 Integral buffers will be    131072 words long.
 Raffenetti 1 integral format.
 Two-electron integral symmetry is turned off.
   209 basis functions,   408 primitive gaussians,   209 cartesian basis functions
    54 alpha electrons       54 beta electrons
       nuclear repulsion energy       903.8023829672 Hartrees.
 NAtoms=   18 NActive=   18 NUniq=   18 SFac= 7.50D-01 NAtFMM=   80 NAOKFM=F Big=F
 One-electron integrals computed using PRISM.
 NBasis=   209 RedAO= T  NBF=   209
 NBsUse=   209 1.00D-06 NBFU=   209
 Harris functional with IExCor=  205 diagonalized for initial guess.
 ExpMin= 1.17D-01 ExpMax= 2.19D+04 ExpMxC= 3.30D+03 IAcc=1 IRadAn=         1 AccDes= 0.00D+00
 HarFok:  IExCor=  205 AccDes= 0.00D+00 IRadAn=         1 IDoV= 1
 ScaDFX=  1.000000  1.000000  1.000000  1.000000
 FoFCou: FMM=F IPFlag=           0 FMFlag=      100000 FMFlg1=           0
         NFxFlg=           0 DoJE=T BraDBF=F KetDBF=T FulRan=T
         Omega=  0.000000  0.000000  1.000000  0.000000  0.000000 ICntrl=     500 IOpCl=  0
         NMat0=    1 NMatS0=    1 NMatT0=    0 NMatD0=    1 NMtDS0=    0 NMtDT0=    0
         I1Cent=           4 NGrid=           0.
 Symmetry not used in FoFCou.
 Requested convergence on RMS density matrix=1.00D-08 within 128 cycles.
 Requested convergence on MAX density matrix=1.00D-06.
 Requested convergence on             energy=1.00D-06.
 No special actions if energy rises.
 Integral accuracy reduced to 1.0D-05 until final iterations.
 Initial convergence to 1.0D-05 achieved.  Increase integral accuracy.
 SCF Done:  E(RHF) =  -1154.67427535     A.U. after   15 cycles
             Convg  =    0.5580D-08             -V/T =  2.0019

 **********************************************************************

            Population analysis using the SCF density.

 **********************************************************************

 Alpha  occ. eigenvalues --  -91.90738 -26.37460 -26.37364 -26.36608 -26.33731
 Alpha  occ. eigenvalues --  -20.55684 -15.68999 -11.55018 -11.38104 -11.37510
 Alpha  occ. eigenvalues --  -11.36512 -11.31584 -11.30722  -8.91825  -6.60152
 Alpha  occ. eigenvalues --   -6.59876  -6.59749  -1.74990  -1.65974  -1.65368
 Alpha  occ. eigenvalues --   -1.64981  -1.35837  -1.33882  -1.17542  -1.12374
 Alpha  occ. eigenvalues --   -1.03525  -0.97683  -0.93074  -0.88612  -0.85406
 Alpha  occ. eigenvalues --   -0.84560  -0.84292  -0.77426  -0.76287  -0.74217
 Alpha  occ. eigenvalues --   -0.73209  -0.72383  -0.71603  -0.70627  -0.70414
 Alpha  occ. eigenvalues --   -0.68500  -0.68256  -0.67044  -0.64452  -0.62813
 Alpha  occ. eigenvalues --   -0.61178  -0.59832  -0.56800  -0.52846  -0.49493
 Alpha  occ. eigenvalues --   -0.46952  -0.43552  -0.34357  -0.31257
 Alpha virt. eigenvalues --    0.04177   0.08365   0.17409   0.21540   0.24103
 Alpha virt. eigenvalues --    0.24949   0.26134   0.26235   0.29179   0.31347
 Alpha virt. eigenvalues --    0.33602   0.35072   0.38943   0.40853   0.42207
 Alpha virt. eigenvalues --    0.43802   0.46380   0.49159   0.53841   0.55200
 Alpha virt. eigenvalues --    0.56470   0.59457   0.60936   0.64046   0.66323
 Alpha virt. eigenvalues --    0.67366   0.71563   0.72724   0.73202   0.75024
 Alpha virt. eigenvalues --    0.76858   0.77566   0.82607   0.84181   0.87178
 Alpha virt. eigenvalues --    0.88715   0.89504   0.91858   0.95358   0.99504
 Alpha virt. eigenvalues --    1.01885   1.02387   1.02616   1.04267   1.07171
 Alpha virt. eigenvalues --    1.08953   1.09515   1.12545   1.13315   1.14952
 Alpha virt. eigenvalues --    1.15766   1.17024   1.17339   1.18174   1.24125
 Alpha virt. eigenvalues --    1.28026   1.29223   1.30959   1.32634   1.33875
 Alpha virt. eigenvalues --    1.34439   1.36804   1.40907   1.41748   1.42054
 Alpha virt. eigenvalues --    1.44494   1.47074   1.51714   1.59531   1.59999
 Alpha virt. eigenvalues --    1.60878   1.62797   1.63208   1.63883   1.64625
 Alpha virt. eigenvalues --    1.65668   1.67080   1.69307   1.69746   1.71632
 Alpha virt. eigenvalues --    1.73897   1.75922   1.76886   1.80969   1.86168
 Alpha virt. eigenvalues --    1.91317   1.91911   1.93278   1.99408   2.02347
 Alpha virt. eigenvalues --    2.03655   2.04035   2.05474   2.07047   2.08567
 Alpha virt. eigenvalues --    2.09710   2.11363   2.12172   2.17665   2.19907
 Alpha virt. eigenvalues --    2.21997   2.22093   2.24144   2.27959   2.29288
 Alpha virt. eigenvalues --    2.29907   2.32332   2.33352   2.34139   2.35285
 Alpha virt. eigenvalues --    2.37516   2.38764   2.42874   2.44559   2.45288
 Alpha virt. eigenvalues --    2.46611   2.51870   2.60289   2.61600   2.63717
 Alpha virt. eigenvalues --    2.65047   2.67773   2.74712   2.82459   2.84176
 Alpha virt. eigenvalues --    2.84256   2.90846   2.92493   2.92930   2.95036
 Alpha virt. eigenvalues --    2.99814   3.06641   3.09155   3.16781   3.21671
 Alpha virt. eigenvalues --    3.29104   3.37177   3.38437   3.42563   3.44839
 Alpha virt. eigenvalues --    3.49124   3.70838   4.02468   4.36077   4.39795
 Alpha virt. eigenvalues --    4.44706   4.47912   4.59753   4.63798   4.72802
 Alpha virt. eigenvalues --    4.81710   5.02642   5.16520   5.57473   6.02662
          Condensed to atoms (all electrons):
              1          2          3          4          5          6
     1  F    9.159209   0.267940  -0.033731   0.002213  -0.000015   0.000000
     2  C    0.267940   4.574223   0.570399  -0.026152   0.000799  -0.000019
     3  C   -0.033731   0.570399   5.068334   0.352514  -0.012424   0.002180
     4  C    0.002213  -0.026152   0.352514   5.206410   0.419125  -0.045254
     5  C   -0.000015   0.000799  -0.012424   0.419125   3.552010   0.290937
     6  F    0.000000  -0.000019   0.002180  -0.045254   0.290937   9.183014
     7  F    0.000000   0.000294   0.005102  -0.055547   0.285694  -0.030736
     8  F    0.000000   0.000293   0.005133  -0.054285   0.273391  -0.030169
     9  C    0.000133  -0.023087  -0.054368   0.592320  -0.021000   0.005359
    10  N    0.001382  -0.053256  -0.021260  -0.035645   0.001231   0.000237
    11  C   -0.040722   0.377407  -0.079108  -0.001322   0.000082   0.000002
    12  S    0.003490  -0.083463   0.001602  -0.000046   0.000006   0.000000
    13  H   -0.000276  -0.016806   0.368946  -0.031109  -0.000256   0.000035
    14  H    0.000000  -0.000112   0.001794  -0.022694  -0.000145   0.004954
    15  H   -0.000018   0.003850  -0.000568   0.002342  -0.000016   0.000001
    16  H    0.000000   0.000000   0.000008   0.000074   0.000080   0.000012
    17  O    0.000000   0.000000   0.000000  -0.000003   0.000011   0.000000
    18  H    0.000000   0.000000   0.000000   0.000000   0.000000   0.000000
              7          8          9         10         11         12
     1  F    0.000000   0.000000   0.000133   0.001382  -0.040722   0.003490
     2  C    0.000294   0.000293  -0.023087  -0.053256   0.377407  -0.083463
     3  C    0.005102   0.005133  -0.054368  -0.021260  -0.079108   0.001602
     4  C   -0.055547  -0.054285   0.592320  -0.035645  -0.001322  -0.000046
     5  C    0.285694   0.273391  -0.021000   0.001231   0.000082   0.000006
     6  F   -0.030736  -0.030169   0.005359   0.000237   0.000002   0.000000
     7  F    9.198520  -0.033490   0.000512  -0.000006  -0.000002   0.000000
     8  F   -0.033490   9.210097   0.000482  -0.000005  -0.000002   0.000000
     9  C    0.000512   0.000482   4.730817   0.267091  -0.038390   0.003298
    10  N   -0.000006  -0.000005   0.267091   7.234923   0.211598  -0.104366
    11  C   -0.000002  -0.000002  -0.038390   0.211598   4.956105   0.447474
    12  S    0.000000   0.000000   0.003298  -0.104366   0.447474  15.943852
    13  H    0.000903   0.000894   0.002423  -0.000263   0.002650  -0.000057
    14  H    0.000083   0.000082   0.379799  -0.031813   0.000957  -0.000131
    15  H    0.000000   0.000000  -0.021451   0.309784  -0.017810   0.013691
    16  H    0.000013   0.008921   0.000000   0.000000   0.000000   0.000000
    17  O    0.000000  -0.000800   0.000000   0.000000   0.000000   0.000000
    18  H    0.000000  -0.000023   0.000000   0.000000   0.000000   0.000000
             13         14         15         16         17         18
     1  F   -0.000276   0.000000  -0.000018   0.000000   0.000000   0.000000
     2  C   -0.016806  -0.000112   0.003850   0.000000   0.000000   0.000000
     3  C    0.368946   0.001794  -0.000568   0.000008   0.000000   0.000000
     4  C   -0.031109  -0.022694   0.002342   0.000074  -0.000003   0.000000
     5  C   -0.000256  -0.000145  -0.000016   0.000080   0.000011   0.000000
     6  F    0.000035   0.004954   0.000001   0.000012   0.000000   0.000000
     7  F    0.000903   0.000083   0.000000   0.000013   0.000000   0.000000
     8  F    0.000894   0.000082   0.000000   0.008921  -0.000800  -0.000023
     9  C    0.002423   0.379799  -0.021451   0.000000   0.000000   0.000000
    10  N   -0.000263  -0.031813   0.309784   0.000000   0.000000   0.000000
    11  C    0.002650   0.000957  -0.017810   0.000000   0.000000   0.000000
    12  S   -0.000057  -0.000131   0.013691   0.000000   0.000000   0.000000
    13  H    0.396643  -0.000063   0.000008   0.000003   0.000000   0.000000
    14  H   -0.000063   0.379795  -0.002111   0.000000   0.000000   0.000000
    15  H    0.000008  -0.002111   0.269617   0.000000   0.000000   0.000000
    16  H    0.000003   0.000000   0.000000   0.308922   0.261977  -0.018481
    17  O    0.000000   0.000000   0.000000   0.261977   8.351841   0.265440
    18  H    0.000000   0.000000   0.000000  -0.018481   0.265440   0.322514
 Mulliken atomic charges:
              1
     1  F   -0.359605
     2  C    0.407690
     3  C   -0.174550
     4  C   -0.302940
     5  C    1.210488
     6  F   -0.380552
     7  F   -0.371340
     8  F   -0.380520
     9  C    0.176063
    10  N   -0.779634
    11  C    0.181081
    12  S   -0.225349
    13  H    0.276326
    14  H    0.289605
    15  H    0.442680
    16  H    0.438471
    17  O   -0.878465
    18  H    0.430550
 Sum of Mulliken atomic charges =   0.00000
 Mulliken charges with hydrogens summed into heavy atoms:
              1
     1  F   -0.359605
     2  C    0.407690
     3  C    0.101775
     4  C   -0.302940
     5  C    1.210488
     6  F   -0.380552
     7  F   -0.371340
     8  F   -0.380520
     9  C    0.465668
    10  N   -0.336953
    11  C    0.181081
    12  S   -0.225349
    17  O   -0.009444
 Sum of Mulliken charges with hydrogens summed into heavy atoms =   0.00000
 Electronic spatial extent (au):  <R**2>=           3871.3470
 Charge=              0.0000 electrons
 Dipole moment (field-independent basis, Debye):
    X=              2.7142    Y=             -2.0149    Z=             -2.1650  Tot=              4.0142
 Quadrupole moment (field-independent basis, Debye-Ang):
   XX=           -110.3147   YY=            -65.3732   ZZ=            -96.0626
   XY=              3.9922   XZ=             -9.9209   YZ=             -1.4572
 Traceless Quadrupole moment (field-independent basis, Debye-Ang):
   XX=            -19.7312   YY=             25.2103   ZZ=             -5.4791
   XY=              3.9922   XZ=             -9.9209   YZ=             -1.4572
 Octapole moment (field-independent basis, Debye-Ang**2):
  XXX=             -8.4036  YYY=            -25.5636  ZZZ=           -146.0746  XYY=             18.5564
  XXY=             -7.6598  XXZ=            -70.2402  XZZ=            -68.5657  YZZ=            -29.8215
  YYZ=            -12.1883  XYZ=             -7.4640
 Hexadecapole moment (field-independent basis, Debye-Ang**3):
 XXXX=          -3458.9316 YYYY=           -543.0789 ZZZZ=          -1018.2945 XXXY=           -223.3380
 XXXZ=           -500.7175 YYYX=            -67.9969 YYYZ=            -84.0216 ZZZX=           -580.8556
 ZZZY=           -283.8276 XXYY=           -569.1119 XXZZ=           -888.2486 YYZZ=           -224.2262
 XXYZ=            -96.3213 YYXZ=            -48.5964 ZZXY=           -153.8767
 N-N= 9.038023829672D+02 E-N=-4.545027618259D+03  KE= 1.152538955012D+03
 Calling FoFJK, ICntrl=      2127 FMM=F ISym2X=0 I1Cent= 0 IOpClX= 0 NMat=1 NMatS=1 NMatT=0.
 -------------------------------------------------------------------
 Center     Atomic                   Forces (Hartrees/Bohr)
 Number     Number              X              Y              Z
 -------------------------------------------------------------------
      1        9           0.000000000    0.000000000    0.000000000
      2        6           0.000000000    0.000000000    0.000000000
      3        6           0.000000000    0.000000000    0.000000000
      4        6           0.000000000    0.000000000    0.000000000
      5        6           0.000000000    0.000000000    0.000000000
      6        9           0.000000000    0.000000000    0.000000000
      7        9           0.000000000    0.000000000    0.000000000
      8        9           0.000000000    0.000000000    0.000000000
      9        6           0.000000000    0.000000000    0.000000000
     10        7           0.000000000    0.000000000    0.000000000
     11        6           0.000000000    0.000000000    0.000000000
     12       16           0.000000000    0.000000000    0.000000000
     13        1           0.000000000    0.000000000    0.000000000
     14        1           0.000000000    0.000000000    0.000000000
     15        1           0.000000000    0.000000000    0.000000000
     16        1           0.004061270    0.003968200    0.009269597
     17        8          -0.004184547    0.005754253   -0.013430021
     18        1           0.000376557   -0.009820536    0.004289328
 -------------------------------------------------------------------
 Cartesian Forces:  Max     0.013430021 RMS     0.002931743
 -----------------------------------------------------------------------------------------------
                       Internal Coordinate Forces (Hartree/Bohr or radian)
  Cent   Atom   N1       Length/X         N2         Alpha/Y        N3         Beta/Z          J
 -----------------------------------------------------------------------------------------------
      1  F 
      2  C 
      3  C 
      4  C 
      5  C 
      6  F 
      7  F 
      8  F 
      9  C 
     10  N 
     11  C 
     12  S 
     13  H 
     14  H 
     15  H 
         X        8   0.000000(     1)      5   0.000536(     7)      4  -0.000298(    13)     0
         X       16   0.000000(     2)      8   0.000000(     8)      5  -0.000781(    14)     0
     16  H        8   0.000138(     3)     16   0.000536(     9)     17   0.000781(    15)     0
         X       18   0.000000(     4)      8  -0.000391(    10)     16   0.000000(    16)     0
     17  O       18  -0.010613(     5)     19  -0.000391(    11)      8  -0.000643(    17)     0
     18  H       20  -0.010630(     6)     18   0.002531(    12)     16  -0.000298(    18)     0
 -----------------------------------------------------------------------------------------------
 Internal  Forces:  Max     0.010629981 RMS     0.003611373

 GradGradGradGradGradGradGradGradGradGradGradGradGradGradGradGradGradGrad
 Berny optimization.
 Search for a local minimum.
 Step number   1 out of a maximum of   20
 All quantities printed in internal units (Hartrees-Bohrs-Radians)
 Second derivative matrix not updated -- first step.
 The second derivative matrix:
                          RX       RDUM       ROH      ADUM      AHOH
           RX           0.02594
           RDUM         0.00000   0.00000
           ROH          0.00000   0.00000   1.12160
           ADUM         0.00000   0.00000   0.00000   2.14546
           AHOH         0.00000   0.00000   0.00000   0.00000   0.16000
           DDUM         0.00000   0.00000   0.00000   0.08002   0.00000
           DH1          0.00000   0.00000   0.00000  -0.08002   0.00000
           DOH2         0.00000   0.00000   0.00000  -0.12502   0.00000
           DH2          0.00000   0.00000   0.00000   0.00000   0.00000
                         DDUM       DH1      DOH2       DH2
           DDUM         0.18244
           DH1         -0.18244   0.18244
           DOH2         0.00000   0.00000   0.28507
           DH2          0.00000   0.00000   0.00000   0.00000
     Eigenvalues ---    0.025941000.000001000.000001000.000001000.00000
     Eigenvalues --- 1000.000001000.000001000.000001000.00000
 RFO step:  Lambda=-7.32896101D-07 EMin= 2.59438842D-02
 Linear search not attempted -- first point.
 Variable       Old X    -DE/DX   Delta X   Delta X   Delta X     New X
                                 (Linear)    (Quad)   (Total)
    RX        4.41024   0.00014   0.00000   0.00531   0.00531   4.41556
   RDUM       1.88973   0.00000   0.00000   0.00000   0.00000   1.88973
   ROH        1.80885  -0.02124   0.00000   0.00000   0.00000   1.80885
   ADUM       1.57080   0.00029   0.00000   0.00000   0.00000   1.57080
   AHOH       1.82422   0.00253   0.00000   0.00000   0.00000   1.82422
   DDUM       0.00000  -0.00108   0.00000   0.00000   0.00000   0.00000
   DH1        3.14159   0.00078   0.00000   0.00000   0.00000   3.14159
   DOH2       3.14159  -0.00064   0.00000   0.00000   0.00000   3.14159
   DH2        4.71239  -0.00030   0.00000   0.00000   0.00000   4.71239
         Item               Value     Threshold  Converged?
 Maximum Force            0.000138     0.000450     YES
 RMS     Force            0.000138     0.000300     YES
 Maximum Displacement     0.005315     0.001800     NO 
 RMS     Displacement     0.001772     0.001200     NO 
 Predicted change in Energy=-3.664481D-07
 GradGradGradGradGradGradGradGradGradGradGradGradGradGradGradGradGradGrad

 ---------------------------------------------------------------------------------------------------
                            Z-MATRIX (ANGSTROMS AND DEGREES)
   CD    Cent   Atom    N1       Length/X        N2       Alpha/Y        N3        Beta/Z          J
 ---------------------------------------------------------------------------------------------------
      1      1  F       -1  -1.969300          2.053680          0.000070
      2      2  C       -1  -1.222250          0.944230          0.000030
      3      3  C       -1   0.140030          1.057400         -0.000020
      4      4  C       -1   0.927950         -0.123640         -0.000080
      5      5  C       -1   2.414660         -0.018650         -0.000010
      6      6  F       -1   3.007080         -1.234610         -0.000560
      7      7  F       -1   2.858290          0.654480         -1.086020
      8      8  F       -1   2.858270          0.653500          1.086650
      9      9  C       -1   0.306540         -1.341490         -0.000090
     10     10  N       -1  -1.054170         -1.389970         -0.000060
     11     11  C       -1  -1.930500         -0.312100          0.000000
     12     12  S       -1  -3.570980         -0.506610          0.000030
     13     13  H       -1   0.596860          2.043100         -0.000020
     14     14  H       -1   0.831760         -2.288990         -0.000150
     15     15  H       -1  -1.521480         -2.296390         -0.000090
     16         X        8   1.000000(    15)      5   90.000(    34)      4    0.000(    52)      0
     17         X       16   1.000000(    16)      8   90.000(    35)      5    0.000(    53)      0
     18     16  H        8   2.336613(    17)     16   90.000(    36)     17  180.000(    54)      0
     19         X       18   1.000000(    18)      8   90.000(    37)     16    0.000(    55)      0
     20     17  O       18   0.957200(    19)     19   90.000(    38)      8  180.000(    56)      0
     21     18  H       20   0.957200(    20)     18  104.520(    39)     16  270.000(    57)      0
 ---------------------------------------------------------------------------------------------------
                         Z-Matrix orientation:                         
 ---------------------------------------------------------------------
 Center     Atomic      Atomic             Coordinates (Angstroms)
 Number     Number       Type             X           Y           Z
 ---------------------------------------------------------------------
      1          9           0       -1.969300    2.053680    0.000070
      2          6           0       -1.222250    0.944230    0.000030
      3          6           0        0.140030    1.057400   -0.000020
      4          6           0        0.927950   -0.123640   -0.000080
      5          6           0        2.414660   -0.018650   -0.000010
      6          9           0        3.007080   -1.234610   -0.000560
      7          9           0        2.858290    0.654480   -1.086020
      8          9           0        2.858270    0.653500    1.086650
      9          6           0        0.306540   -1.341490   -0.000090
     10          7           0       -1.054170   -1.389970   -0.000060
     11          6           0       -1.930500   -0.312100    0.000000
     12         16           0       -3.570980   -0.506610    0.000030
     13          1           0        0.596860    2.043100   -0.000020
     14          1           0        0.831760   -2.288990   -0.000150
     15          1           0       -1.521480   -2.296390   -0.000090
     16         -1           0        1.915537    0.771037    1.398802
     17         -1           0        1.587558    0.274088    0.595390
     18          1           0        3.624630    1.814676    2.963914
     19         -1           0        2.681897    1.932212    3.276067
     20          8           0        3.938572    2.290355    3.732941
     21          1           0        3.961043    3.206315    3.455913
 ---------------------------------------------------------------------
                    Distance matrix (angstroms):
                    1          2          3          4          5
     1  F    0.000000
     2  C    1.337521   0.000000
     3  C    2.332777   1.366973   0.000000
     4  C    3.624194   2.400772   1.419744   0.000000
     5  C    4.849088   3.762214   2.516312   1.490413   0.000000
     6  F    5.964663   4.757581   3.670597   2.357337   1.352598
     7  F    5.142274   4.232525   2.954772   2.347541   1.352527
     8  F    5.142625   4.232719   2.955134   2.347566   1.352555
     9  C    4.087374   2.749857   2.404662   1.367227   2.488790
    10  N    3.563171   2.340244   2.723184   2.352104   3.730054
    11  C    2.366098   1.442215   2.482463   2.864656   4.355058
    12  S    3.020011   2.760701   4.027123   4.515201   6.005497
    13  H    2.566182   2.125247   1.086415   2.191890   2.748674
    14  H    5.167661   3.830492   3.417136   2.167485   2.767673
    15  H    4.373060   3.254406   3.742796   3.274225   4.547669
    16  X    4.323608   3.439806   2.278406   1.932006   1.682084
    17  X    4.021516   2.949332   1.750265   0.973578   1.060328
    18  H    6.335105   5.747568   4.636897   4.451338   3.689168
    19  X    5.690390   5.191425   4.237821   4.246881   3.822297
    20  O    6.992374   6.510051   5.466635   5.369046   4.646368
    21  H    6.959913   6.627721   5.582244   5.677336   4.973440
                    6          7          8          9         10
     6  F    0.000000
     7  F    2.183809   0.000000
     8  F    2.183834   2.172670   0.000000
     9  C    2.702654   3.416807   3.416477   0.000000
    10  N    4.064221   4.546034   4.545756   1.361573   0.000000
    11  C    5.023019   5.004620   5.004549   2.462517   1.389157
    12  S    6.618222   6.622926   6.622828   3.966382   2.667332
    13  H    4.068482   2.867355   2.868068   3.397019   3.809445
    14  H    2.417382   3.734964   3.734451   1.083334   2.089251
    15  H    4.651369   5.391592   5.391203   2.062399   1.019792
    16  X    2.678115   2.660209   1.000000   3.001423   3.930130
    17  X    2.155544   2.141634   1.414214   2.146088   3.178423
    18  H    4.297397   4.281974   2.336613   5.454945   6.398912
    19  X    4.568456   4.548793   2.541605   5.205060   5.977299
    20  O    5.218437   5.202449   3.293813   6.349604   7.239306
    21  H    5.707807   5.325137   3.653270   6.780994   7.630330
                   11         12         13         14         15
    11  C    0.000000
    12  S    1.651971   0.000000
    13  H    3.454637   4.885889   0.000000
    14  H    3.396789   4.749842   4.338454   0.000000
    15  H    2.026007   2.720986   4.828927   2.353252   0.000000
    16  X    4.233419   5.804379   2.305159   3.534884   4.814467
    17  X    3.615914   5.251138   2.113148   2.737749   4.077753
    18  H    6.645859   8.120947   4.243168   5.781511   7.222786
    19  X    6.086358   7.468517   3.884896   5.654658   6.803136
    20  O    7.426549   8.840306   5.016291   6.675226   8.048970
    21  H    7.683284   9.080766   4.961277   7.206605   8.501869
                   16         17         18         19         20
    16  X    0.000000
    17  X    1.000000   0.000000
    18  H    2.541605   3.483243   0.000000
    19  X    2.336613   3.336613   1.000000   0.000000
    20  O    3.442267   4.408722   0.957200   1.384280   0.000000
    21  H    3.787661   4.734340   1.513901   1.814358   0.957200
                   21
    21  H    0.000000
 Symmetry turned off by external request.
 Stoichiometry    C6H5F4NOS
 Framework group  C1[X(C6H5F4NOS)]
 Deg. of freedom    48
 Full point group                 C1      NOp   1
 Rotational constants (GHZ):      0.9987578      0.3180011      0.2786815
 Standard basis: 6-31G(d) (6D, 7F)
 Integral buffers will be    131072 words long.
 Raffenetti 1 integral format.
 Two-electron integral symmetry is turned off.
   209 basis functions,   408 primitive gaussians,   209 cartesian basis functions
    54 alpha electrons       54 beta electrons
       nuclear repulsion energy       903.7565387348 Hartrees.
 NAtoms=   18 NActive=   18 NUniq=   18 SFac= 7.50D-01 NAtFMM=   80 NAOKFM=F Big=F
 One-electron integrals computed using PRISM.
 NBasis=   209 RedAO= T  NBF=   209
 NBsUse=   209 1.00D-06 NBFU=   209
 Initial guess read from the read-write file.
 B after Tr=     0.000000    0.000000    0.000000
         Rot=    1.000000    0.000000    0.000000    0.000000 Ang=   0.00 deg.
 Requested convergence on RMS density matrix=1.00D-08 within 128 cycles.
 Requested convergence on MAX density matrix=1.00D-06.
 Requested convergence on             energy=1.00D-06.
 No special actions if energy rises.
 SCF Done:  E(RHF) =  -1154.67427605     A.U. after    5 cycles
             Convg  =    0.6608D-08             -V/T =  2.0019
 Calling FoFJK, ICntrl=      2127 FMM=F ISym2X=0 I1Cent= 0 IOpClX= 0 NMat=1 NMatS=1 NMatT=0.
 -------------------------------------------------------------------
 Center     Atomic                   Forces (Hartrees/Bohr)
 Number     Number              X              Y              Z
 -------------------------------------------------------------------
      1        9           0.000000000    0.000000000    0.000000000
      2        6           0.000000000    0.000000000    0.000000000
      3        6           0.000000000    0.000000000    0.000000000
      4        6           0.000000000    0.000000000    0.000000000
      5        6           0.000000000    0.000000000    0.000000000
      6        9           0.000000000    0.000000000    0.000000000
      7        9           0.000000000    0.000000000    0.000000000
      8        9           0.000000000    0.000000000    0.000000000
      9        6           0.000000000    0.000000000    0.000000000
     10        7           0.000000000    0.000000000    0.000000000
     11        6           0.000000000    0.000000000    0.000000000
     12       16           0.000000000    0.000000000    0.000000000
     13        1           0.000000000    0.000000000    0.000000000
     14        1           0.000000000    0.000000000    0.000000000
     15        1           0.000000000    0.000000000    0.000000000
     16        1           0.004055919    0.003963381    0.009258557
     17        8          -0.004183098    0.005752643   -0.013428138
     18        1           0.000375739   -0.009820103    0.004288022
 -------------------------------------------------------------------
 Cartesian Forces:  Max     0.013428138 RMS     0.002930518
 -----------------------------------------------------------------------------------------------
                       Internal Coordinate Forces (Hartree/Bohr or radian)
  Cent   Atom   N1       Length/X         N2         Alpha/Y        N3         Beta/Z          J
 -----------------------------------------------------------------------------------------------
      1  F 
      2  C 
      3  C 
      4  C 
      5  C 
      6  F 
      7  F 
      8  F 
      9  C 
     10  N 
     11  C 
     12  S 
     13  H 
     14  H 
     15  H 
         X        8   0.000000(     1)      5   0.000536(     7)      4  -0.000298(    13)     0
         X       16   0.000000(     2)      8   0.000000(     8)      5  -0.000780(    14)     0
     16  H        8   0.000125(     3)     16   0.000536(     9)     17   0.000780(    15)     0
         X       18   0.000000(     4)      8  -0.000390(    10)     16   0.000000(    16)     0
     17  O       18  -0.010613(     5)     19  -0.000390(    11)      8  -0.000642(    17)     0
     18  H       20  -0.010629(     6)     18   0.002528(    12)     16  -0.000298(    18)     0
 -----------------------------------------------------------------------------------------------
 Internal  Forces:  Max     0.010629209 RMS     0.003611060

 GradGradGradGradGradGradGradGradGradGradGradGradGradGradGradGradGradGrad
 Berny optimization.
 Search for a local minimum.
 Step number   2 out of a maximum of   20
 All quantities printed in internal units (Hartrees-Bohrs-Radians)
 Update second derivatives using D2CorN and points    1    2
 DE= -6.98D-07 DEPred=-3.66D-07 R= 1.91D+00
 Trust test= 1.91D+00 RLast= 5.31D-03 DXMaxT set to 3.00D-01
 The second derivative matrix:
                          RX       RDUM       ROH      ADUM      AHOH
           RX           0.00243
           RDUM         0.00000   0.00000
           ROH         -0.00008   0.00000   1.12160
           ADUM        -0.00012   0.00000   0.00000   2.14546
           AHOH         0.00023   0.00000   0.00000   0.00000   0.16000
           DDUM        -0.00017   0.00000   0.00000   0.08002   0.00000
           DH1          0.00010   0.00000   0.00000  -0.08002   0.00000
           DOH2        -0.00008   0.00000   0.00000  -0.12502   0.00000
           DH2         -0.00007   0.00000   0.00000   0.00000   0.00000
                         DDUM       DH1      DOH2       DH2
           DDUM         0.18244
           DH1         -0.18244   0.18244
           DOH2         0.00000   0.00000   0.28507
           DH2          0.00000   0.00000   0.00000   0.00000
     Eigenvalues ---    0.002431000.000001000.000001000.000001000.00000
     Eigenvalues --- 1000.000001000.000001000.000001000.00000
 RFO step:  Lambda= 0.00000000D+00 EMin= 2.43358502D-03
 Quartic linear search produced a step of  2.00000.
 Variable       Old X    -DE/DX   Delta X   Delta X   Delta X     New X
                                 (Linear)    (Quad)   (Total)
    RX        4.41556   0.00012   0.01063   0.00000   0.01063   4.42619
   RDUM       1.88973   0.00000   0.00000   0.00000   0.00000   1.88973
   ROH        1.80885  -0.02124   0.00000   0.00000   0.00000   1.80885
   ADUM       1.57080   0.00029   0.00000   0.00000   0.00000   1.57080
   AHOH       1.82422   0.00253   0.00000   0.00000   0.00000   1.82422
   DDUM       0.00000  -0.00108   0.00000   0.00000   0.00000   0.00000
   DH1        3.14159   0.00078   0.00000   0.00000   0.00000   3.14159
   DOH2       3.14159  -0.00064   0.00000   0.00000   0.00000   3.14159
   DH2        4.71239  -0.00030   0.00000   0.00000   0.00000   4.71239
         Item               Value     Threshold  Converged?
 Maximum Force            0.000125     0.000450     YES
 RMS     Force            0.000125     0.000300     YES
 Maximum Displacement     0.010630     0.001800     NO 
 RMS     Displacement     0.003543     0.001200     NO 
 Predicted change in Energy=-1.190778D-06
 GradGradGradGradGradGradGradGradGradGradGradGradGradGradGradGradGradGrad

 ---------------------------------------------------------------------------------------------------
                            Z-MATRIX (ANGSTROMS AND DEGREES)
   CD    Cent   Atom    N1       Length/X        N2       Alpha/Y        N3        Beta/Z          J
 ---------------------------------------------------------------------------------------------------
      1      1  F       -1  -1.969300          2.053680          0.000070
      2      2  C       -1  -1.222250          0.944230          0.000030
      3      3  C       -1   0.140030          1.057400         -0.000020
      4      4  C       -1   0.927950         -0.123640         -0.000080
      5      5  C       -1   2.414660         -0.018650         -0.000010
      6      6  F       -1   3.007080         -1.234610         -0.000560
      7      7  F       -1   2.858290          0.654480         -1.086020
      8      8  F       -1   2.858270          0.653500          1.086650
      9      9  C       -1   0.306540         -1.341490         -0.000090
     10     10  N       -1  -1.054170         -1.389970         -0.000060
     11     11  C       -1  -1.930500         -0.312100          0.000000
     12     12  S       -1  -3.570980         -0.506610          0.000030
     13     13  H       -1   0.596860          2.043100         -0.000020
     14     14  H       -1   0.831760         -2.288990         -0.000150
     15     15  H       -1  -1.521480         -2.296390         -0.000090
     16         X        8   1.000000(    15)      5   90.000(    34)      4    0.000(    52)      0
     17         X       16   1.000000(    16)      8   90.000(    35)      5    0.000(    53)      0
     18     16  H        8   2.342238(    17)     16   90.000(    36)     17  180.000(    54)      0
     19         X       18   1.000000(    18)      8   90.000(    37)     16    0.000(    55)      0
     20     17  O       18   0.957200(    19)     19   90.000(    38)      8  180.000(    56)      0
     21     18  H       20   0.957200(    20)     18  104.520(    39)     16  270.000(    57)      0
 ---------------------------------------------------------------------------------------------------
                         Z-Matrix orientation:                         
 ---------------------------------------------------------------------
 Center     Atomic      Atomic             Coordinates (Angstroms)
 Number     Number       Type             X           Y           Z
 ---------------------------------------------------------------------
      1          9           0       -1.969300    2.053680    0.000070
      2          6           0       -1.222250    0.944230    0.000030
      3          6           0        0.140030    1.057400   -0.000020
      4          6           0        0.927950   -0.123640   -0.000080
      5          6           0        2.414660   -0.018650   -0.000010
      6          9           0        3.007080   -1.234610   -0.000560
      7          9           0        2.858290    0.654480   -1.086020
      8          9           0        2.858270    0.653500    1.086650
      9          6           0        0.306540   -1.341490   -0.000090
     10          7           0       -1.054170   -1.389970   -0.000060
     11          6           0       -1.930500   -0.312100    0.000000
     12         16           0       -3.570980   -0.506610    0.000030
     13          1           0        0.596860    2.043100   -0.000020
     14          1           0        0.831760   -2.288990   -0.000150
     15          1           0       -1.521480   -2.296390   -0.000090
     16         -1           0        1.915537    0.771037    1.398802
     17         -1           0        1.587558    0.274088    0.595390
     18          1           0        3.626475    1.817471    2.968433
     19         -1           0        2.683742    1.935008    3.280586
     20          8           0        3.940417    2.293150    3.737460
     21          1           0        3.962888    3.209110    3.460432
 ---------------------------------------------------------------------
                    Distance matrix (angstroms):
                    1          2          3          4          5
     1  F    0.000000
     2  C    1.337521   0.000000
     3  C    2.332777   1.366973   0.000000
     4  C    3.624194   2.400772   1.419744   0.000000
     5  C    4.849088   3.762214   2.516312   1.490413   0.000000
     6  F    5.964663   4.757581   3.670597   2.357337   1.352598
     7  F    5.142274   4.232525   2.954772   2.347541   1.352527
     8  F    5.142625   4.232719   2.955134   2.347566   1.352555
     9  C    4.087374   2.749857   2.404662   1.367227   2.488790
    10  N    3.563171   2.340244   2.723184   2.352104   3.730054
    11  C    2.366098   1.442215   2.482463   2.864656   4.355058
    12  S    3.020011   2.760701   4.027123   4.515201   6.005497
    13  H    2.566182   2.125247   1.086415   2.191890   2.748674
    14  H    5.167661   3.830492   3.417136   2.167485   2.767673
    15  H    4.373060   3.254406   3.742796   3.274225   4.547669
    16  X    4.323608   3.439806   2.278406   1.932006   1.682084
    17  X    4.021516   2.949332   1.750265   0.973578   1.060328
    18  H    6.338744   5.751878   4.641629   4.456683   3.694793
    19  X    5.694442   5.196197   4.242999   4.252482   3.827727
    20  O    6.996441   6.514683   5.471634   5.374480   4.651993
    21  H    6.964193   6.632475   5.587381   5.682712   4.978966
                    6          7          8          9         10
     6  F    0.000000
     7  F    2.183809   0.000000
     8  F    2.183834   2.172670   0.000000
     9  C    2.702654   3.416807   3.416477   0.000000
    10  N    4.064221   4.546034   4.545756   1.361573   0.000000
    11  C    5.023019   5.004620   5.004549   2.462517   1.389157
    12  S    6.618222   6.622926   6.622828   3.966382   2.667332
    13  H    4.068482   2.867355   2.868068   3.397019   3.809445
    14  H    2.417382   3.734964   3.734451   1.083334   2.089251
    15  H    4.651369   5.391592   5.391203   2.062399   1.019792
    16  X    2.678115   2.660209   1.000000   3.001423   3.930130
    17  X    2.155544   2.141634   1.414214   2.146088   3.178423
    18  H    4.302763   4.287336   2.342238   5.460141   6.403754
    19  X    4.573504   4.553841   2.546778   5.210505   5.982483
    20  O    5.223888   5.207898   3.299438   6.354915   7.244331
    21  H    5.713028   5.330713   3.658711   6.786166   7.635274
                   11         12         13         14         15
    11  C    0.000000
    12  S    1.651971   0.000000
    13  H    3.454637   4.885889   0.000000
    14  H    3.396789   4.749842   4.338454   0.000000
    15  H    2.026007   2.720986   4.828927   2.353252   0.000000
    16  X    4.233419   5.804379   2.305159   3.534884   4.814467
    17  X    3.615914   5.251138   2.113148   2.737749   4.077753
    18  H    6.650312   8.125031   4.247493   5.786704   7.227546
    19  X    6.091220   7.472957   3.889619   5.659967   6.808190
    20  O    7.431258   8.844666   5.021021   6.680530   8.053911
    21  H    7.688012   9.085160   4.966332   7.211705   8.506705
                   16         17         18         19         20
    16  X    0.000000
    17  X    1.000000   0.000000
    18  H    2.546778   3.488632   0.000000
    19  X    2.342238   3.342238   1.000000   0.000000
    20  O    3.447650   4.414200   0.957200   1.384280   0.000000
    21  H    3.792910   4.739727   1.513901   1.814358   0.957200
                   21
    21  H    0.000000
 Symmetry turned off by external request.
 Stoichiometry    C6H5F4NOS
 Framework group  C1[X(C6H5F4NOS)]
 Deg. of freedom    48
 Full point group                 C1      NOp   1
 Rotational constants (GHZ):      0.9977867      0.3178850      0.2785401
 Standard basis: 6-31G(d) (6D, 7F)
 Integral buffers will be    131072 words long.
 Raffenetti 1 integral format.
 Two-electron integral symmetry is turned off.
   209 basis functions,   408 primitive gaussians,   209 cartesian basis functions
    54 alpha electrons       54 beta electrons
       nuclear repulsion energy       903.6650047136 Hartrees.
 NAtoms=   18 NActive=   18 NUniq=   18 SFac= 7.50D-01 NAtFMM=   80 NAOKFM=F Big=F
 One-electron integrals computed using PRISM.
 NBasis=   209 RedAO= T  NBF=   209
 NBsUse=   209 1.00D-06 NBFU=   209
 Initial guess read from the read-write file.
 B after Tr=     0.000000    0.000000    0.000000
         Rot=    1.000000    0.000000    0.000000    0.000000 Ang=   0.00 deg.
 Requested convergence on RMS density matrix=1.00D-08 within 128 cycles.
 Requested convergence on MAX density matrix=1.00D-06.
 Requested convergence on             energy=1.00D-06.
 No special actions if energy rises.
 SCF Done:  E(RHF) =  -1154.67427724     A.U. after    6 cycles
             Convg  =    0.4327D-08             -V/T =  2.0019
 Calling FoFJK, ICntrl=      2127 FMM=F ISym2X=0 I1Cent= 0 IOpClX= 0 NMat=1 NMatS=1 NMatT=0.
 -------------------------------------------------------------------
 Center     Atomic                   Forces (Hartrees/Bohr)
 Number     Number              X              Y              Z
 -------------------------------------------------------------------
      1        9           0.000000000    0.000000000    0.000000000
      2        6           0.000000000    0.000000000    0.000000000
      3        6           0.000000000    0.000000000    0.000000000
      4        6           0.000000000    0.000000000    0.000000000
      5        6           0.000000000    0.000000000    0.000000000
      6        9           0.000000000    0.000000000    0.000000000
      7        9           0.000000000    0.000000000    0.000000000
      8        9           0.000000000    0.000000000    0.000000000
      9        6           0.000000000    0.000000000    0.000000000
     10        7           0.000000000    0.000000000    0.000000000
     11        6           0.000000000    0.000000000    0.000000000
     12       16           0.000000000    0.000000000    0.000000000
     13        1           0.000000000    0.000000000    0.000000000
     14        1           0.000000000    0.000000000    0.000000000
     15        1           0.000000000    0.000000000    0.000000000
     16        1           0.004045359    0.003953951    0.009236778
     17        8          -0.004180200    0.005749479   -0.013424330
     18        1           0.000374127   -0.009819256    0.004285465
 -------------------------------------------------------------------
 Cartesian Forces:  Max     0.013424330 RMS     0.002928098
 -----------------------------------------------------------------------------------------------
                       Internal Coordinate Forces (Hartree/Bohr or radian)
  Cent   Atom   N1       Length/X         N2         Alpha/Y        N3         Beta/Z          J
 -----------------------------------------------------------------------------------------------
      1  F 
      2  C 
      3  C 
      4  C 
      5  C 
      6  F 
      7  F 
      8  F 
      9  C 
     10  N 
     11  C 
     12  S 
     13  H 
     14  H 
     15  H 
         X        8   0.000000(     1)      5   0.000535(     7)      4  -0.000296(    13)     0
         X       16   0.000000(     2)      8   0.000000(     8)      5  -0.000778(    14)     0
     16  H        8   0.000100(     3)     16   0.000535(     9)     17   0.000778(    15)     0
         X       18   0.000000(     4)      8  -0.000388(    10)     16   0.000000(    16)     0
     17  O       18  -0.010613(     5)     19  -0.000388(    11)      8  -0.000640(    17)     0
     18  H       20  -0.010628(     6)     18   0.002524(    12)     16  -0.000296(    18)     0
 -----------------------------------------------------------------------------------------------
 Internal  Forces:  Max     0.010627696 RMS     0.003610435

 GradGradGradGradGradGradGradGradGradGradGradGradGradGradGradGradGradGrad
 Berny optimization.
 Search for a local minimum.
 Step number   3 out of a maximum of   20
 All quantities printed in internal units (Hartrees-Bohrs-Radians)
 Update second derivatives using D2CorN and points    2    3
 DE= -1.19D-06 DEPred=-1.19D-06 R= 1.00D+00
 SS=  1.41D+00  RLast= 1.06D-02 DXNew= 5.0454D-01 3.1889D-02
 Trust test= 1.00D+00 RLast= 1.06D-02 DXMaxT set to 3.00D-01
 The second derivative matrix:
                          RX       RDUM       ROH      ADUM      AHOH
           RX           0.00239
           RDUM         0.00000   0.00000
           ROH         -0.00012   0.00000   1.12160
           ADUM        -0.00017   0.00000   0.00000   2.14546
           AHOH         0.00034   0.00000   0.00000   0.00000   0.16000
           DDUM        -0.00024   0.00000   0.00000   0.08002   0.00000
           DH1          0.00014   0.00000   0.00000  -0.08002   0.00000
           DOH2        -0.00013   0.00000   0.00000  -0.12502   0.00000
           DH2         -0.00010   0.00000   0.00000   0.00000   0.00000
                         DDUM       DH1      DOH2       DH2
           DDUM         0.18244
           DH1         -0.18244   0.18244
           DOH2         0.00000   0.00000   0.28507
           DH2          0.00000   0.00000   0.00000   0.00000
     Eigenvalues ---    0.002391000.000001000.000001000.000001000.00000
     Eigenvalues --- 1000.000001000.000001000.000001000.00000
 RFO step:  Lambda= 0.00000000D+00 EMin= 2.38695262D-03
 Quartic linear search produced a step of  2.00000.
 Variable       Old X    -DE/DX   Delta X   Delta X   Delta X     New X
                                 (Linear)    (Quad)   (Total)
    RX        4.42619   0.00010   0.02126   0.00000   0.02126   4.44745
   RDUM       1.88973   0.00000   0.00000   0.00000   0.00000   1.88973
   ROH        1.80885  -0.02124   0.00000   0.00000   0.00000   1.80885
   ADUM       1.57080   0.00029   0.00000   0.00000   0.00000   1.57080
   AHOH       1.82422   0.00252   0.00000   0.00000   0.00000   1.82422
   DDUM       0.00000  -0.00107   0.00000   0.00000   0.00000   0.00000
   DH1        3.14159   0.00078   0.00000   0.00000   0.00000   3.14159
   DOH2       3.14159  -0.00064   0.00000   0.00000   0.00000   3.14159
   DH2        4.71239  -0.00030   0.00000   0.00000   0.00000   4.71239
         Item               Value     Threshold  Converged?
 Maximum Force            0.000100     0.000450     YES
 RMS     Force            0.000100     0.000300     YES
 Maximum Displacement     0.021259     0.001800     NO 
 RMS     Displacement     0.007086     0.001200     NO 
 Predicted change in Energy=-1.577715D-06
 GradGradGradGradGradGradGradGradGradGradGradGradGradGradGradGradGradGrad

 ---------------------------------------------------------------------------------------------------
                            Z-MATRIX (ANGSTROMS AND DEGREES)
   CD    Cent   Atom    N1       Length/X        N2       Alpha/Y        N3        Beta/Z          J
 ---------------------------------------------------------------------------------------------------
      1      1  F       -1  -1.969300          2.053680          0.000070
      2      2  C       -1  -1.222250          0.944230          0.000030
      3      3  C       -1   0.140030          1.057400         -0.000020
      4      4  C       -1   0.927950         -0.123640         -0.000080
      5      5  C       -1   2.414660         -0.018650         -0.000010
      6      6  F       -1   3.007080         -1.234610         -0.000560
      7      7  F       -1   2.858290          0.654480         -1.086020
      8      8  F       -1   2.858270          0.653500          1.086650
      9      9  C       -1   0.306540         -1.341490         -0.000090
     10     10  N       -1  -1.054170         -1.389970         -0.000060
     11     11  C       -1  -1.930500         -0.312100          0.000000
     12     12  S       -1  -3.570980         -0.506610          0.000030
     13     13  H       -1   0.596860          2.043100         -0.000020
     14     14  H       -1   0.831760         -2.288990         -0.000150
     15     15  H       -1  -1.521480         -2.296390         -0.000090
     16         X        8   1.000000(    15)      5   90.000(    34)      4    0.000(    52)      0
     17         X       16   1.000000(    16)      8   90.000(    35)      5    0.000(    53)      0
     18     16  H        8   2.353488(    17)     16   90.000(    36)     17  180.000(    54)      0
     19         X       18   1.000000(    18)      8   90.000(    37)     16    0.000(    55)      0
     20     17  O       18   0.957200(    19)     19   90.000(    38)      8  180.000(    56)      0
     21     18  H       20   0.957200(    20)     18  104.520(    39)     16  270.000(    57)      0
 ---------------------------------------------------------------------------------------------------
                         Z-Matrix orientation:                         
 ---------------------------------------------------------------------
 Center     Atomic      Atomic             Coordinates (Angstroms)
 Number     Number       Type             X           Y           Z
 ---------------------------------------------------------------------
      1          9           0       -1.969300    2.053680    0.000070
      2          6           0       -1.222250    0.944230    0.000030
      3          6           0        0.140030    1.057400   -0.000020
      4          6           0        0.927950   -0.123640   -0.000080
      5          6           0        2.414660   -0.018650   -0.000010
      6          9           0        3.007080   -1.234610   -0.000560
      7          9           0        2.858290    0.654480   -1.086020
      8          9           0        2.858270    0.653500    1.086650
      9          6           0        0.306540   -1.341490   -0.000090
     10          7           0       -1.054170   -1.389970   -0.000060
     11          6           0       -1.930500   -0.312100    0.000000
     12         16           0       -3.570980   -0.506610    0.000030
     13          1           0        0.596860    2.043100   -0.000020
     14          1           0        0.831760   -2.288990   -0.000150
     15          1           0       -1.521480   -2.296390   -0.000090
     16         -1           0        1.915537    0.771037    1.398802
     17         -1           0        1.587558    0.274088    0.595390
     18          1           0        3.630165    1.823062    2.977472
     19         -1           0        2.687432    1.940598    3.289624
     20          8           0        3.944107    2.298741    3.746498
     21          1           0        3.966578    3.214701    3.469471
 ---------------------------------------------------------------------
                    Distance matrix (angstroms):
                    1          2          3          4          5
     1  F    0.000000
     2  C    1.337521   0.000000
     3  C    2.332777   1.366973   0.000000
     4  C    3.624194   2.400772   1.419744   0.000000
     5  C    4.849088   3.762214   2.516312   1.490413   0.000000
     6  F    5.964663   4.757581   3.670597   2.357337   1.352598
     7  F    5.142274   4.232525   2.954772   2.347541   1.352527
     8  F    5.142625   4.232719   2.955134   2.347566   1.352555
     9  C    4.087374   2.749857   2.404662   1.367227   2.488790
    10  N    3.563171   2.340244   2.723184   2.352104   3.730054
    11  C    2.366098   1.442215   2.482463   2.864656   4.355058
    12  S    3.020011   2.760701   4.027123   4.515201   6.005497
    13  H    2.566182   2.125247   1.086415   2.191890   2.748674
    14  H    5.167661   3.830492   3.417136   2.167485   2.767673
    15  H    4.373060   3.254406   3.742796   3.274225   4.547669
    16  X    4.323608   3.439806   2.278406   1.932006   1.682084
    17  X    4.021516   2.949332   1.750265   0.973578   1.060328
    18  H    6.346031   5.760507   4.651101   4.467374   3.706043
    19  X    5.702553   5.205746   4.253358   4.263685   3.838587
    20  O    7.004581   6.523953   5.481635   5.385349   4.663243
    21  H    6.972758   6.641987   5.597658   5.693466   4.990020
                    6          7          8          9         10
     6  F    0.000000
     7  F    2.183809   0.000000
     8  F    2.183834   2.172670   0.000000
     9  C    2.702654   3.416807   3.416477   0.000000
    10  N    4.064221   4.546034   4.545756   1.361573   0.000000
    11  C    5.023019   5.004620   5.004549   2.462517   1.389157
    12  S    6.618222   6.622926   6.622828   3.966382   2.667332
    13  H    4.068482   2.867355   2.868068   3.397019   3.809445
    14  H    2.417382   3.734964   3.734451   1.083334   2.089251
    15  H    4.651369   5.391592   5.391203   2.062399   1.019792
    16  X    2.678115   2.660209   1.000000   3.001423   3.930130
    17  X    2.155544   2.141634   1.414214   2.146088   3.178423
    18  H    4.313498   4.298062   2.353488   5.470534   6.413444
    19  X    4.583605   4.563941   2.557128   5.221395   5.992853
    20  O    5.234791   5.218795   3.310688   6.365540   7.254382
    21  H    5.723470   5.341866   3.669595   6.796514   7.645165
                   11         12         13         14         15
    11  C    0.000000
    12  S    1.651971   0.000000
    13  H    3.454637   4.885889   0.000000
    14  H    3.396789   4.749842   4.338454   0.000000
    15  H    2.026007   2.720986   4.828927   2.353252   0.000000
    16  X    4.233419   5.804379   2.305159   3.534884   4.814467
    17  X    3.615914   5.251138   2.113148   2.737749   4.077753
    18  H    6.659223   8.133205   4.256150   5.797092   7.237071
    19  X    6.100948   7.481843   3.899071   5.670586   6.818301
    20  O    7.440682   8.853392   5.030488   6.691140   8.063795
    21  H    7.697472   9.093951   4.976446   7.221908   8.516381
                   16         17         18         19         20
    16  X    0.000000
    17  X    1.000000   0.000000
    18  H    2.557128   3.499411   0.000000
    19  X    2.353488   3.353488   1.000000   0.000000
    20  O    3.458418   4.425158   0.957200   1.384280   0.000000
    21  H    3.803410   4.750503   1.513901   1.814358   0.957200
                   21
    21  H    0.000000
 Symmetry turned off by external request.
 Stoichiometry    C6H5F4NOS
 Framework group  C1[X(C6H5F4NOS)]
 Deg. of freedom    48
 Full point group                 C1      NOp   1
 Rotational constants (GHZ):      0.9958491      0.3176527      0.2782572
 Standard basis: 6-31G(d) (6D, 7F)
 Integral buffers will be    131072 words long.
 Raffenetti 1 integral format.
 Two-electron integral symmetry is turned off.
   209 basis functions,   408 primitive gaussians,   209 cartesian basis functions
    54 alpha electrons       54 beta electrons
       nuclear repulsion energy       903.4825515891 Hartrees.
 NAtoms=   18 NActive=   18 NUniq=   18 SFac= 7.50D-01 NAtFMM=   80 NAOKFM=F Big=F
 One-electron integrals computed using PRISM.
 NBasis=   209 RedAO= T  NBF=   209
 NBsUse=   209 1.00D-06 NBFU=   209
 Initial guess read from the read-write file.
 B after Tr=     0.000000    0.000000    0.000000
         Rot=    1.000000    0.000000    0.000000    0.000000 Ang=   0.00 deg.
 Harris functional with IExCor=  205 diagonalized for initial guess.
 ExpMin= 1.17D-01 ExpMax= 2.19D+04 ExpMxC= 3.30D+03 IAcc=1 IRadAn=         1 AccDes= 0.00D+00
 HarFok:  IExCor=  205 AccDes= 0.00D+00 IRadAn=         1 IDoV= 1
 ScaDFX=  1.000000  1.000000  1.000000  1.000000
 FoFCou: FMM=F IPFlag=           0 FMFlag=      100000 FMFlg1=           0
         NFxFlg=           0 DoJE=T BraDBF=F KetDBF=T FulRan=T
         Omega=  0.000000  0.000000  1.000000  0.000000  0.000000 ICntrl=     500 IOpCl=  0
         NMat0=    1 NMatS0=    1 NMatT0=    0 NMatD0=    1 NMtDS0=    0 NMtDT0=    0
         I1Cent=           4 NGrid=           0.
 Symmetry not used in FoFCou.
 Requested convergence on RMS density matrix=1.00D-08 within 128 cycles.
 Requested convergence on MAX density matrix=1.00D-06.
 Requested convergence on             energy=1.00D-06.
 No special actions if energy rises.
 Integral accuracy reduced to 1.0D-05 until final iterations.
 Initial convergence to 1.0D-05 achieved.  Increase integral accuracy.
 SCF Done:  E(RHF) =  -1154.67427884     A.U. after    6 cycles
             Convg  =    0.9031D-08             -V/T =  2.0019
 Calling FoFJK, ICntrl=      2127 FMM=F ISym2X=0 I1Cent= 0 IOpClX= 0 NMat=1 NMatS=1 NMatT=0.
 -------------------------------------------------------------------
 Center     Atomic                   Forces (Hartrees/Bohr)
 Number     Number              X              Y              Z
 -------------------------------------------------------------------
      1        9           0.000000000    0.000000000    0.000000000
      2        6           0.000000000    0.000000000    0.000000000
      3        6           0.000000000    0.000000000    0.000000000
      4        6           0.000000000    0.000000000    0.000000000
      5        6           0.000000000    0.000000000    0.000000000
      6        9           0.000000000    0.000000000    0.000000000
      7        9           0.000000000    0.000000000    0.000000000
      8        9           0.000000000    0.000000000    0.000000000
      9        6           0.000000000    0.000000000    0.000000000
     10        7           0.000000000    0.000000000    0.000000000
     11        6           0.000000000    0.000000000    0.000000000
     12       16           0.000000000    0.000000000    0.000000000
     13        1           0.000000000    0.000000000    0.000000000
     14        1           0.000000000    0.000000000    0.000000000
     15        1           0.000000000    0.000000000    0.000000000
     16        1           0.004024902    0.003935902    0.009194842
     17        8          -0.004174477    0.005743274   -0.013416930
     18        1           0.000370955   -0.009817554    0.004280479
 -------------------------------------------------------------------
 Cartesian Forces:  Max     0.013416930 RMS     0.002923425
 -----------------------------------------------------------------------------------------------
                       Internal Coordinate Forces (Hartree/Bohr or radian)
  Cent   Atom   N1       Length/X         N2         Alpha/Y        N3         Beta/Z          J
 -----------------------------------------------------------------------------------------------
      1  F 
      2  C 
      3  C 
      4  C 
      5  C 
      6  F 
      7  F 
      8  F 
      9  C 
     10  N 
     11  C 
     12  S 
     13  H 
     14  H 
     15  H 
         X        8   0.000000(     1)      5   0.000534(     7)      4  -0.000293(    13)     0
         X       16   0.000000(     2)      8   0.000000(     8)      5  -0.000774(    14)     0
     16  H        8   0.000051(     3)     16   0.000534(     9)     17   0.000774(    15)     0
         X       18   0.000000(     4)      8  -0.000385(    10)     16   0.000000(    16)     0
     17  O       18  -0.010613(     5)     19  -0.000385(    11)      8  -0.000637(    17)     0
     18  H       20  -0.010625(     6)     18   0.002514(    12)     16  -0.000293(    18)     0
 -----------------------------------------------------------------------------------------------
 Internal  Forces:  Max     0.010624698 RMS     0.003609233

 GradGradGradGradGradGradGradGradGradGradGradGradGradGradGradGradGradGrad
 Berny optimization.
 Search for a local minimum.
 Step number   4 out of a maximum of   20
 All quantities printed in internal units (Hartrees-Bohrs-Radians)
 Update second derivatives using D2CorN and points    3    4
 DE= -1.59D-06 DEPred=-1.58D-06 R= 1.01D+00
 SS=  1.41D+00  RLast= 2.13D-02 DXNew= 5.0454D-01 6.3778D-02
 Trust test= 1.01D+00 RLast= 2.13D-02 DXMaxT set to 3.00D-01
 The second derivative matrix:
                          RX       RDUM       ROH      ADUM      AHOH
           RX           0.00230
           RDUM         0.00000   0.00000
           ROH         -0.00015   0.00000   1.12160
           ADUM        -0.00020   0.00000   0.00000   2.14546
           AHOH         0.00039   0.00000   0.00000   0.00000   0.16000
           DDUM        -0.00028   0.00000   0.00000   0.08002   0.00000
           DH1          0.00016   0.00000   0.00000  -0.08002   0.00000
           DOH2        -0.00015   0.00000   0.00000  -0.12502   0.00000
           DH2         -0.00012   0.00000   0.00000   0.00000   0.00000
                         DDUM       DH1      DOH2       DH2
           DDUM         0.18244
           DH1         -0.18244   0.18244
           DOH2         0.00000   0.00000   0.28507
           DH2          0.00000   0.00000   0.00000   0.00000
     Eigenvalues ---    0.002301000.000001000.000001000.000001000.00000
     Eigenvalues --- 1000.000001000.000001000.000001000.00000
 RFO step:  Lambda= 0.00000000D+00 EMin= 2.29697175D-03
 Quartic linear search produced a step of  1.09745.
 Variable       Old X    -DE/DX   Delta X   Delta X   Delta X     New X
                                 (Linear)    (Quad)   (Total)
    RX        4.44745   0.00005   0.02333   0.00000   0.02333   4.47078
   RDUM       1.88973   0.00000   0.00000   0.00000   0.00000   1.88973
   ROH        1.80885  -0.02124   0.00000   0.00000   0.00000   1.80885
   ADUM       1.57080   0.00030   0.00000   0.00000   0.00000   1.57080
   AHOH       1.82422   0.00251   0.00000   0.00000   0.00000   1.82422
   DDUM       0.00000  -0.00107   0.00000   0.00000   0.00000   0.00000
   DH1        3.14159   0.00077   0.00000   0.00000   0.00000   3.14159
   DOH2       3.14159  -0.00064   0.00000   0.00000   0.00000   3.14159
   DH2        4.71239  -0.00029   0.00000   0.00000   0.00000   4.71239
         Item               Value     Threshold  Converged?
 Maximum Force            0.000051     0.000450     YES
 RMS     Force            0.000051     0.000300     YES
 Maximum Displacement     0.023331     0.001800     NO 
 RMS     Displacement     0.007777     0.001200     NO 
 Predicted change in Energy=-5.589522D-07
 GradGradGradGradGradGradGradGradGradGradGradGradGradGradGradGradGradGrad

 ---------------------------------------------------------------------------------------------------
                            Z-MATRIX (ANGSTROMS AND DEGREES)
   CD    Cent   Atom    N1       Length/X        N2       Alpha/Y        N3        Beta/Z          J
 ---------------------------------------------------------------------------------------------------
      1      1  F       -1  -1.969300          2.053680          0.000070
      2      2  C       -1  -1.222250          0.944230          0.000030
      3      3  C       -1   0.140030          1.057400         -0.000020
      4      4  C       -1   0.927950         -0.123640         -0.000080
      5      5  C       -1   2.414660         -0.018650         -0.000010
      6      6  F       -1   3.007080         -1.234610         -0.000560
      7      7  F       -1   2.858290          0.654480         -1.086020
      8      8  F       -1   2.858270          0.653500          1.086650
      9      9  C       -1   0.306540         -1.341490         -0.000090
     10     10  N       -1  -1.054170         -1.389970         -0.000060
     11     11  C       -1  -1.930500         -0.312100          0.000000
     12     12  S       -1  -3.570980         -0.506610          0.000030
     13     13  H       -1   0.596860          2.043100         -0.000020
     14     14  H       -1   0.831760         -2.288990         -0.000150
     15     15  H       -1  -1.521480         -2.296390         -0.000090
     16         X        8   1.000000(    15)      5   90.000(    34)      4    0.000(    52)      0
     17         X       16   1.000000(    16)      8   90.000(    35)      5    0.000(    53)      0
     18     16  H        8   2.365834(    17)     16   90.000(    36)     17  180.000(    54)      0
     19         X       18   1.000000(    18)      8   90.000(    37)     16    0.000(    55)      0
     20     17  O       18   0.957200(    19)     19   90.000(    38)      8  180.000(    56)      0
[...]
 !       DH1       180.0      -DE/DX =    0.0008                        !
 !      DOH2       180.0      -DE/DX =   -0.0006                        !
 !       DH2       270.0      -DE/DX =   -0.0003                        !
 ------------------------------------------------------------------------
 GradGradGradGradGradGradGradGradGradGradGradGradGradGradGradGradGradGrad

 ---------------------------------------------------------------------------------------------------
                            Z-MATRIX (ANGSTROMS AND DEGREES)
   CD    Cent   Atom    N1       Length/X        N2       Alpha/Y        N3        Beta/Z          J
 ---------------------------------------------------------------------------------------------------
      1      1  F       -1  -1.969300          2.053680          0.000070
      2      2  C       -1  -1.222250          0.944230          0.000030
      3      3  C       -1   0.140030          1.057400         -0.000020
      4      4  C       -1   0.927950         -0.123640         -0.000080
      5      5  C       -1   2.414660         -0.018650         -0.000010
      6      6  F       -1   3.007080         -1.234610         -0.000560
      7      7  F       -1   2.858290          0.654480         -1.086020
      8      8  F       -1   2.858270          0.653500          1.086650
      9      9  C       -1   0.306540         -1.341490         -0.000090
     10     10  N       -1  -1.054170         -1.389970         -0.000060
     11     11  C       -1  -1.930500         -0.312100          0.000000
     12     12  S       -1  -3.570980         -0.506610          0.000030
     13     13  H       -1   0.596860          2.043100         -0.000020
     14     14  H       -1   0.831760         -2.288990         -0.000150
     15     15  H       -1  -1.521480         -2.296390         -0.000090
     16         X        8   1.000000(    15)      5   90.000(    34)      4    0.000(    52)      0
     17         X       16   1.000000(    16)      8   90.000(    35)      5    0.000(    53)      0
     18     16  H        8   2.365834(    17)     16   90.000(    36)     17  180.000(    54)      0
     19         X       18   1.000000(    18)      8   90.000(    37)     16    0.000(    55)      0
     20     17  O       18   0.957200(    19)     19   90.000(    38)      8  180.000(    56)      0
     21     18  H       20   0.957200(    20)     18  104.520(    39)     16  270.000(    57)      0
 ---------------------------------------------------------------------------------------------------
                         Z-Matrix orientation:                         
 ---------------------------------------------------------------------
 Center     Atomic      Atomic             Coordinates (Angstroms)
 Number     Number       Type             X           Y           Z
 ---------------------------------------------------------------------
      1          9           0       -1.969300    2.053680    0.000070
      2          6           0       -1.222250    0.944230    0.000030
      3          6           0        0.140030    1.057400   -0.000020
      4          6           0        0.927950   -0.123640   -0.000080
      5          6           0        2.414660   -0.018650   -0.000010
      6          9           0        3.007080   -1.234610   -0.000560
      7          9           0        2.858290    0.654480   -1.086020
      8          9           0        2.858270    0.653500    1.086650
      9          6           0        0.306540   -1.341490   -0.000090
     10          7           0       -1.054170   -1.389970   -0.000060
     11          6           0       -1.930500   -0.312100    0.000000
     12         16           0       -3.570980   -0.506610    0.000030
     13          1           0        0.596860    2.043100   -0.000020
     14          1           0        0.831760   -2.288990   -0.000150
     15          1           0       -1.521480   -2.296390   -0.000090
     16         -1           0        1.915537    0.771037    1.398802
     17         -1           0        1.587558    0.274088    0.595390
     18          1           0        3.634214    1.829197    2.987391
     19         -1           0        2.691481    1.946734    3.299543
     20          8           0        3.948156    2.304876    3.756418
     21          1           0        3.970627    3.220836    3.479390
 ---------------------------------------------------------------------
                    Distance matrix (angstroms):
                    1          2          3          4          5
     1  F    0.000000
     2  C    1.337521   0.000000
     3  C    2.332777   1.366973   0.000000
     4  C    3.624194   2.400772   1.419744   0.000000
     5  C    4.849088   3.762214   2.516312   1.490413   0.000000
     6  F    5.964663   4.757581   3.670597   2.357337   1.352598
     7  F    5.142274   4.232525   2.954772   2.347541   1.352527
     8  F    5.142625   4.232719   2.955134   2.347566   1.352555
     9  C    4.087374   2.749857   2.404662   1.367227   2.488790
    10  N    3.563171   2.340244   2.723184   2.352104   3.730054
    11  C    2.366098   1.442215   2.482463   2.864656   4.355058
    12  S    3.020011   2.760701   4.027123   4.515201   6.005497
    13  H    2.566182   2.125247   1.086415   2.191890   2.748674
    14  H    5.167661   3.830492   3.417136   2.167485   2.767673
    15  H    4.373060   3.254406   3.742796   3.274225   4.547669
    16  X    4.323608   3.439806   2.278406   1.932006   1.682084
    17  X    4.021516   2.949332   1.750265   0.973578   1.060328
    18  H    6.354042   5.769986   4.661504   4.479110   3.718389
    19  X    5.711466   5.216234   4.264732   4.275980   3.850509
    20  O    7.013525   6.534134   5.492617   5.397278   4.675589
    21  H    6.982167   6.652432   5.608941   5.705271   5.002152
                    6          7          8          9         10
     6  F    0.000000
     7  F    2.183809   0.000000
     8  F    2.183834   2.172670   0.000000
     9  C    2.702654   3.416807   3.416477   0.000000
    10  N    4.064221   4.546034   4.545756   1.361573   0.000000
    11  C    5.023019   5.004620   5.004549   2.462517   1.389157
    12  S    6.618222   6.622926   6.622828   3.966382   2.667332
    13  H    4.068482   2.867355   2.868068   3.397019   3.809445
    14  H    2.417382   3.734964   3.734451   1.083334   2.089251
    15  H    4.651369   5.391592   5.391203   2.062399   1.019792
    16  X    2.678115   2.660209   1.000000   3.001423   3.930130
    17  X    2.155544   2.141634   1.414214   2.146088   3.178423
    18  H    4.325282   4.309837   2.365834   5.481945   6.424083
    19  X    4.594696   4.575031   2.568496   5.233349   6.004238
    20  O    5.246758   5.230757   3.323034   6.377202   7.265417
    21  H    5.734934   5.354105   3.681543   6.807873   7.656023
                   11         12         13         14         15
    11  C    0.000000
    12  S    1.651971   0.000000
    13  H    3.454637   4.885889   0.000000
    14  H    3.396789   4.749842   4.338454   0.000000
    15  H    2.026007   2.720986   4.828927   2.353252   0.000000
    16  X    4.233419   5.804379   2.305159   3.534884   4.814467
    17  X    3.615914   5.251138   2.113148   2.737749   4.077753
    18  H    6.669011   8.142183   4.265665   5.808495   7.247530
    19  X    6.111630   7.491602   3.909456   5.682244   6.829401
    20  O    7.451029   8.862974   5.040886   6.702785   8.074647
    21  H    7.707859   9.103606   4.987550   7.233109   8.527004
                   16         17         18         19         20
    16  X    0.000000
    17  X    1.000000   0.000000
    18  H    2.568496   3.511244   0.000000
    19  X    2.365834   3.365834   1.000000   0.000000
    20  O    3.470238   4.437186   0.957200   1.384280   0.000000
    21  H    3.814939   4.762331   1.513901   1.814358   0.957200
                   21
    21  H    0.000000
 Symmetry turned off by external request.
 Stoichiometry    C6H5F4NOS
 Framework group  C1[X(C6H5F4NOS)]
 Deg. of freedom    48
 Full point group                 C1      NOp   1
 Rotational constants (GHZ):      0.9937297      0.3173976      0.2779465

 **********************************************************************

            Population analysis using the SCF density.

 **********************************************************************

 Alpha  occ. eigenvalues --  -91.90732 -26.37445 -26.37325 -26.36591 -26.33726
 Alpha  occ. eigenvalues --  -20.55711 -15.68993 -11.54997 -11.38098 -11.37504
 Alpha  occ. eigenvalues --  -11.36503 -11.31578 -11.30713  -8.91819  -6.60146
 Alpha  occ. eigenvalues --   -6.59871  -6.59744  -1.74967  -1.65947  -1.65347
 Alpha  occ. eigenvalues --   -1.64976  -1.35831  -1.33904  -1.17533  -1.12368
 Alpha  occ. eigenvalues --   -1.03511  -0.97670  -0.93063  -0.88604  -0.85391
 Alpha  occ. eigenvalues --   -0.84533  -0.84269  -0.77415  -0.76277  -0.74208
 Alpha  occ. eigenvalues --   -0.73183  -0.72362  -0.71598  -0.70620  -0.70430
 Alpha  occ. eigenvalues --   -0.68483  -0.68237  -0.67021  -0.64442  -0.62807
 Alpha  occ. eigenvalues --   -0.61169  -0.59822  -0.56824  -0.52841  -0.49516
 Alpha  occ. eigenvalues --   -0.46944  -0.43547  -0.34352  -0.31252
 Alpha virt. eigenvalues --    0.04183   0.08374   0.17415   0.21484   0.24101
 Alpha virt. eigenvalues --    0.24955   0.26140   0.26241   0.29179   0.31267
 Alpha virt. eigenvalues --    0.33592   0.35073   0.38949   0.40841   0.42215
 Alpha virt. eigenvalues --    0.43708   0.46385   0.49167   0.53845   0.55206
 Alpha virt. eigenvalues --    0.56474   0.59463   0.60941   0.64054   0.66334
 Alpha virt. eigenvalues --    0.67378   0.71570   0.72732   0.73212   0.75032
 Alpha virt. eigenvalues --    0.76862   0.77572   0.82613   0.84187   0.87184
 Alpha virt. eigenvalues --    0.88723   0.89511   0.91864   0.95363   0.99509
 Alpha virt. eigenvalues --    1.01891   1.02362   1.02573   1.04274   1.07178
 Alpha virt. eigenvalues --    1.08957   1.09513   1.12452   1.13312   1.14957
 Alpha virt. eigenvalues --    1.15770   1.17006   1.17269   1.18184   1.24132
 Alpha virt. eigenvalues --    1.28023   1.29035   1.30965   1.32650   1.33882
 Alpha virt. eigenvalues --    1.34445   1.36783   1.40910   1.41753   1.42060
 Alpha virt. eigenvalues --    1.44488   1.47079   1.51719   1.59559   1.60013
 Alpha virt. eigenvalues --    1.60897   1.62781   1.63203   1.63895   1.64634
 Alpha virt. eigenvalues --    1.65635   1.67078   1.69307   1.69750   1.71621
 Alpha virt. eigenvalues --    1.73249   1.75927   1.76672   1.80933   1.86168
 Alpha virt. eigenvalues --    1.91137   1.91914   1.93286   1.99427   2.02318
 Alpha virt. eigenvalues --    2.03633   2.04038   2.05483   2.07026   2.08589
 Alpha virt. eigenvalues --    2.09715   2.11388   2.12185   2.17670   2.19913
 Alpha virt. eigenvalues --    2.22014   2.22105   2.24153   2.27970   2.29297
 Alpha virt. eigenvalues --    2.29918   2.32332   2.33360   2.34159   2.35299
 Alpha virt. eigenvalues --    2.37524   2.38773   2.42883   2.44573   2.45295
 Alpha virt. eigenvalues --    2.46623   2.51878   2.60305   2.61607   2.63537
 Alpha virt. eigenvalues --    2.65056   2.67771   2.74725   2.82466   2.84183
 Alpha virt. eigenvalues --    2.84262   2.90859   2.92501   2.92940   2.94993
 Alpha virt. eigenvalues --    2.99828   3.06661   3.09164   3.16792   3.21680
 Alpha virt. eigenvalues --    3.29115   3.37187   3.38421   3.42568   3.44804
 Alpha virt. eigenvalues --    3.49124   3.70845   4.02174   4.36082   4.39799
 Alpha virt. eigenvalues --    4.44714   4.47918   4.59758   4.63809   4.72508
 Alpha virt. eigenvalues --    4.81700   5.02541   5.16381   5.57448   6.02527
          Condensed to atoms (all electrons):
              1          2          3          4          5          6
     1  F    9.159241   0.267928  -0.033732   0.002213  -0.000015   0.000000
     2  C    0.267928   4.574308   0.570363  -0.026156   0.000801  -0.000019
     3  C   -0.033732   0.570363   5.068332   0.352568  -0.012415   0.002180
     4  C    0.002213  -0.026156   0.352568   5.206394   0.419049  -0.045266
     5  C   -0.000015   0.000801  -0.012415   0.419049   3.551970   0.290900
     6  F    0.000000  -0.000019   0.002180  -0.045266   0.290900   9.183164
     7  F    0.000000   0.000294   0.005099  -0.055548   0.285668  -0.030739
     8  F    0.000000   0.000293   0.005130  -0.054339   0.273802  -0.030193
     9  C    0.000133  -0.023086  -0.054394   0.592312  -0.020997   0.005361
    10  N    0.001382  -0.053257  -0.021258  -0.035648   0.001231   0.000237
    11  C   -0.040723   0.377431  -0.079098  -0.001325   0.000082   0.000002
    12  S    0.003490  -0.083466   0.001602  -0.000046   0.000006   0.000000
    13  H   -0.000276  -0.016829   0.368949  -0.031089  -0.000257   0.000035
    14  H    0.000000  -0.000112   0.001794  -0.022691  -0.000145   0.004956
    15  H   -0.000018   0.003850  -0.000568   0.002342  -0.000016   0.000001
    16  H    0.000000   0.000000   0.000007   0.000067   0.000076   0.000011
    17  O    0.000000   0.000000   0.000000  -0.000003   0.000010   0.000000
    18  H    0.000000   0.000000   0.000000   0.000000   0.000000   0.000000
              7          8          9         10         11         12
     1  F    0.000000   0.000000   0.000133   0.001382  -0.040723   0.003490
     2  C    0.000294   0.000293  -0.023086  -0.053257   0.377431  -0.083466
     3  C    0.005099   0.005130  -0.054394  -0.021258  -0.079098   0.001602
     4  C   -0.055548  -0.054339   0.592312  -0.035648  -0.001325  -0.000046
     5  C    0.285668   0.273802  -0.020997   0.001231   0.000082   0.000006
     6  F   -0.030739  -0.030193   0.005361   0.000237   0.000002   0.000000
     7  F    9.198633  -0.033512   0.000513  -0.000006  -0.000002   0.000000
     8  F   -0.033512   9.210155   0.000484  -0.000005  -0.000002   0.000000
     9  C    0.000513   0.000484   4.730982   0.267042  -0.038395   0.003298
    10  N   -0.000006  -0.000005   0.267042   7.234929   0.211636  -0.104368
    11  C   -0.000002  -0.000002  -0.038395   0.211636   4.956068   0.447436
    12  S    0.000000   0.000000   0.003298  -0.104368   0.447436  15.944017
    13  H    0.000903   0.000894   0.002423  -0.000263   0.002650  -0.000057
    14  H    0.000083   0.000082   0.379804  -0.031820   0.000957  -0.000131
    15  H    0.000000   0.000000  -0.021453   0.309789  -0.017813   0.013692
    16  H    0.000012   0.008405   0.000000   0.000000   0.000000   0.000000
    17  O    0.000000  -0.000711   0.000000   0.000000   0.000000   0.000000
    18  H    0.000000  -0.000022   0.000000   0.000000   0.000000   0.000000
             13         14         15         16         17         18
     1  F   -0.000276   0.000000  -0.000018   0.000000   0.000000   0.000000
     2  C   -0.016829  -0.000112   0.003850   0.000000   0.000000   0.000000
     3  C    0.368949   0.001794  -0.000568   0.000007   0.000000   0.000000
     4  C   -0.031089  -0.022691   0.002342   0.000067  -0.000003   0.000000
     5  C   -0.000257  -0.000145  -0.000016   0.000076   0.000010   0.000000
     6  F    0.000035   0.004956   0.000001   0.000011   0.000000   0.000000
     7  F    0.000903   0.000083   0.000000   0.000012   0.000000   0.000000
     8  F    0.000894   0.000082   0.000000   0.008405  -0.000711  -0.000022
     9  C    0.002423   0.379804  -0.021453   0.000000   0.000000   0.000000
    10  N   -0.000263  -0.031820   0.309789   0.000000   0.000000   0.000000
    11  C    0.002650   0.000957  -0.017813   0.000000   0.000000   0.000000
    12  S   -0.000057  -0.000131   0.013692   0.000000   0.000000   0.000000
    13  H    0.396622  -0.000063   0.000008   0.000003   0.000000   0.000000
    14  H   -0.000063   0.379826  -0.002111   0.000000   0.000000   0.000000
    15  H    0.000008  -0.002111   0.269636   0.000000   0.000000   0.000000
    16  H    0.000003   0.000000   0.000000   0.309983   0.262127  -0.018511
    17  O    0.000000   0.000000   0.000000   0.262127   8.350632   0.265436
    18  H    0.000000   0.000000   0.000000  -0.018511   0.265436   0.322377
 Mulliken atomic charges:
              1
     1  F   -0.359624
     2  C    0.407658
     3  C   -0.174559
     4  C   -0.302834
     5  C    1.210251
     6  F   -0.380631
     7  F   -0.371399
     8  F   -0.380460
     9  C    0.175972
    10  N   -0.779621
    11  C    0.181095
    12  S   -0.225473
    13  H    0.276345
    14  H    0.289570
    15  H    0.442660
    16  H    0.437819
    17  O   -0.877490
    18  H    0.430721
 Sum of Mulliken atomic charges =   0.00000
 Mulliken charges with hydrogens summed into heavy atoms:
              1
     1  F   -0.359624
     2  C    0.407658
     3  C    0.101787
     4  C   -0.302834
     5  C    1.210251
     6  F   -0.380631
     7  F   -0.371399
     8  F   -0.380460
     9  C    0.465543
    10  N   -0.336961
    11  C    0.181095
    12  S   -0.225473
    17  O   -0.008950
 Sum of Mulliken charges with hydrogens summed into heavy atoms =   0.00000
 Electronic spatial extent (au):  <R**2>=           3883.6689
 Charge=              0.0000 electrons
 Dipole moment (field-independent basis, Debye):
    X=              2.7212    Y=             -2.0088    Z=             -2.1582  Tot=              4.0122
 Quadrupole moment (field-independent basis, Debye-Ang):
   XX=           -110.3161   YY=            -65.3386   ZZ=            -96.1425
   XY=              4.0114   XZ=             -9.9289   YZ=             -1.4506
 Traceless Quadrupole moment (field-independent basis, Debye-Ang):
   XX=            -19.7171   YY=             25.2605   ZZ=             -5.5434
   XY=              4.0114   XZ=             -9.9289   YZ=             -1.4506
 Octapole moment (field-independent basis, Debye-Ang**2):
  XXX=             -8.6417  YYY=            -25.5499  ZZZ=           -147.5531  XYY=             18.6768
  XXY=             -7.7082  XXZ=            -70.6225  XZZ=            -69.1624  YZZ=            -30.1419
  YYZ=            -12.1946  XYZ=             -7.4946
 Hexadecapole moment (field-independent basis, Debye-Ang**3):
 XXXX=          -3463.2470 YYYY=           -544.0225 ZZZZ=          -1032.8582 XXXY=           -225.0741
 XXXZ=           -505.2189 YYYX=            -68.1656 YYYZ=            -84.8607 ZZZX=           -588.4719
 ZZZY=           -288.4725 XXYY=           -569.3190 XXZZ=           -893.1543 YYZZ=           -225.7168
 XXYZ=            -97.5282 YYXZ=            -48.8199 ZZXY=           -155.6443
 N-N= 9.032832560116D+02 E-N=-4.543998818304D+03  KE= 1.152538999803D+03
 1\1\GINC-B1\FOpt\RHF\6-31G(d)\C6H5F4N1O1S1\ANA\24-Sep-2021\1\\#HF/6-31
 G* Opt=Z-matrix NoSymm\\water interaction with atom F8\\0,1\F,-1,-1.96
 93,2.05368,0.00007\C,-1,-1.22225,0.94423,0.00003\C,-1,0.14003,1.0574,-
 0.00002\C,-1,0.92795,-0.12364,-0.00008\C,-1,2.41466,-0.01865,-0.00001\
 F,-1,3.00708,-1.23461,-0.00056\F,-1,2.85829,0.65448,-1.08602\F,-1,2.85
 827,0.6535,1.08665\C,-1,0.30654,-1.34149,-0.00009\N,-1,-1.05417,-1.389
 97,-0.00006\C,-1,-1.9305,-0.3121,0.\S,-1,-3.57098,-0.50661,0.00003\H,-
 1,0.59686,2.0431,-0.00002\H,-1,0.83176,-2.28899,-0.00015\H,-1,-1.52148
 ,-2.29639,-0.00009\X,8,RDUM,5,ADUM,4,DDUM,0\X,16,RDUM,8,ADUM,5,DDUM,0\
 H,8,RX,16,ADUM,17,DH1,0\X,18,RDUM,8,ADUM,16,DDUM,0\O,18,ROH,19,ADUM,8,
 DOH2,0\H,20,ROH,18,AHOH,16,DH2,0\\RX=2.36583379\RDUM=1.\ROH=0.9572\ADU
 M=90.\AHOH=104.52\DDUM=0.\DH1=180.\DOH2=180.\DH2=270.\\Version=EM64L-G
 09RevA.01\HF=-1154.6742794\RMSD=9.991e-09\RMSF=2.919e-03\Dipole=1.0706
 126,-0.7903144,-0.8490908\Quadrupole=-14.6591571,18.7805522,-4.1213951
 ,2.9824038,-7.3818593,-1.0784957\PG=C01 [X(C6H5F4N1O1S1)]\\@


 LOGIC IS A SYSTEMATIC METHOD OF COMING TO THE
 WRONG CONCLUSION WITH CONFIDENCE.
 Job cpu time:  0 days  0 hours  4 minutes 16.0 seconds.
 File lengths (MBytes):  RWF=     33 Int=      0 D2E=      0 Chk=      3 Scr=      1
 Normal termination of Gaussian 09 at Fri Sep 24 08:14:41 2021.
