 Entering Gaussian System, Link 0=g09
 Initial command:
 /home/ana/programs/g09/l1.exe /home/ana/programs/g09/scratch/Gau-702438.inp -scrdir=/home/ana/programs/g09/scratch/
 Entering Link 1 = /home/ana/programs/g09/l1.exe PID=    702440.
  
 Copyright (c) 1988,1990,1992,1993,1995,1998,2003,2009, Gaussian, Inc.
                  All Rights Reserved.
  
 This is part of the Gaussian(R) 09 program.  It is based on
 the Gaussian(R) 03 system (copyright 2003, Gaussian, Inc.),
 the Gaussian(R) 98 system (copyright 1998, Gaussian, Inc.),
 the Gaussian(R) 94 system (copyright 1995, Gaussian, Inc.),
 the Gaussian 92(TM) system (copyright 1992, Gaussian, Inc.),
 the Gaussian 90(TM) system (copyright 1990, Gaussian, Inc.),
 the Gaussian 88(TM) system (copyright 1988, Gaussian, Inc.),
 the Gaussian 86(TM) system (copyright 1986, Carnegie Mellon
 University), and the Gaussian 82(TM) system (copyright 1983,
 Carnegie Mellon University). Gaussian is a federally registered
 trademark of Gaussian, Inc.
  
 This software contains proprietary and confidential information,
 including trade secrets, belonging to Gaussian, Inc.
  
 This software is provided under written license and may be
 used, copied, transmitted, or stored only in accord with that
 written license.
  
 The following legend is applicable only to US Government
 contracts under FAR:
  
                    RESTRICTED RIGHTS LEGEND
  
 Use, reproduction and disclosure by the US Government is
 subject to restrictions as set forth in subparagraphs (a)
 and (c) of the Commercial Computer Software - Restricted
 Rights clause in FAR 52.227-19.
  
 Gaussian, Inc.
 340 Quinnipiac St., Bldg. 40, Wallingford CT 06492
  
  
 ---------------------------------------------------------------
 Warning -- This program may not be used in any manner that
 competes with the business of Gaussian, Inc. or will provide
 assistance to any competitor of Gaussian, Inc.  The licensee
 of this program is prohibited from giving any competitor of
 Gaussian, Inc. access to this program.  By using this program,
 the user acknowledges that Gaussian, Inc. is engaged in the
 business of creating and licensing software in the field of
 computational chemistry and represents and warrants to the
 licensee that it is not a competitor of Gaussian, Inc. and that
 it will not use this program in any manner prohibited above.
 ---------------------------------------------------------------
  

 Cite this work as:
 Gaussian 09, Revision A.01,
 M. J. Frisch, G. W. Trucks, H. B. Schlegel, G. E. Scuseria, 
 M. A. Robb, J. R. Cheeseman, G. Scalmani, V. Barone, B. Mennucci, 
 G. A. Petersson, H. Nakatsuji, M. Caricato, X. Li, H. P. Hratchian, 
 A. F. Izmaylov, J. Bloino, G. Zheng, J. L. Sonnenberg, M. Hada, 
 M. Ehara, K. Toyota, R. Fukuda, J. Hasegawa, M. Ishida, T. Nakajima, 
 Y. Honda, O. Kitao, H. Nakai, T. Vreven, J. A. Montgomery, Jr., 
 J. E. Peralta, F. Ogliaro, M. Bearpark, J. J. Heyd, E. Brothers, 
 K. N. Kudin, V. N. Staroverov, R. Kobayashi, J. Normand, 
 K. Raghavachari, A. Rendell, J. C. Burant, S. S. Iyengar, J. Tomasi, 
 M. Cossi, N. Rega, J. M. Millam, M. Klene, J. E. Knox, J. B. Cross, 
 V. Bakken, C. Adamo, J. Jaramillo, R. Gomperts, R. E. Stratmann, 
 O. Yazyev, A. J. Austin, R. Cammi, C. Pomelli, J. W. Ochterski, 
 R. L. Martin, K. Morokuma, V. G. Zakrzewski, G. A. Voth, 
 P. Salvador, J. J. Dannenberg, S. Dapprich, A. D. Daniels, 
 O. Farkas, J. B. Foresman, J. V. Ortiz, J. Cioslowski, 
 and D. J. Fox, Gaussian, Inc., Wallingford CT, 2009.
 
 ******************************************
 Gaussian 09:  EM64L-G09RevA.01  8-May-2009
                24-Sep-2021 
 ******************************************
 %NPROC=4
 Will use up to    4 processors via shared memory.
 %NoSave
 ------------------------------
 #HF/6-31G* Opt=Z-matrix NoSymm
 ------------------------------
 1/10=7,18=40,38=1/1,3;
 2/12=2,15=1,17=6,18=5,29=3,40=1/2;
 3/5=1,6=6,7=1,11=9,16=1,25=1,30=1,71=1/1,2,3;
 4//1;
 5/5=2,38=5/2;
 6/7=2,8=2,9=2,10=2,28=1/1;
 7/29=1,30=1/1,2,3,16;
 1/10=7,18=40/3(2);
 2/15=1,29=3/2;
 99//99;
 2/15=1,29=3/2;
 3/5=1,6=6,7=1,11=9,16=1,25=1,30=1,71=1/1,2,3;
 4/5=5,16=3/1;
 5/5=2,38=5/2;
 7/30=1/1,2,3,16;
 1/18=40/3(-5);
 2/15=1,29=3/2;
 6/7=2,8=2,9=2,10=2,19=2,28=1/1;
 99/9=1/99;
 ------------------------------
 water interaction with atom F8
 ------------------------------
 Symbolic Z-matrix:
 Charge =  0 Multiplicity = 1
 9                    -1   -1.9693    2.05368   0.00007 
 6                    -1   -1.22225   0.94423   0.00003 
 6                    -1    0.14003   1.0574   -0.00002 
 6                    -1    0.92795  -0.12364  -0.00008 
 6                    -1    2.41466  -0.01865  -0.00001 
 9                    -1    3.00708  -1.23461  -0.00056 
 9                    -1    2.85829   0.65448  -1.08602 
 9                    -1    2.85827   0.6535    1.08665 
 6                    -1    0.30654  -1.34149  -0.00009 
 7                    -1   -1.05417  -1.38997  -0.00006 
 6                    -1   -1.9305   -0.3121    0. 
 16                   -1   -3.57098  -0.50661   0.00003 
 1                    -1    0.59686   2.0431   -0.00002 
 1                    -1    0.83176  -2.28899  -0.00015 
 1                    -1   -1.52148  -2.29639  -0.00009 
 X                    8    RDUM     5    ADUM     4    DDUM     0
 X                    16   RDUM     8    ADUM     5    DDUM     0
 H1                   8    RX       16   ADUM     17   DH1      0
 X                    18   RDUM     8    ADUM     16   DDUM     0
 OH2                  18   ROH      19   ADUM     8    DOH2     0
 H2                   20   ROH      18   AHOH     16   DH2      0
       Variables:
  RX                    2.3788                   
       Constants:
  RDUM                  1.                       
  ROH                   0.9572                   
  ADUM                 90.                       
  AHOH                104.52                     
  DDUM                  0.                       
  DH1                 180.                       
  DOH2                180.                       
  DH2                  90.                       
 

 GradGradGradGradGradGradGradGradGradGradGradGradGradGradGradGradGradGrad
 Berny optimization.
 Initialization pass.
                       ----------------------------
                       !    Initial Parameters    !
                       ! (Angstroms and Degrees)  !
 ----------------------                            ----------------------
 !      Name          Value   Derivative information (Atomic Units)     !
 ------------------------------------------------------------------------
 !       RX          2.3788   estimate D2E/DX2                          !
 !      RDUM         1.0      Frozen                                    !
 !       ROH         0.9572   Frozen                                    !
 !      ADUM        90.0      Frozen                                    !
 !      AHOH       104.52     Frozen                                    !
 !      DDUM         0.0      Frozen                                    !
 !       DH1       180.0      Frozen                                    !
 !      DOH2       180.0      Frozen                                    !
 !       DH2        90.0      Frozen                                    !
 ------------------------------------------------------------------------
 Trust Radius=3.00D-01 FncErr=1.00D-07 GrdErr=1.00D-07
 Number of steps in this run=  20 maximum allowed number of steps= 100.
 GradGradGradGradGradGradGradGradGradGradGradGradGradGradGradGradGradGrad

 ---------------------------------------------------------------------------------------------------
                            Z-MATRIX (ANGSTROMS AND DEGREES)
   CD    Cent   Atom    N1       Length/X        N2       Alpha/Y        N3        Beta/Z          J
 ---------------------------------------------------------------------------------------------------
      1      1  F       -1  -1.969300          2.053680          0.000070
      2      2  C       -1  -1.222250          0.944230          0.000030
      3      3  C       -1   0.140030          1.057400         -0.000020
      4      4  C       -1   0.927950         -0.123640         -0.000080
      5      5  C       -1   2.414660         -0.018650         -0.000010
      6      6  F       -1   3.007080         -1.234610         -0.000560
      7      7  F       -1   2.858290          0.654480         -1.086020
      8      8  F       -1   2.858270          0.653500          1.086650
      9      9  C       -1   0.306540         -1.341490         -0.000090
     10     10  N       -1  -1.054170         -1.389970         -0.000060
     11     11  C       -1  -1.930500         -0.312100          0.000000
     12     12  S       -1  -3.570980         -0.506610          0.000030
     13     13  H       -1   0.596860          2.043100         -0.000020
     14     14  H       -1   0.831760         -2.288990         -0.000150
     15     15  H       -1  -1.521480         -2.296390         -0.000090
     16         X        8   1.000000(    15)      5   90.000(    34)      4    0.000(    52)      0
     17         X       16   1.000000(    16)      8   90.000(    35)      5    0.000(    53)      0
     18     16  H        8   2.378800(    17)     16   90.000(    36)     17  180.000(    54)      0
     19         X       18   1.000000(    18)      8   90.000(    37)     16    0.000(    55)      0
     20     17  O       18   0.957200(    19)     19   90.000(    38)      8  180.000(    56)      0
     21     18  H       20   0.957200(    20)     18  104.520(    39)     16   90.000(    57)      0
 ---------------------------------------------------------------------------------------------------
                         Z-Matrix orientation:                         
 ---------------------------------------------------------------------
 Center     Atomic      Atomic             Coordinates (Angstroms)
 Number     Number       Type             X           Y           Z
 ---------------------------------------------------------------------
      1          9           0       -1.969300    2.053680    0.000070
      2          6           0       -1.222250    0.944230    0.000030
      3          6           0        0.140030    1.057400   -0.000020
      4          6           0        0.927950   -0.123640   -0.000080
      5          6           0        2.414660   -0.018650   -0.000010
      6          9           0        3.007080   -1.234610   -0.000560
      7          9           0        2.858290    0.654480   -1.086020
      8          9           0        2.858270    0.653500    1.086650
      9          6           0        0.306540   -1.341490   -0.000090
     10          7           0       -1.054170   -1.389970   -0.000060
     11          6           0       -1.930500   -0.312100    0.000000
     12         16           0       -3.570980   -0.506610    0.000030
     13          1           0        0.596860    2.043100   -0.000020
     14          1           0        0.831760   -2.288990   -0.000150
     15          1           0       -1.521480   -2.296390   -0.000090
     16         -1           0        1.915537    0.771037    1.398802
     17         -1           0        1.587558    0.274088    0.595390
     18          1           0        3.638467    1.835641    2.997808
     19         -1           0        2.695734    1.953177    3.309961
     20          8           0        3.952409    2.311320    3.766835
     21          1           0        4.087360    1.633882    4.429480
 ---------------------------------------------------------------------
                    Distance matrix (angstroms):
                    1          2          3          4          5
     1  F    0.000000
     2  C    1.337521   0.000000
     3  C    2.332777   1.366973   0.000000
     4  C    3.624194   2.400772   1.419744   0.000000
     5  C    4.849088   3.762214   2.516312   1.490413   0.000000
     6  F    5.964663   4.757581   3.670597   2.357337   1.352598
     7  F    5.142274   4.232525   2.954772   2.347541   1.352527
     8  F    5.142625   4.232719   2.955134   2.347566   1.352555
     9  C    4.087374   2.749857   2.404662   1.367227   2.488790
    10  N    3.563171   2.340244   2.723184   2.352104   3.730054
    11  C    2.366098   1.442215   2.482463   2.864656   4.355058
    12  S    3.020011   2.760701   4.027123   4.515201   6.005497
    13  H    2.566182   2.125247   1.086415   2.191890   2.748674
    14  H    5.167661   3.830492   3.417136   2.167485   2.767673
    15  H    4.373060   3.254406   3.742796   3.274225   4.547669
    16  X    4.323608   3.439806   2.278406   1.932006   1.682084
    17  X    4.021516   2.949332   1.750265   0.973578   1.060328
    18  H    6.362470   5.779953   4.672440   4.491438   3.731355
    19  X    5.720841   5.227257   4.276682   4.288892   3.863031
    20  O    7.022929   6.544833   5.504157   5.409808   4.688555
    21  H    7.515253   6.948928   5.961058   5.717670   5.014895
                    6          7          8          9         10
     6  F    0.000000
     7  F    2.183809   0.000000
     8  F    2.183834   2.172670   0.000000
     9  C    2.702654   3.416807   3.416477   0.000000
    10  N    4.064221   4.546034   4.545756   1.361573   0.000000
    11  C    5.023019   5.004620   5.004549   2.462517   1.389157
    12  S    6.618222   6.622926   6.622828   3.966382   2.667332
    13  H    4.068482   2.867355   2.868068   3.397019   3.809445
    14  H    2.417382   3.734964   3.734451   1.083334   2.089251
    15  H    4.651369   5.391592   5.391203   2.062399   1.019792
    16  X    2.678115   2.660209   1.000000   3.001423   3.930130
    17  X    2.155544   2.141634   1.414214   2.146088   3.178423
    18  H    4.337661   4.322207   2.378800   5.493932   6.435264
    19  X    4.606351   4.586686   2.580444   5.245905   6.016199
    20  O    5.259328   5.243321   3.336000   6.389452   7.277010
    21  H    5.387068   5.735031   3.694093   6.539765   7.429659
                   11         12         13         14         15
    11  C    0.000000
    12  S    1.651971   0.000000
    13  H    3.454637   4.885889   0.000000
    14  H    3.396789   4.749842   4.338454   0.000000
    15  H    2.026007   2.720986   4.828927   2.353252   0.000000
    16  X    4.233419   5.804379   2.305159   3.534884   4.814467
    17  X    3.615914   5.251138   2.113148   2.737749   4.077753
    18  H    6.679299   8.151622   4.275674   5.820476   7.258521
    19  X    6.122856   7.501860   3.920374   5.694490   6.841063
    20  O    7.461903   8.873045   5.051816   6.715018   8.086048
    21  H    7.721514   9.102302   5.654336   6.753479   8.156421
                   16         17         18         19         20
    16  X    0.000000
    17  X    1.000000   0.000000
    18  H    2.580444   3.523676   0.000000
    19  X    2.378800   3.378800   1.000000   0.000000
    20  O    3.482656   4.449820   0.957200   1.384280   0.000000
    21  H    3.827051   4.774756   1.513901   1.814358   0.957200
                   21
    21  H    0.000000
 Symmetry turned off by external request.
 Stoichiometry    C6H5F4NOS
 Framework group  C1[X(C6H5F4NOS)]
 Deg. of freedom    48
 Full point group                 C1      NOp   1
 Rotational constants (GHZ):      0.9917927      0.3161354      0.2781745
 Standard basis: 6-31G(d) (6D, 7F)
 Integral buffers will be    131072 words long.
 Raffenetti 1 integral format.
 Two-electron integral symmetry is turned off.
   209 basis functions,   408 primitive gaussians,   209 cartesian basis functions
    54 alpha electrons       54 beta electrons
       nuclear repulsion energy       903.0065440040 Hartrees.
 NAtoms=   18 NActive=   18 NUniq=   18 SFac= 7.50D-01 NAtFMM=   80 NAOKFM=F Big=F
 One-electron integrals computed using PRISM.
 NBasis=   209 RedAO= T  NBF=   209
 NBsUse=   209 1.00D-06 NBFU=   209
 Harris functional with IExCor=  205 diagonalized for initial guess.
 ExpMin= 1.17D-01 ExpMax= 2.19D+04 ExpMxC= 3.30D+03 IAcc=1 IRadAn=         1 AccDes= 0.00D+00
 HarFok:  IExCor=  205 AccDes= 0.00D+00 IRadAn=         1 IDoV= 1
 ScaDFX=  1.000000  1.000000  1.000000  1.000000
 FoFCou: FMM=F IPFlag=           0 FMFlag=      100000 FMFlg1=           0
         NFxFlg=           0 DoJE=T BraDBF=F KetDBF=T FulRan=T
         Omega=  0.000000  0.000000  1.000000  0.000000  0.000000 ICntrl=     500 IOpCl=  0
         NMat0=    1 NMatS0=    1 NMatT0=    0 NMatD0=    1 NMtDS0=    0 NMtDT0=    0
         I1Cent=           4 NGrid=           0.
 Symmetry not used in FoFCou.
 Requested convergence on RMS density matrix=1.00D-08 within 128 cycles.
 Requested convergence on MAX density matrix=1.00D-06.
 Requested convergence on             energy=1.00D-06.
 No special actions if energy rises.
 Integral accuracy reduced to 1.0D-05 until final iterations.
 Initial convergence to 1.0D-05 achieved.  Increase integral accuracy.
 SCF Done:  E(RHF) =  -1154.67432773     A.U. after   15 cycles
             Convg  =    0.5471D-08             -V/T =  2.0019

 **********************************************************************

            Population analysis using the SCF density.

 **********************************************************************

 Alpha  occ. eigenvalues --  -91.90706 -26.37535 -26.37316 -26.36487 -26.33609
 Alpha  occ. eigenvalues --  -20.55727 -15.68992 -11.54989 -11.38069 -11.37426
 Alpha  occ. eigenvalues --  -11.36507 -11.31468 -11.30710  -8.91793  -6.60120
 Alpha  occ. eigenvalues --   -6.59845  -6.59718  -1.74965  -1.65995  -1.65278
 Alpha  occ. eigenvalues --   -1.64855  -1.35828  -1.33917  -1.17499  -1.12333
 Alpha  occ. eigenvalues --   -1.03484  -0.97649  -0.93024  -0.88574  -0.85365
 Alpha  occ. eigenvalues --   -0.84547  -0.84231  -0.77381  -0.76234  -0.74168
 Alpha  occ. eigenvalues --   -0.73174  -0.72349  -0.71484  -0.70544  -0.70434
 Alpha  occ. eigenvalues --   -0.68490  -0.68224  -0.66995  -0.64359  -0.62804
 Alpha  occ. eigenvalues --   -0.61127  -0.59773  -0.56838  -0.52806  -0.49531
 Alpha  occ. eigenvalues --   -0.46901  -0.43512  -0.34326  -0.31229
 Alpha virt. eigenvalues --    0.04230   0.08378   0.17400   0.21501   0.24331
 Alpha virt. eigenvalues --    0.24911   0.26185   0.26243   0.29213   0.31281
 Alpha virt. eigenvalues --    0.33655   0.35103   0.38990   0.40856   0.42230
 Alpha virt. eigenvalues --    0.43659   0.46406   0.49229   0.53868   0.55237
 Alpha virt. eigenvalues --    0.56491   0.59494   0.60958   0.64099   0.66309
 Alpha virt. eigenvalues --    0.67386   0.71605   0.72752   0.73209   0.75104
 Alpha virt. eigenvalues --    0.76882   0.77629   0.82660   0.84200   0.87238
 Alpha virt. eigenvalues --    0.88776   0.89579   0.91870   0.95418   0.99509
 Alpha virt. eigenvalues --    1.01882   1.02346   1.02577   1.04415   1.07273
 Alpha virt. eigenvalues --    1.08982   1.09506   1.12412   1.13297   1.14977
 Alpha virt. eigenvalues --    1.15829   1.16992   1.17236   1.18189   1.24149
 Alpha virt. eigenvalues --    1.28044   1.28985   1.31020   1.32645   1.33893
 Alpha virt. eigenvalues --    1.34505   1.36855   1.40926   1.41771   1.42094
 Alpha virt. eigenvalues --    1.44427   1.47138   1.51816   1.59591   1.60087
 Alpha virt. eigenvalues --    1.60828   1.62817   1.63235   1.63924   1.64663
 Alpha virt. eigenvalues --    1.65672   1.67097   1.69402   1.69745   1.71668
 Alpha virt. eigenvalues --    1.72938   1.75957   1.76617   1.80941   1.86205
 Alpha virt. eigenvalues --    1.91092   1.91899   1.93306   1.99466   2.02302
 Alpha virt. eigenvalues --    2.03614   2.04080   2.05511   2.07014   2.08602
 Alpha virt. eigenvalues --    2.09837   2.11446   2.12168   2.17762   2.19984
 Alpha virt. eigenvalues --    2.22038   2.22129   2.24205   2.27938   2.29318
 Alpha virt. eigenvalues --    2.29961   2.32319   2.33393   2.34176   2.35357
 Alpha virt. eigenvalues --    2.37558   2.38810   2.42974   2.44611   2.45307
 Alpha virt. eigenvalues --    2.46630   2.51892   2.60356   2.61654   2.63446
 Alpha virt. eigenvalues --    2.65087   2.67777   2.74741   2.82509   2.84259
 Alpha virt. eigenvalues --    2.84292   2.90885   2.92537   2.92977   2.94961
 Alpha virt. eigenvalues --    2.99866   3.06661   3.09195   3.16835   3.21689
 Alpha virt. eigenvalues --    3.29136   3.37232   3.38364   3.42664   3.44805
 Alpha virt. eigenvalues --    3.49186   3.70885   4.02059   4.36093   4.39819
 Alpha virt. eigenvalues --    4.44757   4.47956   4.59795   4.63826   4.72447
 Alpha virt. eigenvalues --    4.81734   5.02531   5.16303   5.57521   6.02479
          Condensed to atoms (all electrons):
              1          2          3          4          5          6
     1  F    9.158232   0.268152  -0.033650   0.002211  -0.000015   0.000000
     2  C    0.268152   4.573781   0.570456  -0.026354   0.000783  -0.000019
     3  C   -0.033650   0.570456   5.069060   0.352966  -0.012575   0.002165
     4  C    0.002211  -0.026354   0.352966   5.206886   0.419540  -0.045334
     5  C   -0.000015   0.000783  -0.012575   0.419540   3.551706   0.289954
     6  F    0.000000  -0.000019   0.002165  -0.045334   0.289954   9.185648
     7  F    0.000000   0.000293   0.005060  -0.055484   0.286579  -0.030745
     8  F    0.000000   0.000290   0.005075  -0.054243   0.273806  -0.030223
     9  C    0.000133  -0.023040  -0.054388   0.591895  -0.021104   0.005403
    10  N    0.001382  -0.053308  -0.021147  -0.035831   0.001221   0.000237
    11  C   -0.040758   0.377684  -0.079386  -0.001171   0.000082   0.000002
    12  S    0.003529  -0.083382   0.001584  -0.000051   0.000006   0.000000
    13  H   -0.000283  -0.016624   0.368337  -0.030504  -0.000249   0.000034
    14  H    0.000000  -0.000114   0.001800  -0.022890  -0.000134   0.004964
    15  H   -0.000018   0.003858  -0.000574   0.002350  -0.000016   0.000001
    16  H    0.000000   0.000000   0.000008   0.000064   0.000076   0.000010
    17  O    0.000000   0.000000   0.000000  -0.000003   0.000009   0.000000
    18  H    0.000000   0.000000   0.000000   0.000000   0.000000   0.000000
              7          8          9         10         11         12
     1  F    0.000000   0.000000   0.000133   0.001382  -0.040758   0.003529
     2  C    0.000293   0.000290  -0.023040  -0.053308   0.377684  -0.083382
     3  C    0.005060   0.005075  -0.054388  -0.021147  -0.079386   0.001584
     4  C   -0.055484  -0.054243   0.591895  -0.035831  -0.001171  -0.000051
     5  C    0.286579   0.273806  -0.021104   0.001221   0.000082   0.000006
     6  F   -0.030745  -0.030223   0.005403   0.000237   0.000002   0.000000
     7  F    9.196191  -0.033472   0.000504  -0.000006  -0.000002   0.000000
     8  F   -0.033472   9.210472   0.000462  -0.000005  -0.000002   0.000000
     9  C    0.000504   0.000462   4.733573   0.266866  -0.038442   0.003324
    10  N   -0.000006  -0.000005   0.266866   7.235768   0.211304  -0.104558
    11  C   -0.000002  -0.000002  -0.038442   0.211304   4.957095   0.447167
    12  S    0.000000   0.000000   0.003324  -0.104558   0.447167  15.945047
    13  H    0.000890   0.000878   0.002397  -0.000260   0.002614  -0.000055
    14  H    0.000083   0.000082   0.380142  -0.031946   0.000957  -0.000133
    15  H    0.000000   0.000000  -0.021515   0.309795  -0.017809   0.013791
    16  H    0.000011   0.008200   0.000000   0.000000   0.000000   0.000000
    17  O    0.000000  -0.000678   0.000000   0.000000   0.000000   0.000000
    18  H    0.000000  -0.000022   0.000000   0.000000   0.000000   0.000000
             13         14         15         16         17         18
     1  F   -0.000283   0.000000  -0.000018   0.000000   0.000000   0.000000
     2  C   -0.016624  -0.000114   0.003858   0.000000   0.000000   0.000000
     3  C    0.368337   0.001800  -0.000574   0.000008   0.000000   0.000000
     4  C   -0.030504  -0.022890   0.002350   0.000064  -0.000003   0.000000
     5  C   -0.000249  -0.000134  -0.000016   0.000076   0.000009   0.000000
     6  F    0.000034   0.004964   0.000001   0.000010   0.000000   0.000000
     7  F    0.000890   0.000083   0.000000   0.000011   0.000000   0.000000
     8  F    0.000878   0.000082   0.000000   0.008200  -0.000678  -0.000022
     9  C    0.002397   0.380142  -0.021515   0.000000   0.000000   0.000000
    10  N   -0.000260  -0.031946   0.309795   0.000000   0.000000   0.000000
    11  C    0.002614   0.000957  -0.017809   0.000000   0.000000   0.000000
    12  S   -0.000055  -0.000133   0.013791   0.000000   0.000000   0.000000
    13  H    0.390293  -0.000062   0.000008   0.000002   0.000000   0.000000
    14  H   -0.000062   0.381463  -0.002128   0.000000   0.000000   0.000000
    15  H    0.000008  -0.002128   0.270167   0.000000   0.000000   0.000000
    16  H    0.000002   0.000000   0.000000   0.310431   0.262223  -0.018552
    17  O    0.000000   0.000000   0.000000   0.262223   8.350166   0.265525
    18  H    0.000000   0.000000   0.000000  -0.018552   0.265525   0.322088
 Mulliken atomic charges:
              1
     1  F   -0.358916
     2  C    0.407544
     3  C   -0.174791
     4  C   -0.304048
     5  C    1.210330
     6  F   -0.382098
     7  F   -0.369902
     8  F   -0.380621
     9  C    0.173789
    10  N   -0.779514
    11  C    0.180665
    12  S   -0.226269
    13  H    0.282581
    14  H    0.287916
    15  H    0.442089
    16  H    0.437526
    17  O   -0.877243
    18  H    0.430961
 Sum of Mulliken atomic charges =   0.00000
 Mulliken charges with hydrogens summed into heavy atoms:
              1
     1  F   -0.358916
     2  C    0.407544
     3  C    0.107790
     4  C   -0.304048
     5  C    1.210330
     6  F   -0.382098
     7  F   -0.369902
     8  F   -0.380621
     9  C    0.461705
    10  N   -0.337425
    11  C    0.180665
    12  S   -0.226269
    17  O   -0.008755
 Sum of Mulliken charges with hydrogens summed into heavy atoms =   0.00000
 Electronic spatial extent (au):  <R**2>=           3890.0035
 Charge=              0.0000 electrons
 Dipole moment (field-independent basis, Debye):
    X=              2.9489    Y=             -4.9010    Z=             -0.4137  Tot=              5.7347
 Quadrupole moment (field-independent basis, Debye-Ang):
   XX=           -108.6417   YY=            -80.3134   ZZ=            -81.7504
   XY=             -7.6390   XZ=             -1.8764   YZ=             -9.2402
 Traceless Quadrupole moment (field-independent basis, Debye-Ang):
   XX=            -18.4065   YY=              9.9218   ZZ=              8.4847
   XY=             -7.6390   XZ=             -1.8764   YZ=             -9.2402
 Octapole moment (field-independent basis, Debye-Ang**2):
  XXX=              1.8292  YYY=            -81.2122  ZZZ=            -61.2197  XYY=            -40.9415
  XXY=            -52.2981  XXZ=            -34.8710  XZZ=             -7.1699  YZZ=            -43.9545
  YYZ=            -61.2360  XYZ=            -37.2042
 Hexadecapole moment (field-independent basis, Debye-Ang**3):
 XXXX=          -3410.7173 YYYY=           -731.4423 ZZZZ=           -577.1061 XXXY=           -395.1010
 XXXZ=           -349.5555 YYYX=           -292.4572 YYYZ=           -278.8250 ZZZX=           -223.8410
 ZZZY=           -275.8964 XXYY=           -803.5304 XXZZ=           -630.7945 YYZZ=           -376.8890
 XXYZ=           -208.8189 YYXZ=           -242.7810 ZZXY=           -204.2081
 N-N= 9.030065440040D+02 E-N=-4.543476152738D+03  KE= 1.152539324183D+03
 Calling FoFJK, ICntrl=      2127 FMM=F ISym2X=0 I1Cent= 0 IOpClX= 0 NMat=1 NMatS=1 NMatT=0.
 -------------------------------------------------------------------
 Center     Atomic                   Forces (Hartrees/Bohr)
 Number     Number              X              Y              Z
 -------------------------------------------------------------------
      1        9           0.000000000    0.000000000    0.000000000
      2        6           0.000000000    0.000000000    0.000000000
      3        6           0.000000000    0.000000000    0.000000000
      4        6           0.000000000    0.000000000    0.000000000
      5        6           0.000000000    0.000000000    0.000000000
      6        9           0.000000000    0.000000000    0.000000000
      7        9           0.000000000    0.000000000    0.000000000
      8        9           0.000000000    0.000000000    0.000000000
      9        6           0.000000000    0.000000000    0.000000000
     10        7           0.000000000    0.000000000    0.000000000
     11        6           0.000000000    0.000000000    0.000000000
     12       16           0.000000000    0.000000000    0.000000000
     13        1           0.000000000    0.000000000    0.000000000
     14        1           0.000000000    0.000000000    0.000000000
     15        1           0.000000000    0.000000000    0.000000000
     16        1           0.003823010    0.006281503    0.007704244
     17        8          -0.002688479   -0.014727302   -0.001311320
     18        1          -0.001009406    0.008419480   -0.006563585
 -------------------------------------------------------------------
 Cartesian Forces:  Max     0.014727302 RMS     0.002900371
 -----------------------------------------------------------------------------------------------
                       Internal Coordinate Forces (Hartree/Bohr or radian)
  Cent   Atom   N1       Length/X         N2         Alpha/Y        N3         Beta/Z          J
 -----------------------------------------------------------------------------------------------
      1  F 
      2  C 
      3  C 
      4  C 
      5  C 
      6  F 
      7  F 
      8  F 
      9  C 
     10  N 
     11  C 
     12  S 
     13  H 
     14  H 
     15  H 
         X        8   0.000000(     1)      5   0.000314(     7)      4   0.000188(    13)     0
         X       16   0.000000(     2)      8   0.000000(     8)      5   0.000405(    14)     0
     16  H        8  -0.000109(     3)     16   0.000314(     9)     17  -0.000405(    15)     0
         X       18   0.000000(     4)      8  -0.000470(    10)     16   0.000000(    16)     0
     17  O       18  -0.010674(     5)     19  -0.000470(    11)      8   0.000297(    17)     0
     18  H       20  -0.010645(     6)     18   0.002333(    12)     16   0.000188(    18)     0
 -----------------------------------------------------------------------------------------------
 Internal  Forces:  Max     0.010674291 RMS     0.003604257

 GradGradGradGradGradGradGradGradGradGradGradGradGradGradGradGradGradGrad
 Berny optimization.
 Search for a local minimum.
 Step number   1 out of a maximum of   20
 All quantities printed in internal units (Hartrees-Bohrs-Radians)
 Second derivative matrix not updated -- first step.
 The second derivative matrix:
                          RX       RDUM       ROH      ADUM      AHOH
           RX           0.02438
           RDUM         0.00000   0.00000
           ROH          0.00000   0.00000   1.12160
           ADUM         0.00000   0.00000   0.00000   2.14546
           AHOH         0.00000   0.00000   0.00000   0.00000   0.16000
           DDUM         0.00000   0.00000   0.00000   0.08002   0.00000
           DH1          0.00000   0.00000   0.00000  -0.08002   0.00000
           DOH2         0.00000   0.00000   0.00000  -0.12502   0.00000
           DH2          0.00000   0.00000   0.00000   0.00000   0.00000
                         DDUM       DH1      DOH2       DH2
           DDUM         0.18244
           DH1         -0.18244   0.18244
           DOH2         0.00000   0.00000   0.28507
           DH2          0.00000   0.00000   0.00000   0.00000
     Eigenvalues ---    0.024381000.000001000.000001000.000001000.00000
     Eigenvalues --- 1000.000001000.000001000.000001000.00000
 RFO step:  Lambda=-4.88715275D-07 EMin= 2.43790107D-02
 Linear search not attempted -- first point.
 Variable       Old X    -DE/DX   Delta X   Delta X   Delta X     New X
                                 (Linear)    (Quad)   (Total)
    RX        4.49528  -0.00011   0.00000  -0.00448  -0.00448   4.49080
   RDUM       1.88973   0.00000   0.00000   0.00000   0.00000   1.88973
   ROH        1.80885  -0.02132   0.00000   0.00000   0.00000   1.80885
   ADUM       1.57080  -0.00031   0.00000   0.00000   0.00000   1.57080
   AHOH       1.82422   0.00233   0.00000   0.00000   0.00000   1.82422
   DDUM       0.00000   0.00059   0.00000   0.00000   0.00000   0.00000
   DH1        3.14159  -0.00040   0.00000   0.00000   0.00000   3.14159
   DOH2       3.14159   0.00030   0.00000   0.00000   0.00000   3.14159
   DH2        1.57080   0.00019   0.00000   0.00000   0.00000   1.57080
         Item               Value     Threshold  Converged?
 Maximum Force            0.000109     0.000450     YES
 RMS     Force            0.000109     0.000300     YES
 Maximum Displacement     0.004477     0.001800     NO 
 RMS     Displacement     0.001492     0.001200     NO 
 Predicted change in Energy=-2.443576D-07
 GradGradGradGradGradGradGradGradGradGradGradGradGradGradGradGradGradGrad

 ---------------------------------------------------------------------------------------------------
                            Z-MATRIX (ANGSTROMS AND DEGREES)
   CD    Cent   Atom    N1       Length/X        N2       Alpha/Y        N3        Beta/Z          J
 ---------------------------------------------------------------------------------------------------
      1      1  F       -1  -1.969300          2.053680          0.000070
      2      2  C       -1  -1.222250          0.944230          0.000030
      3      3  C       -1   0.140030          1.057400         -0.000020
      4      4  C       -1   0.927950         -0.123640         -0.000080
      5      5  C       -1   2.414660         -0.018650         -0.000010
      6      6  F       -1   3.007080         -1.234610         -0.000560
      7      7  F       -1   2.858290          0.654480         -1.086020
      8      8  F       -1   2.858270          0.653500          1.086650
      9      9  C       -1   0.306540         -1.341490         -0.000090
     10     10  N       -1  -1.054170         -1.389970         -0.000060
     11     11  C       -1  -1.930500         -0.312100          0.000000
     12     12  S       -1  -3.570980         -0.506610          0.000030
     13     13  H       -1   0.596860          2.043100         -0.000020
     14     14  H       -1   0.831760         -2.288990         -0.000150
     15     15  H       -1  -1.521480         -2.296390         -0.000090
     16         X        8   1.000000(    15)      5   90.000(    34)      4    0.000(    52)      0
     17         X       16   1.000000(    16)      8   90.000(    35)      5    0.000(    53)      0
     18     16  H        8   2.376431(    17)     16   90.000(    36)     17  180.000(    54)      0
     19         X       18   1.000000(    18)      8   90.000(    37)     16    0.000(    55)      0
     20     17  O       18   0.957200(    19)     19   90.000(    38)      8  180.000(    56)      0
     21     18  H       20   0.957200(    20)     18  104.520(    39)     16   90.000(    57)      0
 ---------------------------------------------------------------------------------------------------
                         Z-Matrix orientation:                         
 ---------------------------------------------------------------------
 Center     Atomic      Atomic             Coordinates (Angstroms)
 Number     Number       Type             X           Y           Z
 ---------------------------------------------------------------------
      1          9           0       -1.969300    2.053680    0.000070
      2          6           0       -1.222250    0.944230    0.000030
      3          6           0        0.140030    1.057400   -0.000020
      4          6           0        0.927950   -0.123640   -0.000080
      5          6           0        2.414660   -0.018650   -0.000010
      6          9           0        3.007080   -1.234610   -0.000560
      7          9           0        2.858290    0.654480   -1.086020
      8          9           0        2.858270    0.653500    1.086650
      9          6           0        0.306540   -1.341490   -0.000090
     10          7           0       -1.054170   -1.389970   -0.000060
     11          6           0       -1.930500   -0.312100    0.000000
     12         16           0       -3.570980   -0.506610    0.000030
     13          1           0        0.596860    2.043100   -0.000020
     14          1           0        0.831760   -2.288990   -0.000150
     15          1           0       -1.521480   -2.296390   -0.000090
     16         -1           0        1.915537    0.771037    1.398802
     17         -1           0        1.587558    0.274088    0.595390
     18          1           0        3.637690    1.834463    2.995905
     19         -1           0        2.694957    1.952000    3.308057
     20          8           0        3.951632    2.310142    3.764931
     21          1           0        4.086582    1.632705    4.427577
 ---------------------------------------------------------------------
                    Distance matrix (angstroms):
                    1          2          3          4          5
     1  F    0.000000
     2  C    1.337521   0.000000
     3  C    2.332777   1.366973   0.000000
     4  C    3.624194   2.400772   1.419744   0.000000
     5  C    4.849088   3.762214   2.516312   1.490413   0.000000
     6  F    5.964663   4.757581   3.670597   2.357337   1.352598
     7  F    5.142274   4.232525   2.954772   2.347541   1.352527
     8  F    5.142625   4.232719   2.955134   2.347566   1.352555
     9  C    4.087374   2.749857   2.404662   1.367227   2.488790
    10  N    3.563171   2.340244   2.723184   2.352104   3.730054
    11  C    2.366098   1.442215   2.482463   2.864656   4.355058
    12  S    3.020011   2.760701   4.027123   4.515201   6.005497
    13  H    2.566182   2.125247   1.086415   2.191890   2.748674
    14  H    5.167661   3.830492   3.417136   2.167485   2.767673
    15  H    4.373060   3.254406   3.742796   3.274225   4.547669
    16  X    4.323608   3.439806   2.278406   1.932006   1.682084
    17  X    4.021516   2.949332   1.750265   0.973578   1.060328
    18  H    6.360929   5.778131   4.670441   4.489185   3.728986
    19  X    5.719127   5.225242   4.274498   4.286533   3.860743
    20  O    7.021210   6.542878   5.502048   5.407519   4.686186
    21  H    7.513571   6.947004   5.959015   5.715404   5.012566
                    6          7          8          9         10
     6  F    0.000000
     7  F    2.183809   0.000000
     8  F    2.183834   2.172670   0.000000
     9  C    2.702654   3.416807   3.416477   0.000000
    10  N    4.064221   4.546034   4.545756   1.361573   0.000000
    11  C    5.023019   5.004620   5.004549   2.462517   1.389157
    12  S    6.618222   6.622926   6.622828   3.966382   2.667332
    13  H    4.068482   2.867355   2.868068   3.397019   3.809445
    14  H    2.417382   3.734964   3.734451   1.083334   2.089251
    15  H    4.651369   5.391592   5.391203   2.062399   1.019792
    16  X    2.678115   2.660209   1.000000   3.001423   3.930130
    17  X    2.155544   2.141634   1.414214   2.146088   3.178423
    18  H    4.335398   4.319946   2.376431   5.491741   6.433220
    19  X    4.604221   4.584556   2.578260   5.243610   6.014013
    20  O    5.257031   5.241025   3.333631   6.387214   7.274891
    21  H    5.384720   5.732833   3.691799   6.537491   7.427507
                   11         12         13         14         15
    11  C    0.000000
    12  S    1.651971   0.000000
    13  H    3.454637   4.885889   0.000000
    14  H    3.396789   4.749842   4.338454   0.000000
    15  H    2.026007   2.720986   4.828927   2.353252   0.000000
    16  X    4.233419   5.804379   2.305159   3.534884   4.814467
    17  X    3.615914   5.251138   2.113148   2.737749   4.077753
    18  H    6.677418   8.149896   4.273844   5.818286   7.256512
    19  X    6.120804   7.499985   3.918378   5.692252   6.838932
    20  O    7.459915   8.871204   5.049818   6.712783   8.083964
    21  H    7.719519   9.100445   5.652451   6.751172   8.154286
                   16         17         18         19         20
    16  X    0.000000
    17  X    1.000000   0.000000
    18  H    2.578260   3.521404   0.000000
    19  X    2.376431   3.376431   1.000000   0.000000
    20  O    3.480387   4.447511   0.957200   1.384280   0.000000
    21  H    3.824838   4.772486   1.513901   1.814358   0.957200
                   21
    21  H    0.000000
 Symmetry turned off by external request.
 Stoichiometry    C6H5F4NOS
 Framework group  C1[X(C6H5F4NOS)]
 Deg. of freedom    48
 Full point group                 C1      NOp   1
 Rotational constants (GHZ):      0.9921976      0.3161838      0.2782347
 Standard basis: 6-31G(d) (6D, 7F)
 Integral buffers will be    131072 words long.
 Raffenetti 1 integral format.
 Two-electron integral symmetry is turned off.
   209 basis functions,   408 primitive gaussians,   209 cartesian basis functions
    54 alpha electrons       54 beta electrons
       nuclear repulsion energy       903.0444562567 Hartrees.
 NAtoms=   18 NActive=   18 NUniq=   18 SFac= 7.50D-01 NAtFMM=   80 NAOKFM=F Big=F
 One-electron integrals computed using PRISM.
 NBasis=   209 RedAO= T  NBF=   209
 NBsUse=   209 1.00D-06 NBFU=   209
 Initial guess read from the read-write file.
 B after Tr=     0.000000    0.000000    0.000000
         Rot=    1.000000    0.000000    0.000000    0.000000 Ang=   0.00 deg.
 Requested convergence on RMS density matrix=1.00D-08 within 128 cycles.
 Requested convergence on MAX density matrix=1.00D-06.
 Requested convergence on             energy=1.00D-06.
 No special actions if energy rises.
 SCF Done:  E(RHF) =  -1154.67432820     A.U. after    5 cycles
             Convg  =    0.4885D-08             -V/T =  2.0019
 Calling FoFJK, ICntrl=      2127 FMM=F ISym2X=0 I1Cent= 0 IOpClX= 0 NMat=1 NMatS=1 NMatT=0.
 -------------------------------------------------------------------
 Center     Atomic                   Forces (Hartrees/Bohr)
 Number     Number              X              Y              Z
 -------------------------------------------------------------------
      1        9           0.000000000    0.000000000    0.000000000
      2        6           0.000000000    0.000000000    0.000000000
      3        6           0.000000000    0.000000000    0.000000000
      4        6           0.000000000    0.000000000    0.000000000
      5        6           0.000000000    0.000000000    0.000000000
      6        9           0.000000000    0.000000000    0.000000000
      7        9           0.000000000    0.000000000    0.000000000
      8        9           0.000000000    0.000000000    0.000000000
      9        6           0.000000000    0.000000000    0.000000000
     10        7           0.000000000    0.000000000    0.000000000
     11        6           0.000000000    0.000000000    0.000000000
     12       16           0.000000000    0.000000000    0.000000000
     13        1           0.000000000    0.000000000    0.000000000
     14        1           0.000000000    0.000000000    0.000000000
     15        1           0.000000000    0.000000000    0.000000000
     16        1           0.003826760    0.006286620    0.007710891
     17        8          -0.002689368   -0.014728891   -0.001311069
     18        1          -0.001009085    0.008420458   -0.006563553
 -------------------------------------------------------------------
 Cartesian Forces:  Max     0.014728891 RMS     0.002901207
 -----------------------------------------------------------------------------------------------
                       Internal Coordinate Forces (Hartree/Bohr or radian)
  Cent   Atom   N1       Length/X         N2         Alpha/Y        N3         Beta/Z          J
 -----------------------------------------------------------------------------------------------
      1  F 
      2  C 
      3  C 
      4  C 
      5  C 
      6  F 
      7  F 
      8  F 
      9  C 
     10  N 
     11  C 
     12  S 
     13  H 
     14  H 
     15  H 
         X        8   0.000000(     1)      5   0.000314(     7)      4   0.000189(    13)     0
         X       16   0.000000(     2)      8   0.000000(     8)      5   0.000405(    14)     0
     16  H        8  -0.000100(     3)     16   0.000314(     9)     17  -0.000405(    15)     0
         X       18   0.000000(     4)      8  -0.000470(    10)     16   0.000000(    16)     0
     17  O       18  -0.010675(     5)     19  -0.000470(    11)      8   0.000297(    17)     0
     18  H       20  -0.010645(     6)     18   0.002334(    12)     16   0.000189(    18)     0
 -----------------------------------------------------------------------------------------------
 Internal  Forces:  Max     0.010674552 RMS     0.003604463

 GradGradGradGradGradGradGradGradGradGradGradGradGradGradGradGradGradGrad
 Berny optimization.
 Search for a local minimum.
 Step number   2 out of a maximum of   20
 All quantities printed in internal units (Hartrees-Bohrs-Radians)
 Update second derivatives using D2CorN and points    2
 DE= -4.69D-07 DEPred=-2.44D-07 R= 1.92D+00
 Trust test= 1.92D+00 RLast= 4.48D-03 DXMaxT set to 3.00D-01
 The second derivative matrix:
                          RX       RDUM       ROH      ADUM      AHOH
           RX           0.02438
           RDUM         0.00000   0.00000
           ROH          0.00000   0.00000   1.12160
           ADUM         0.00000   0.00000   0.00000   2.14546
           AHOH         0.00000   0.00000   0.00000   0.00000   0.16000
           DDUM         0.00000   0.00000   0.00000   0.08002   0.00000
           DH1          0.00000   0.00000   0.00000  -0.08002   0.00000
           DOH2         0.00000   0.00000   0.00000  -0.12502   0.00000
           DH2          0.00000   0.00000   0.00000   0.00000   0.00000
                         DDUM       DH1      DOH2       DH2
           DDUM         0.18244
           DH1         -0.18244   0.18244
           DOH2         0.00000   0.00000   0.28507
           DH2          0.00000   0.00000   0.00000   0.00000
     Eigenvalues ---    0.024381000.000001000.000001000.000001000.00000
     Eigenvalues --- 1000.000001000.000001000.000001000.00000
 RFO step:  Lambda= 0.00000000D+00 EMin= 2.43790107D-02
 Quartic linear search produced a step of  2.00000.
 Variable       Old X    -DE/DX   Delta X   Delta X   Delta X     New X
                                 (Linear)    (Quad)   (Total)
    RX        4.49080  -0.00010  -0.00895   0.00000  -0.00895   4.48185
   RDUM       1.88973   0.00000   0.00000   0.00000   0.00000   1.88973
   ROH        1.80885  -0.02132   0.00000   0.00000   0.00000   1.80885
   ADUM       1.57080  -0.00031   0.00000   0.00000   0.00000   1.57080
   AHOH       1.82422   0.00233   0.00000   0.00000   0.00000   1.82422
   DDUM       0.00000   0.00059   0.00000   0.00000   0.00000   0.00000
   DH1        3.14159  -0.00041   0.00000   0.00000   0.00000   3.14159
   DOH2       3.14159   0.00030   0.00000   0.00000   0.00000   3.14159
   DH2        1.57080   0.00019   0.00000   0.00000   0.00000   1.57080
         Item               Value     Threshold  Converged?
 Maximum Force            0.000100     0.000450     YES
 RMS     Force            0.000100     0.000300     YES
 Maximum Displacement     0.008954     0.001800     NO 
 RMS     Displacement     0.002985     0.001200     NO 
 Predicted change in Energy=-7.924338D-08
 GradGradGradGradGradGradGradGradGradGradGradGradGradGradGradGradGradGrad

 ---------------------------------------------------------------------------------------------------
                            Z-MATRIX (ANGSTROMS AND DEGREES)
   CD    Cent   Atom    N1       Length/X        N2       Alpha/Y        N3        Beta/Z          J
 ---------------------------------------------------------------------------------------------------
      1      1  F       -1  -1.969300          2.053680          0.000070
      2      2  C       -1  -1.222250          0.944230          0.000030
      3      3  C       -1   0.140030          1.057400         -0.000020
      4      4  C       -1   0.927950         -0.123640         -0.000080
      5      5  C       -1   2.414660         -0.018650         -0.000010
      6      6  F       -1   3.007080         -1.234610         -0.000560
      7      7  F       -1   2.858290          0.654480         -1.086020
      8      8  F       -1   2.858270          0.653500          1.086650
      9      9  C       -1   0.306540         -1.341490         -0.000090
     10     10  N       -1  -1.054170         -1.389970         -0.000060
     11     11  C       -1  -1.930500         -0.312100          0.000000
     12     12  S       -1  -3.570980         -0.506610          0.000030
     13     13  H       -1   0.596860          2.043100         -0.000020
     14     14  H       -1   0.831760         -2.288990         -0.000150
     15     15  H       -1  -1.521480         -2.296390         -0.000090
     16         X        8   1.000000(    15)      5   90.000(    34)      4    0.000(    52)      0
     17         X       16   1.000000(    16)      8   90.000(    35)      5    0.000(    53)      0
     18     16  H        8   2.371692(    17)     16   90.000(    36)     17  180.000(    54)      0
     19         X       18   1.000000(    18)      8   90.000(    37)     16    0.000(    55)      0
     20     17  O       18   0.957200(    19)     19   90.000(    38)      8  180.000(    56)      0
     21     18  H       20   0.957200(    20)     18  104.520(    39)     16   90.000(    57)      0
 ---------------------------------------------------------------------------------------------------
                         Z-Matrix orientation:                         
 ---------------------------------------------------------------------
 Center     Atomic      Atomic             Coordinates (Angstroms)
 Number     Number       Type             X           Y           Z
 ---------------------------------------------------------------------
      1          9           0       -1.969300    2.053680    0.000070
      2          6           0       -1.222250    0.944230    0.000030
      3          6           0        0.140030    1.057400   -0.000020
      4          6           0        0.927950   -0.123640   -0.000080
      5          6           0        2.414660   -0.018650   -0.000010
      6          9           0        3.007080   -1.234610   -0.000560
      7          9           0        2.858290    0.654480   -1.086020
      8          9           0        2.858270    0.653500    1.086650
      9          6           0        0.306540   -1.341490   -0.000090
     10          7           0       -1.054170   -1.389970   -0.000060
     11          6           0       -1.930500   -0.312100    0.000000
     12         16           0       -3.570980   -0.506610    0.000030
     13          1           0        0.596860    2.043100   -0.000020
     14          1           0        0.831760   -2.288990   -0.000150
     15          1           0       -1.521480   -2.296390   -0.000090
     16         -1           0        1.915537    0.771037    1.398802
     17         -1           0        1.587558    0.274088    0.595390
     18          1           0        3.636136    1.832108    2.992098
     19         -1           0        2.693403    1.949645    3.304250
     20          8           0        3.950078    2.307787    3.761124
     21          1           0        4.085028    1.630350    4.423770
 ---------------------------------------------------------------------
                    Distance matrix (angstroms):
                    1          2          3          4          5
     1  F    0.000000
     2  C    1.337521   0.000000
     3  C    2.332777   1.366973   0.000000
     4  C    3.624194   2.400772   1.419744   0.000000
     5  C    4.849088   3.762214   2.516312   1.490413   0.000000
     6  F    5.964663   4.757581   3.670597   2.357337   1.352598
     7  F    5.142274   4.232525   2.954772   2.347541   1.352527
     8  F    5.142625   4.232719   2.955134   2.347566   1.352555
     9  C    4.087374   2.749857   2.404662   1.367227   2.488790
    10  N    3.563171   2.340244   2.723184   2.352104   3.730054
    11  C    2.366098   1.442215   2.482463   2.864656   4.355058
    12  S    3.020011   2.760701   4.027123   4.515201   6.005497
    13  H    2.566182   2.125247   1.086415   2.191890   2.748674
    14  H    5.167661   3.830492   3.417136   2.167485   2.767673
    15  H    4.373060   3.254406   3.742796   3.274225   4.547669
    16  X    4.323608   3.439806   2.278406   1.932006   1.682084
    17  X    4.021516   2.949332   1.750265   0.973578   1.060328
    18  H    6.357848   5.774488   4.666444   4.484679   3.724247
    19  X    5.715700   5.221213   4.270130   4.281814   3.856166
    20  O    7.017772   6.538967   5.497830   5.402939   4.681447
    21  H    7.510208   6.943157   5.954930   5.710873   5.007909
                    6          7          8          9         10
     6  F    0.000000
     7  F    2.183809   0.000000
     8  F    2.183834   2.172670   0.000000
     9  C    2.702654   3.416807   3.416477   0.000000
    10  N    4.064221   4.546034   4.545756   1.361573   0.000000
    11  C    5.023019   5.004620   5.004549   2.462517   1.389157
    12  S    6.618222   6.622926   6.622828   3.966382   2.667332
    13  H    4.068482   2.867355   2.868068   3.397019   3.809445
    14  H    2.417382   3.734964   3.734451   1.083334   2.089251
    15  H    4.651369   5.391592   5.391203   2.062399   1.019792
    16  X    2.678115   2.660209   1.000000   3.001423   3.930130
    17  X    2.155544   2.141634   1.414214   2.146088   3.178423
    18  H    4.330874   4.315425   2.371692   5.487360   6.429134
    19  X    4.599961   4.580296   2.573893   5.239022   6.009642
    20  O    5.252437   5.236433   3.328892   6.382736   7.270654
    21  H    5.380024   5.728437   3.687213   6.532943   7.423204
                   11         12         13         14         15
    11  C    0.000000
    12  S    1.651971   0.000000
    13  H    3.454637   4.885889   0.000000
    14  H    3.396789   4.749842   4.338454   0.000000
    15  H    2.026007   2.720986   4.828927   2.353252   0.000000
    16  X    4.233419   5.804379   2.305159   3.534884   4.814467
    17  X    3.615914   5.251138   2.113148   2.737749   4.077753
    18  H    6.673658   8.146447   4.270185   5.813908   7.252495
    19  X    6.116701   7.496236   3.914387   5.687776   6.834670
    20  O    7.455941   8.867523   5.045823   6.708312   8.079797
    21  H    7.715532   9.096732   5.648681   6.746558   8.150016
                   16         17         18         19         20
    16  X    0.000000
    17  X    1.000000   0.000000
    18  H    2.573893   3.516861   0.000000
    19  X    2.371692   3.371692   1.000000   0.000000
    20  O    3.475849   4.442894   0.957200   1.384280   0.000000
    21  H    3.820411   4.767945   1.513901   1.814358   0.957200
                   21
    21  H    0.000000
 Symmetry turned off by external request.
 Stoichiometry    C6H5F4NOS
 Framework group  C1[X(C6H5F4NOS)]
 Deg. of freedom    48
 Full point group                 C1      NOp   1
 Rotational constants (GHZ):      0.9930083      0.3162806      0.2783550
 Standard basis: 6-31G(d) (6D, 7F)
 Integral buffers will be    131072 words long.
 Raffenetti 1 integral format.
 Two-electron integral symmetry is turned off.
   209 basis functions,   408 primitive gaussians,   209 cartesian basis functions
    54 alpha electrons       54 beta electrons
       nuclear repulsion energy       903.1203872705 Hartrees.
 NAtoms=   18 NActive=   18 NUniq=   18 SFac= 7.50D-01 NAtFMM=   80 NAOKFM=F Big=F
 One-electron integrals computed using PRISM.
 NBasis=   209 RedAO= T  NBF=   209
 NBsUse=   209 1.00D-06 NBFU=   209
 Initial guess read from the read-write file.
 B after Tr=     0.000000    0.000000    0.000000
         Rot=    1.000000    0.000000    0.000000    0.000000 Ang=   0.00 deg.
 Requested convergence on RMS density matrix=1.00D-08 within 128 cycles.
 Requested convergence on MAX density matrix=1.00D-06.
 Requested convergence on             energy=1.00D-06.
 No special actions if energy rises.
 SCF Done:  E(RHF) =  -1154.67432902     A.U. after    6 cycles
             Convg  =    0.3288D-08             -V/T =  2.0019
 Calling FoFJK, ICntrl=      2127 FMM=F ISym2X=0 I1Cent= 0 IOpClX= 0 NMat=1 NMatS=1 NMatT=0.
 -------------------------------------------------------------------
 Center     Atomic                   Forces (Hartrees/Bohr)
 Number     Number              X              Y              Z
 -------------------------------------------------------------------
      1        9           0.000000000    0.000000000    0.000000000
      2        6           0.000000000    0.000000000    0.000000000
      3        6           0.000000000    0.000000000    0.000000000
      4        6           0.000000000    0.000000000    0.000000000
      5        6           0.000000000    0.000000000    0.000000000
      6        9           0.000000000    0.000000000    0.000000000
      7        9           0.000000000    0.000000000    0.000000000
      8        9           0.000000000    0.000000000    0.000000000
      9        6           0.000000000    0.000000000    0.000000000
     10        7           0.000000000    0.000000000    0.000000000
     11        6           0.000000000    0.000000000    0.000000000
     12       16           0.000000000    0.000000000    0.000000000
     13        1           0.000000000    0.000000000    0.000000000
     14        1           0.000000000    0.000000000    0.000000000
     15        1           0.000000000    0.000000000    0.000000000
     16        1           0.003834371    0.006297086    0.007724438
     17        8          -0.002691166   -0.014732161   -0.001310611
     18        1          -0.001008434    0.008422420   -0.006563462
 -------------------------------------------------------------------
 Cartesian Forces:  Max     0.014732161 RMS     0.002902912
 -----------------------------------------------------------------------------------------------
                       Internal Coordinate Forces (Hartree/Bohr or radian)
  Cent   Atom   N1       Length/X         N2         Alpha/Y        N3         Beta/Z          J
 -----------------------------------------------------------------------------------------------
      1  F 
      2  C 
      3  C 
      4  C 
      5  C 
      6  F 
      7  F 
      8  F 
      9  C 
     10  N 
     11  C 
     12  S 
     13  H 
     14  H 
     15  H 
         X        8   0.000000(     1)      5   0.000313(     7)      4   0.000189(    13)     0
         X       16   0.000000(     2)      8   0.000000(     8)      5   0.000407(    14)     0
     16  H        8  -0.000082(     3)     16   0.000313(     9)     17  -0.000407(    15)     0
         X       18   0.000000(     4)      8  -0.000472(    10)     16   0.000000(    16)     0
     17  O       18  -0.010675(     5)     19  -0.000472(    11)      8   0.000297(    17)     0
     18  H       20  -0.010647(     6)     18   0.002337(    12)     16   0.000189(    18)     0
 -----------------------------------------------------------------------------------------------
 Internal  Forces:  Max     0.010675138 RMS     0.003604885

 GradGradGradGradGradGradGradGradGradGradGradGradGradGradGradGradGradGrad
 Berny optimization.
 Search for a local minimum.
 Step number   3 out of a maximum of   20
 All quantities printed in internal units (Hartrees-Bohrs-Radians)
 Update second derivatives using D2CorN and points    2    3
 DE= -8.18D-07 DEPred=-7.92D-08 R= 1.03D+01
 Trust test= 1.03D+01 RLast= 8.95D-03 DXMaxT set to 3.00D-01
 The second derivative matrix:
                          RX       RDUM       ROH      ADUM      AHOH
           RX           0.00201
           RDUM         0.00000   0.00000
           ROH         -0.00010   0.00000   1.12160
           ADUM        -0.00027   0.00000   0.00000   2.14546
           AHOH         0.00016   0.00000   0.00000   0.00000   0.16000
           DDUM         0.00012   0.00000   0.00000   0.08002   0.00000
           DH1         -0.00008   0.00000   0.00000  -0.08002   0.00000
           DOH2         0.00000   0.00000   0.00000  -0.12502   0.00000
           DH2          0.00003   0.00000   0.00000   0.00000   0.00000
                         DDUM       DH1      DOH2       DH2
           DDUM         0.18244
           DH1         -0.18244   0.18244
           DOH2         0.00000   0.00000   0.28507
           DH2          0.00000   0.00000   0.00000   0.00000
     Eigenvalues ---    0.002011000.000001000.000001000.000001000.00000
     Eigenvalues --- 1000.000001000.000001000.000001000.00000
 RFO step:  Lambda= 0.00000000D+00 EMin= 2.00965695D-03
 Quartic linear search produced a step of  2.00000.
 Variable       Old X    -DE/DX   Delta X   Delta X   Delta X     New X
                                 (Linear)    (Quad)   (Total)
    RX        4.48185  -0.00008  -0.01791   0.00000  -0.01791   4.46394
   RDUM       1.88973   0.00000   0.00000   0.00000   0.00000   1.88973
   ROH        1.80885  -0.02132   0.00000   0.00000   0.00000   1.80885
   ADUM       1.57080  -0.00032   0.00000   0.00000   0.00000   1.57080
   AHOH       1.82422   0.00234   0.00000   0.00000   0.00000   1.82422
   DDUM       0.00000   0.00060   0.00000   0.00000   0.00000   0.00000
   DH1        3.14159  -0.00041   0.00000   0.00000   0.00000   3.14159
   DOH2       3.14159   0.00030   0.00000   0.00000   0.00000   3.14159
   DH2        1.57080   0.00019   0.00000   0.00000   0.00000   1.57080
         Item               Value     Threshold  Converged?
 Maximum Force            0.000082     0.000450     YES
 RMS     Force            0.000082     0.000300     YES
 Maximum Displacement     0.017909     0.001800     NO 
 RMS     Displacement     0.005970     0.001200     NO 
 Predicted change in Energy=-1.151734D-06
 GradGradGradGradGradGradGradGradGradGradGradGradGradGradGradGradGradGrad

 ---------------------------------------------------------------------------------------------------
                            Z-MATRIX (ANGSTROMS AND DEGREES)
   CD    Cent   Atom    N1       Length/X        N2       Alpha/Y        N3        Beta/Z          J
 ---------------------------------------------------------------------------------------------------
      1      1  F       -1  -1.969300          2.053680          0.000070
      2      2  C       -1  -1.222250          0.944230          0.000030
      3      3  C       -1   0.140030          1.057400         -0.000020
      4      4  C       -1   0.927950         -0.123640         -0.000080
      5      5  C       -1   2.414660         -0.018650         -0.000010
      6      6  F       -1   3.007080         -1.234610         -0.000560
      7      7  F       -1   2.858290          0.654480         -1.086020
      8      8  F       -1   2.858270          0.653500          1.086650
      9      9  C       -1   0.306540         -1.341490         -0.000090
     10     10  N       -1  -1.054170         -1.389970         -0.000060
     11     11  C       -1  -1.930500         -0.312100          0.000000
     12     12  S       -1  -3.570980         -0.506610          0.000030
     13     13  H       -1   0.596860          2.043100         -0.000020
     14     14  H       -1   0.831760         -2.288990         -0.000150
     15     15  H       -1  -1.521480         -2.296390         -0.000090
     16         X        8   1.000000(    15)      5   90.000(    34)      4    0.000(    52)      0
     17         X       16   1.000000(    16)      8   90.000(    35)      5    0.000(    53)      0
     18     16  H        8   2.362215(    17)     16   90.000(    36)     17  180.000(    54)      0
     19         X       18   1.000000(    18)      8   90.000(    37)     16    0.000(    55)      0
     20     17  O       18   0.957200(    19)     19   90.000(    38)      8  180.000(    56)      0
     21     18  H       20   0.957200(    20)     18  104.520(    39)     16   90.000(    57)      0
 ---------------------------------------------------------------------------------------------------
                         Z-Matrix orientation:                         
 ---------------------------------------------------------------------
 Center     Atomic      Atomic             Coordinates (Angstroms)
 Number     Number       Type             X           Y           Z
 ---------------------------------------------------------------------
      1          9           0       -1.969300    2.053680    0.000070
      2          6           0       -1.222250    0.944230    0.000030
      3          6           0        0.140030    1.057400   -0.000020
      4          6           0        0.927950   -0.123640   -0.000080
      5          6           0        2.414660   -0.018650   -0.000010
      6          9           0        3.007080   -1.234610   -0.000560
      7          9           0        2.858290    0.654480   -1.086020
      8          9           0        2.858270    0.653500    1.086650
      9          6           0        0.306540   -1.341490   -0.000090
     10          7           0       -1.054170   -1.389970   -0.000060
     11          6           0       -1.930500   -0.312100    0.000000
     12         16           0       -3.570980   -0.506610    0.000030
     13          1           0        0.596860    2.043100   -0.000020
     14          1           0        0.831760   -2.288990   -0.000150
     15          1           0       -1.521480   -2.296390   -0.000090
     16         -1           0        1.915537    0.771037    1.398802
     17         -1           0        1.587558    0.274088    0.595390
     18          1           0        3.633028    1.827399    2.984484
     19         -1           0        2.690294    1.944936    3.296636
     20          8           0        3.946969    2.303078    3.753510
     21          1           0        4.081920    1.625640    4.416156
 ---------------------------------------------------------------------
                    Distance matrix (angstroms):
                    1          2          3          4          5
     1  F    0.000000
     2  C    1.337521   0.000000
     3  C    2.332777   1.366973   0.000000
     4  C    3.624194   2.400772   1.419744   0.000000
     5  C    4.849088   3.762214   2.516312   1.490413   0.000000
     6  F    5.964663   4.757581   3.670597   2.357337   1.352598
     7  F    5.142274   4.232525   2.954772   2.347541   1.352527
     8  F    5.142625   4.232719   2.955134   2.347566   1.352555
     9  C    4.087374   2.749857   2.404662   1.367227   2.488790
    10  N    3.563171   2.340244   2.723184   2.352104   3.730054
    11  C    2.366098   1.442215   2.482463   2.864656   4.355058
    12  S    3.020011   2.760701   4.027123   4.515201   6.005497
    13  H    2.566182   2.125247   1.086415   2.191890   2.748674
    14  H    5.167661   3.830492   3.417136   2.167485   2.767673
    15  H    4.373060   3.254406   3.742796   3.274225   4.547669
    16  X    4.323608   3.439806   2.278406   1.932006   1.682084
    17  X    4.021516   2.949332   1.750265   0.973578   1.060328
    18  H    6.351693   5.767207   4.658454   4.475670   3.714770
    19  X    5.708852   5.213159   4.261398   4.272376   3.847014
    20  O    7.010903   6.531149   5.489398   5.393781   4.671970
    21  H    7.503485   6.935467   5.946764   5.701811   4.998596
                    6          7          8          9         10
     6  F    0.000000
     7  F    2.183809   0.000000
     8  F    2.183834   2.172670   0.000000
     9  C    2.702654   3.416807   3.416477   0.000000
    10  N    4.064221   4.546034   4.545756   1.361573   0.000000
    11  C    5.023019   5.004620   5.004549   2.462517   1.389157
    12  S    6.618222   6.622926   6.622828   3.966382   2.667332
    13  H    4.068482   2.867355   2.868068   3.397019   3.809445
    14  H    2.417382   3.734964   3.734451   1.083334   2.089251
    15  H    4.651369   5.391592   5.391203   2.062399   1.019792
    16  X    2.678115   2.660209   1.000000   3.001423   3.930130
    17  X    2.155544   2.141634   1.414214   2.146088   3.178423
    18  H    4.321828   4.306386   2.362215   5.478600   6.420964
    19  X    4.591445   4.571780   2.565163   5.229845   6.000901
    20  O    5.243250   5.227251   3.319415   6.373783   7.262182
    21  H    5.370632   5.719647   3.678041   6.523847   7.414600
                   11         12         13         14         15
    11  C    0.000000
    12  S    1.651971   0.000000
    13  H    3.454637   4.885889   0.000000
    14  H    3.396789   4.749842   4.338454   0.000000
    15  H    2.026007   2.720986   4.828927   2.353252   0.000000
    16  X    4.233419   5.804379   2.305159   3.534884   4.814467
    17  X    3.615914   5.251138   2.113148   2.737749   4.077753
    18  H    6.666141   8.139551   4.262875   5.805152   7.244464
    19  X    6.108499   7.488741   3.906411   5.678827   6.826147
    20  O    7.447996   8.860165   5.037838   6.699372   8.071466
    21  H    7.707559   9.089309   5.641145   6.737331   8.141476
                   16         17         18         19         20
    16  X    0.000000
    17  X    1.000000   0.000000
    18  H    2.565163   3.507776   0.000000
    19  X    2.362215   3.362215   1.000000   0.000000
    20  O    3.466773   4.433661   0.957200   1.384280   0.000000
    21  H    3.811559   4.758864   1.513901   1.814358   0.957200
                   21
    21  H    0.000000
 Symmetry turned off by external request.
 Stoichiometry    C6H5F4NOS
 Framework group  C1[X(C6H5F4NOS)]
 Deg. of freedom    48
 Full point group                 C1      NOp   1
 Rotational constants (GHZ):      0.9946328      0.3164741      0.2785954
 Standard basis: 6-31G(d) (6D, 7F)
 Integral buffers will be    131072 words long.
 Raffenetti 1 integral format.
 Two-electron integral symmetry is turned off.
   209 basis functions,   408 primitive gaussians,   209 cartesian basis functions
    54 alpha electrons       54 beta electrons
       nuclear repulsion energy       903.2726769797 Hartrees.
 NAtoms=   18 NActive=   18 NUniq=   18 SFac= 7.50D-01 NAtFMM=   80 NAOKFM=F Big=F
 One-electron integrals computed using PRISM.
 NBasis=   209 RedAO= T  NBF=   209
 NBsUse=   209 1.00D-06 NBFU=   209
 Initial guess read from the read-write file.
 B after Tr=     0.000000    0.000000    0.000000
         Rot=    1.000000    0.000000    0.000000    0.000000 Ang=   0.00 deg.
 Requested convergence on RMS density matrix=1.00D-08 within 128 cycles.
 Requested convergence on MAX density matrix=1.00D-06.
 Requested convergence on             energy=1.00D-06.
 No special actions if energy rises.
 SCF Done:  E(RHF) =  -1154.67433016     A.U. after    6 cycles
             Convg  =    0.6577D-08             -V/T =  2.0019
 Calling FoFJK, ICntrl=      2127 FMM=F ISym2X=0 I1Cent= 0 IOpClX= 0 NMat=1 NMatS=1 NMatT=0.
 -------------------------------------------------------------------
 Center     Atomic                   Forces (Hartrees/Bohr)
 Number     Number              X              Y              Z
 -------------------------------------------------------------------
      1        9           0.000000000    0.000000000    0.000000000
      2        6           0.000000000    0.000000000    0.000000000
      3        6           0.000000000    0.000000000    0.000000000
      4        6           0.000000000    0.000000000    0.000000000
      5        6           0.000000000    0.000000000    0.000000000
      6        9           0.000000000    0.000000000    0.000000000
      7        9           0.000000000    0.000000000    0.000000000
      8        9           0.000000000    0.000000000    0.000000000
      9        6           0.000000000    0.000000000    0.000000000
     10        7           0.000000000    0.000000000    0.000000000
     11        6           0.000000000    0.000000000    0.000000000
     12       16           0.000000000    0.000000000    0.000000000
     13        1           0.000000000    0.000000000    0.000000000
     14        1           0.000000000    0.000000000    0.000000000
     15        1           0.000000000    0.000000000    0.000000000
     16        1           0.003849988    0.006318621    0.007752422
     17        8          -0.002694779   -0.014738801   -0.001309642
     18        1          -0.001007106    0.008426443   -0.006563251
 -------------------------------------------------------------------
 Cartesian Forces:  Max     0.014738801 RMS     0.002906417
 -----------------------------------------------------------------------------------------------
                       Internal Coordinate Forces (Hartree/Bohr or radian)
  Cent   Atom   N1       Length/X         N2         Alpha/Y        N3         Beta/Z          J
 -----------------------------------------------------------------------------------------------
      1  F 
      2  C 
      3  C 
      4  C 
      5  C 
      6  F 
      7  F 
      8  F 
      9  C 
     10  N 
     11  C 
     12  S 
     13  H 
     14  H 
     15  H 
         X        8   0.000000(     1)      5   0.000312(     7)      4   0.000191(    13)     0
         X       16   0.000000(     2)      8   0.000000(     8)      5   0.000410(    14)     0
     16  H        8  -0.000045(     3)     16   0.000312(     9)     17  -0.000410(    15)     0
         X       18   0.000000(     4)      8  -0.000476(    10)     16   0.000000(    16)     0
     17  O       18  -0.010676(     5)     19  -0.000476(    11)      8   0.000297(    17)     0
     18  H       20  -0.010649(     6)     18   0.002343(    12)     16   0.000191(    18)     0
 -----------------------------------------------------------------------------------------------
 Internal  Forces:  Max     0.010676239 RMS     0.003605748

 GradGradGradGradGradGradGradGradGradGradGradGradGradGradGradGradGradGrad
 Berny optimization.
 Search for a local minimum.
 Step number   4 out of a maximum of   20
 All quantities printed in internal units (Hartrees-Bohrs-Radians)
 Update second derivatives using D2CorN and points    3    4
 DE= -1.14D-06 DEPred=-1.15D-06 R= 9.93D-01
 SS=  1.41D+00  RLast= 1.79D-02 DXNew= 5.0454D-01 5.3727D-02
 Trust test= 9.93D-01 RLast= 1.79D-02 DXMaxT set to 3.00D-01
 The second derivative matrix:
                          RX       RDUM       ROH      ADUM      AHOH
           RX           0.00208
           RDUM         0.00000   0.00000
           ROH         -0.00015   0.00000   1.12160
           ADUM        -0.00041   0.00000   0.00000   2.14546
           AHOH         0.00025   0.00000   0.00000   0.00000   0.16000
           DDUM         0.00018   0.00000   0.00000   0.08002   0.00000
           DH1         -0.00013   0.00000   0.00000  -0.08002   0.00000
           DOH2         0.00000   0.00000   0.00000  -0.12502   0.00000
           DH2          0.00005   0.00000   0.00000   0.00000   0.00000
                         DDUM       DH1      DOH2       DH2
           DDUM         0.18244
           DH1         -0.18244   0.18244
           DOH2         0.00000   0.00000   0.28507
           DH2          0.00000   0.00000   0.00000   0.00000
     Eigenvalues ---    0.002081000.000001000.000001000.000001000.00000
     Eigenvalues --- 1000.000001000.000001000.000001000.00000
 RFO step:  Lambda= 0.00000000D+00 EMin= 2.07745078D-03
 Quartic linear search produced a step of  1.15661.
 Variable       Old X    -DE/DX   Delta X   Delta X   Delta X     New X
                                 (Linear)    (Quad)   (Total)
    RX        4.46394  -0.00005  -0.02071   0.00000  -0.02071   4.44323
   RDUM       1.88973   0.00000   0.00000   0.00000   0.00000   1.88973
   ROH        1.80885  -0.02133   0.00000   0.00000   0.00000   1.80885
   ADUM       1.57080  -0.00033   0.00000   0.00000   0.00000   1.57080
   AHOH       1.82422   0.00234   0.00000   0.00000   0.00000   1.82422
   DDUM       0.00000   0.00060   0.00000   0.00000   0.00000   0.00000
   DH1        3.14159  -0.00041   0.00000   0.00000   0.00000   3.14159
   DOH2       3.14159   0.00030   0.00000   0.00000   0.00000   3.14159
   DH2        1.57080   0.00019   0.00000   0.00000   0.00000   1.57080
         Item               Value     Threshold  Converged?
 Maximum Force            0.000045     0.000450     YES
 RMS     Force            0.000045     0.000300     YES
 Maximum Displacement     0.020714     0.001800     NO 
 RMS     Displacement     0.006905     0.001200     NO 
 Predicted change in Energy=-4.885318D-07
 GradGradGradGradGradGradGradGradGradGradGradGradGradGradGradGradGradGrad

 ---------------------------------------------------------------------------------------------------
                            Z-MATRIX (ANGSTROMS AND DEGREES)
   CD    Cent   Atom    N1       Length/X        N2       Alpha/Y        N3        Beta/Z          J
 ---------------------------------------------------------------------------------------------------
      1      1  F       -1  -1.969300          2.053680          0.000070
      2      2  C       -1  -1.222250          0.944230          0.000030
      3      3  C       -1   0.140030          1.057400         -0.000020
      4      4  C       -1   0.927950         -0.123640         -0.000080
      5      5  C       -1   2.414660         -0.018650         -0.000010
      6      6  F       -1   3.007080         -1.234610         -0.000560
      7      7  F       -1   2.858290          0.654480         -1.086020
      8      8  F       -1   2.858270          0.653500          1.086650
      9      9  C       -1   0.306540         -1.341490         -0.000090
     10     10  N       -1  -1.054170         -1.389970         -0.000060
     11     11  C       -1  -1.930500         -0.312100          0.000000
     12     12  S       -1  -3.570980         -0.506610          0.000030
     13     13  H       -1   0.596860          2.043100         -0.000020
     14     14  H       -1   0.831760         -2.288990         -0.000150
     15     15  H       -1  -1.521480         -2.296390         -0.000090
     16         X        8   1.000000(    15)      5   90.000(    34)      4    0.000(    52)      0
     17         X       16   1.000000(    16)      8   90.000(    35)      5    0.000(    53)      0
     18     16  H        8   2.351254(    17)     16   90.000(    36)     17  180.000(    54)      0
     19         X       18   1.000000(    18)      8   90.000(    37)     16    0.000(    55)      0
     20     17  O       18   0.957200(    19)     19   90.000(    38)      8  180.000(    56)      0
     21     18  H       20   0.957200(    20)     18  104.520(    39)     16   90.000(    57)      0
 ---------------------------------------------------------------------------------------------------
                         Z-Matrix orientation:                         
 ---------------------------------------------------------------------
 Center     Atomic      Atomic             Coordinates (Angstroms)
 Number     Number       Type             X           Y           Z
 ---------------------------------------------------------------------
      1          9           0       -1.969300    2.053680    0.000070
      2          6           0       -1.222250    0.944230    0.000030
      3          6           0        0.140030    1.057400   -0.000020
      4          6           0        0.927950   -0.123640   -0.000080
      5          6           0        2.414660   -0.018650   -0.000010
[...]
 !      DOH2       180.0      -DE/DX =    0.0003                        !
 !       DH2        90.0      -DE/DX =    0.0002                        !
 ------------------------------------------------------------------------
 GradGradGradGradGradGradGradGradGradGradGradGradGradGradGradGradGradGrad

 ---------------------------------------------------------------------------------------------------
                            Z-MATRIX (ANGSTROMS AND DEGREES)
   CD    Cent   Atom    N1       Length/X        N2       Alpha/Y        N3        Beta/Z          J
 ---------------------------------------------------------------------------------------------------
      1      1  F       -1  -1.969300          2.053680          0.000070
      2      2  C       -1  -1.222250          0.944230          0.000030
      3      3  C       -1   0.140030          1.057400         -0.000020
      4      4  C       -1   0.927950         -0.123640         -0.000080
      5      5  C       -1   2.414660         -0.018650         -0.000010
      6      6  F       -1   3.007080         -1.234610         -0.000560
      7      7  F       -1   2.858290          0.654480         -1.086020
      8      8  F       -1   2.858270          0.653500          1.086650
      9      9  C       -1   0.306540         -1.341490         -0.000090
     10     10  N       -1  -1.054170         -1.389970         -0.000060
     11     11  C       -1  -1.930500         -0.312100          0.000000
     12     12  S       -1  -3.570980         -0.506610          0.000030
     13     13  H       -1   0.596860          2.043100         -0.000020
     14     14  H       -1   0.831760         -2.288990         -0.000150
     15     15  H       -1  -1.521480         -2.296390         -0.000090
     16         X        8   1.000000(    15)      5   90.000(    34)      4    0.000(    52)      0
     17         X       16   1.000000(    16)      8   90.000(    35)      5    0.000(    53)      0
     18     16  H        8   2.351254(    17)     16   90.000(    36)     17  180.000(    54)      0
     19         X       18   1.000000(    18)      8   90.000(    37)     16    0.000(    55)      0
     20     17  O       18   0.957200(    19)     19   90.000(    38)      8  180.000(    56)      0
     21     18  H       20   0.957200(    20)     18  104.520(    39)     16   90.000(    57)      0
 ---------------------------------------------------------------------------------------------------
                         Z-Matrix orientation:                         
 ---------------------------------------------------------------------
 Center     Atomic      Atomic             Coordinates (Angstroms)
 Number     Number       Type             X           Y           Z
 ---------------------------------------------------------------------
      1          9           0       -1.969300    2.053680    0.000070
      2          6           0       -1.222250    0.944230    0.000030
      3          6           0        0.140030    1.057400   -0.000020
      4          6           0        0.927950   -0.123640   -0.000080
      5          6           0        2.414660   -0.018650   -0.000010
      6          9           0        3.007080   -1.234610   -0.000560
      7          9           0        2.858290    0.654480   -1.086020
      8          9           0        2.858270    0.653500    1.086650
      9          6           0        0.306540   -1.341490   -0.000090
     10          7           0       -1.054170   -1.389970   -0.000060
     11          6           0       -1.930500   -0.312100    0.000000
     12         16           0       -3.570980   -0.506610    0.000030
     13          1           0        0.596860    2.043100   -0.000020
     14          1           0        0.831760   -2.288990   -0.000150
     15          1           0       -1.521480   -2.296390   -0.000090
     16         -1           0        1.915537    0.771037    1.398802
     17         -1           0        1.587558    0.274088    0.595390
     18          1           0        3.629432    1.821952    2.975677
     19         -1           0        2.686699    1.939488    3.287830
     20          8           0        3.943374    2.297631    3.744704
     21          1           0        4.078325    1.620193    4.407349
 ---------------------------------------------------------------------
                    Distance matrix (angstroms):
                    1          2          3          4          5
     1  F    0.000000
     2  C    1.337521   0.000000
     3  C    2.332777   1.366973   0.000000
     4  C    3.624194   2.400772   1.419744   0.000000
     5  C    4.849088   3.762214   2.516312   1.490413   0.000000
     6  F    5.964663   4.757581   3.670597   2.357337   1.352598
     7  F    5.142274   4.232525   2.954772   2.347541   1.352527
     8  F    5.142625   4.232719   2.955134   2.347566   1.352555
     9  C    4.087374   2.749857   2.404662   1.367227   2.488790
    10  N    3.563171   2.340244   2.723184   2.352104   3.730054
    11  C    2.366098   1.442215   2.482463   2.864656   4.355058
    12  S    3.020011   2.760701   4.027123   4.515201   6.005497
    13  H    2.566182   2.125247   1.086415   2.191890   2.748674
    14  H    5.167661   3.830492   3.417136   2.167485   2.767673
    15  H    4.373060   3.254406   3.742796   3.274225   4.547669
    16  X    4.323608   3.439806   2.278406   1.932006   1.682084
    17  X    4.021516   2.949332   1.750265   0.973578   1.060328
    18  H    6.344584   5.758793   4.649220   4.465251   3.703809
    19  X    5.700941   5.203850   4.251301   4.261461   3.836431
    20  O    7.002965   6.522112   5.479649   5.383191   4.661009
    21  H    7.495718   6.926578   5.937323   5.691331   4.987825
                    6          7          8          9         10
     6  F    0.000000
     7  F    2.183809   0.000000
     8  F    2.183834   2.172670   0.000000
     9  C    2.702654   3.416807   3.416477   0.000000
    10  N    4.064221   4.546034   4.545756   1.361573   0.000000
    11  C    5.023019   5.004620   5.004549   2.462517   1.389157
    12  S    6.618222   6.622926   6.622828   3.966382   2.667332
    13  H    4.068482   2.867355   2.868068   3.397019   3.809445
    14  H    2.417382   3.734964   3.734451   1.083334   2.089251
    15  H    4.651369   5.391592   5.391203   2.062399   1.019792
    16  X    2.678115   2.660209   1.000000   3.001423   3.930130
    17  X    2.155544   2.141634   1.414214   2.146088   3.178423
    18  H    4.311366   4.295933   2.351254   5.468470   6.411520
    19  X    4.581599   4.561935   2.555072   5.219233   5.990794
    20  O    5.232626   5.216632   3.308454   6.363430   7.252386
    21  H    5.359770   5.709483   3.667434   6.513329   7.404650
                   11         12         13         14         15
    11  C    0.000000
    12  S    1.651971   0.000000
    13  H    3.454637   4.885889   0.000000
    14  H    3.396789   4.749842   4.338454   0.000000
    15  H    2.026007   2.720986   4.828927   2.353252   0.000000
    16  X    4.233419   5.804379   2.305159   3.534884   4.814467
    17  X    3.615914   5.251138   2.113148   2.737749   4.077753
    18  H    6.657453   8.131581   4.254430   5.795029   7.235180
    19  X    6.099017   7.480079   3.897194   5.668478   6.816293
    20  O    7.438810   8.851659   5.028608   6.689033   8.061832
    21  H    7.698341   9.080728   5.632437   6.726659   8.131603
                   16         17         18         19         20
    16  X    0.000000
    17  X    1.000000   0.000000
    18  H    2.555072   3.497271   0.000000
    19  X    2.351254   3.351254   1.000000   0.000000
    20  O    3.456279   4.422983   0.957200   1.384280   0.000000
    21  H    3.801325   4.748363   1.513901   1.814358   0.957200
                   21
    21  H    0.000000
 Symmetry turned off by external request.
 Stoichiometry    C6H5F4NOS
 Framework group  C1[X(C6H5F4NOS)]
 Deg. of freedom    48
 Full point group                 C1      NOp   1
 Rotational constants (GHZ):      0.9965171      0.3166978      0.2788734

 **********************************************************************

            Population analysis using the SCF density.

 **********************************************************************

 Alpha  occ. eigenvalues --  -91.90710 -26.37549 -26.37349 -26.36500 -26.33612
 Alpha  occ. eigenvalues --  -20.55704 -15.68997 -11.55007 -11.38073 -11.37430
 Alpha  occ. eigenvalues --  -11.36514 -11.31472 -11.30717  -8.91797  -6.60124
 Alpha  occ. eigenvalues --   -6.59849  -6.59722  -1.74985  -1.66018  -1.65296
 Alpha  occ. eigenvalues --   -1.64858  -1.35833  -1.33898  -1.17506  -1.12338
 Alpha  occ. eigenvalues --   -1.03495  -0.97660  -0.93033  -0.88581  -0.85377
 Alpha  occ. eigenvalues --   -0.84570  -0.84251  -0.77390  -0.76242  -0.74175
 Alpha  occ. eigenvalues --   -0.73196  -0.72366  -0.71487  -0.70548  -0.70421
 Alpha  occ. eigenvalues --   -0.68505  -0.68240  -0.67014  -0.64367  -0.62809
 Alpha  occ. eigenvalues --   -0.61135  -0.59782  -0.56818  -0.52811  -0.49512
 Alpha  occ. eigenvalues --   -0.46908  -0.43516  -0.34330  -0.31234
 Alpha virt. eigenvalues --    0.04225   0.08371   0.17395   0.21553   0.24331
 Alpha virt. eigenvalues --    0.24906   0.26180   0.26238   0.29214   0.31352
 Alpha virt. eigenvalues --    0.33661   0.35103   0.38985   0.40869   0.42223
 Alpha virt. eigenvalues --    0.43735   0.46401   0.49223   0.53865   0.55232
 Alpha virt. eigenvalues --    0.56488   0.59489   0.60953   0.64093   0.66299
 Alpha virt. eigenvalues --    0.67376   0.71599   0.72744   0.73201   0.75099
 Alpha virt. eigenvalues --    0.76879   0.77624   0.82655   0.84195   0.87234
 Alpha virt. eigenvalues --    0.88769   0.89575   0.91864   0.95414   0.99505
 Alpha virt. eigenvalues --    1.01878   1.02377   1.02602   1.04413   1.07269
 Alpha virt. eigenvalues --    1.08979   1.09507   1.12491   1.13293   1.14973
 Alpha virt. eigenvalues --    1.15827   1.17007   1.17295   1.18183   1.24144
 Alpha virt. eigenvalues --    1.28049   1.29134   1.31016   1.32631   1.33887
 Alpha virt. eigenvalues --    1.34501   1.36871   1.40927   1.41766   1.42090
 Alpha virt. eigenvalues --    1.44430   1.47135   1.51812   1.59568   1.60076
 Alpha virt. eigenvalues --    1.60813   1.62831   1.63244   1.63914   1.64658
 Alpha virt. eigenvalues --    1.65703   1.67100   1.69404   1.69742   1.71693
 Alpha virt. eigenvalues --    1.73512   1.75952   1.76772   1.80969   1.86205
 Alpha virt. eigenvalues --    1.91244   1.91893   1.93299   1.99450   2.02326
 Alpha virt. eigenvalues --    2.03632   2.04077   2.05503   2.07032   2.08584
 Alpha virt. eigenvalues --    2.09834   2.11425   2.12157   2.17758   2.19979
 Alpha virt. eigenvalues --    2.22024   2.22120   2.24198   2.27929   2.29311
 Alpha virt. eigenvalues --    2.29951   2.32318   2.33387   2.34159   2.35346
 Alpha virt. eigenvalues --    2.37552   2.38804   2.42967   2.44599   2.45301
 Alpha virt. eigenvalues --    2.46619   2.51886   2.60343   2.61649   2.63590
 Alpha virt. eigenvalues --    2.65081   2.67776   2.74731   2.82504   2.84254
 Alpha virt. eigenvalues --    2.84287   2.90875   2.92531   2.92969   2.94992
 Alpha virt. eigenvalues --    2.99854   3.06645   3.09187   3.16827   3.21681
 Alpha virt. eigenvalues --    3.29127   3.37225   3.38378   3.42660   3.44836
 Alpha virt. eigenvalues --    3.49187   3.70879   4.02310   4.36089   4.39816
 Alpha virt. eigenvalues --    4.44751   4.47951   4.59790   4.63817   4.72697
 Alpha virt. eigenvalues --    4.81742   5.02616   5.16417   5.57542   6.02591
          Condensed to atoms (all electrons):
              1          2          3          4          5          6
     1  F    9.158200   0.268162  -0.033648   0.002211  -0.000015   0.000000
     2  C    0.268162   4.573717   0.570485  -0.026354   0.000782  -0.000019
     3  C   -0.033648   0.570485   5.069062   0.352933  -0.012587   0.002164
     4  C    0.002211  -0.026354   0.352933   5.206911   0.419612  -0.045325
     5  C   -0.000015   0.000782  -0.012587   0.419612   3.551739   0.289973
     6  F    0.000000  -0.000019   0.002164  -0.045325   0.289973   9.185553
     7  F    0.000000   0.000293   0.005061  -0.055482   0.286612  -0.030743
     8  F    0.000000   0.000290   0.005077  -0.054195   0.273457  -0.030203
     9  C    0.000133  -0.023040  -0.054366   0.591894  -0.021108   0.005401
    10  N    0.001382  -0.053307  -0.021147  -0.035830   0.001222   0.000237
    11  C   -0.040757   0.377667  -0.079396  -0.001167   0.000082   0.000002
    12  S    0.003529  -0.083380   0.001584  -0.000051   0.000006   0.000000
    13  H   -0.000283  -0.016605   0.368327  -0.030510  -0.000249   0.000034
    14  H    0.000000  -0.000114   0.001800  -0.022895  -0.000134   0.004962
    15  H   -0.000018   0.003858  -0.000574   0.002350  -0.000016   0.000001
    16  H    0.000000   0.000000   0.000008   0.000069   0.000080   0.000011
    17  O    0.000000   0.000000   0.000000  -0.000003   0.000010   0.000000
    18  H    0.000000   0.000000   0.000000   0.000000   0.000000   0.000000
              7          8          9         10         11         12
     1  F    0.000000   0.000000   0.000133   0.001382  -0.040757   0.003529
     2  C    0.000293   0.000290  -0.023040  -0.053307   0.377667  -0.083380
     3  C    0.005061   0.005077  -0.054366  -0.021147  -0.079396   0.001584
     4  C   -0.055482  -0.054195   0.591894  -0.035830  -0.001167  -0.000051
     5  C    0.286612   0.273457  -0.021108   0.001222   0.000082   0.000006
     6  F   -0.030743  -0.030203   0.005401   0.000237   0.000002   0.000000
     7  F    9.196064  -0.033452   0.000504  -0.000006  -0.000002   0.000000
     8  F   -0.033452   9.210420   0.000460  -0.000005  -0.000002   0.000000
     9  C    0.000504   0.000460   4.733463   0.266909  -0.038438   0.003324
    10  N   -0.000006  -0.000005   0.266909   7.235766   0.211269  -0.104557
    11  C   -0.000002  -0.000002  -0.038438   0.211269   4.957132   0.447196
    12  S    0.000000   0.000000   0.003324  -0.104557   0.447196  15.944919
    13  H    0.000890   0.000878   0.002396  -0.000260   0.002614  -0.000055
    14  H    0.000083   0.000082   0.380141  -0.031940   0.000956  -0.000133
    15  H    0.000000   0.000000  -0.021514   0.309791  -0.017807   0.013791
    16  H    0.000012   0.008638   0.000000   0.000000   0.000000   0.000000
    17  O    0.000000  -0.000751   0.000000   0.000000   0.000000   0.000000
    18  H    0.000000  -0.000023   0.000000   0.000000   0.000000   0.000000
             13         14         15         16         17         18
     1  F   -0.000283   0.000000  -0.000018   0.000000   0.000000   0.000000
     2  C   -0.016605  -0.000114   0.003858   0.000000   0.000000   0.000000
     3  C    0.368327   0.001800  -0.000574   0.000008   0.000000   0.000000
     4  C   -0.030510  -0.022895   0.002350   0.000069  -0.000003   0.000000
     5  C   -0.000249  -0.000134  -0.000016   0.000080   0.000010   0.000000
     6  F    0.000034   0.004962   0.000001   0.000011   0.000000   0.000000
     7  F    0.000890   0.000083   0.000000   0.000012   0.000000   0.000000
     8  F    0.000878   0.000082   0.000000   0.008638  -0.000751  -0.000023
     9  C    0.002396   0.380141  -0.021514   0.000000   0.000000   0.000000
    10  N   -0.000260  -0.031940   0.309791   0.000000   0.000000   0.000000
    11  C    0.002614   0.000956  -0.017807   0.000000   0.000000   0.000000
    12  S   -0.000055  -0.000133   0.013791   0.000000   0.000000   0.000000
    13  H    0.390229  -0.000062   0.000008   0.000002   0.000000   0.000000
    14  H   -0.000062   0.381451  -0.002128   0.000000   0.000000   0.000000
    15  H    0.000008  -0.002128   0.270154   0.000000   0.000000   0.000000
    16  H    0.000002   0.000000   0.000000   0.309553   0.262096  -0.018528
    17  O    0.000000   0.000000   0.000000   0.262096   8.351178   0.265532
    18  H    0.000000   0.000000   0.000000  -0.018528   0.265532   0.322189
 Mulliken atomic charges:
              1
     1  F   -0.358897
     2  C    0.407565
     3  C   -0.174782
     4  C   -0.304167
     5  C    1.210534
     6  F   -0.382049
     7  F   -0.369833
     8  F   -0.380671
     9  C    0.173843
    10  N   -0.779523
    11  C    0.180651
    12  S   -0.226173
    13  H    0.282645
    14  H    0.287930
    15  H    0.442103
    16  H    0.438058
    17  O   -0.878063
    18  H    0.430830
 Sum of Mulliken atomic charges =   0.00000
 Mulliken charges with hydrogens summed into heavy atoms:
              1
     1  F   -0.358897
     2  C    0.407565
     3  C    0.107863
     4  C   -0.304167
     5  C    1.210534
     6  F   -0.382049
     7  F   -0.369833
     8  F   -0.380671
     9  C    0.461773
    10  N   -0.337420
    11  C    0.180651
    12  S   -0.226173
    17  O   -0.009175
 Sum of Mulliken charges with hydrogens summed into heavy atoms =   0.00000
 Electronic spatial extent (au):  <R**2>=           3879.3776
 Charge=              0.0000 electrons
 Dipole moment (field-independent basis, Debye):
    X=              2.9432    Y=             -4.9042    Z=             -0.4203  Tot=              5.7350
 Quadrupole moment (field-independent basis, Debye-Ang):
   XX=           -108.6452   YY=            -80.2569   ZZ=            -81.7628
   XY=             -7.6270   XZ=             -1.8922   YZ=             -9.2015
 Traceless Quadrupole moment (field-independent basis, Debye-Ang):
   XX=            -18.4235   YY=              9.9647   ZZ=              8.4588
   XY=             -7.6270   XZ=             -1.8922   YZ=             -9.2015
 Octapole moment (field-independent basis, Debye-Ang**2):
  XXX=              1.9887  YYY=            -80.5914  ZZZ=            -60.9156  XYY=            -40.5753
  XXY=            -52.0522  XXZ=            -34.7340  XZZ=             -7.1533  YZZ=            -43.5256
  YYZ=            -60.6766  XYZ=            -36.9513
 Hexadecapole moment (field-independent basis, Debye-Ang**3):
 XXXX=          -3407.3962 YYYY=           -727.5217 ZZZZ=           -572.2541 XXXY=           -392.4778
 XXXZ=           -346.9109 YYYX=           -289.3145 YYYZ=           -274.8250 ZZZX=           -222.2199
 ZZZY=           -272.1512 XXYY=           -800.9984 XXZZ=           -629.3171 YYZZ=           -373.0406
 XXYZ=           -206.7128 YYXZ=           -239.9848 ZZXY=           -202.0795
 N-N= 9.034495317394D+02 E-N=-4.544354395878D+03  KE= 1.152539270016D+03
 1\1\GINC-B1\FOpt\RHF\6-31G(d)\C6H5F4N1O1S1\ANA\24-Sep-2021\1\\#HF/6-31
 G* Opt=Z-matrix NoSymm\\water interaction with atom F8\\0,1\F,-1,-1.96
 93,2.05368,0.00007\C,-1,-1.22225,0.94423,0.00003\C,-1,0.14003,1.0574,-
 0.00002\C,-1,0.92795,-0.12364,-0.00008\C,-1,2.41466,-0.01865,-0.00001\
 F,-1,3.00708,-1.23461,-0.00056\F,-1,2.85829,0.65448,-1.08602\F,-1,2.85
 827,0.6535,1.08665\C,-1,0.30654,-1.34149,-0.00009\N,-1,-1.05417,-1.389
 97,-0.00006\C,-1,-1.9305,-0.3121,0.\S,-1,-3.57098,-0.50661,0.00003\H,-
 1,0.59686,2.0431,-0.00002\H,-1,0.83176,-2.28899,-0.00015\H,-1,-1.52148
 ,-2.29639,-0.00009\X,8,RDUM,5,ADUM,4,DDUM,0\X,16,RDUM,8,ADUM,5,DDUM,0\
 H,8,RX,16,ADUM,17,DH1,0\X,18,RDUM,8,ADUM,16,DDUM,0\O,18,ROH,19,ADUM,8,
 DOH2,0\H,20,ROH,18,AHOH,16,DH2,0\\RX=2.35125399\RDUM=1.\ROH=0.9572\ADU
 M=90.\AHOH=104.52\DDUM=0.\DH1=180.\DOH2=180.\DH2=90.\\Version=EM64L-G0
 9RevA.01\HF=-1154.6743306\RMSD=7.858e-09\RMSF=2.911e-03\Dipole=1.15793
 01,-1.929448,-0.1653419\Quadrupole=-13.6974398,7.4085277,6.2889122,-5.
 6705023,-1.4068126,-6.8410677\PG=C01 [X(C6H5F4N1O1S1)]\\@


 THE THINKER DIES, BUT HIS THOUGHTS ARE BEYOND THE 
 REACH OF DESTRUCTION.  MEN ARE MORTAL; BUT IDEAS 
 ARE IMMORTAL.
                              -- WALTER LIPPMANN
 Job cpu time:  0 days  0 hours  3 minutes 55.1 seconds.
 File lengths (MBytes):  RWF=     33 Int=      0 D2E=      0 Chk=      3 Scr=      1
 Normal termination of Gaussian 09 at Fri Sep 24 08:12:33 2021.
