 Entering Gaussian System, Link 0=g16
 Initial command:
 /home/alexey/programs//g16/l1.exe "/home/alexey/tmp/Gau-1521552.inp" -scrdir="/home/alexey/tmp/"
 Entering Link 1 = /home/alexey/programs//g16/l1.exe PID=   1521554.
  
 Copyright (c) 1988-2021, Gaussian, Inc.  All Rights Reserved.
  
 This is part of the Gaussian(R) 16 program.  It is based on
 the Gaussian(R) 09 system (copyright 2009, Gaussian, Inc.),
 the Gaussian(R) 03 system (copyright 2003, Gaussian, Inc.),
 the Gaussian(R) 98 system (copyright 1998, Gaussian, Inc.),
 the Gaussian(R) 94 system (copyright 1995, Gaussian, Inc.),
 the Gaussian 92(TM) system (copyright 1992, Gaussian, Inc.),
 the Gaussian 90(TM) system (copyright 1990, Gaussian, Inc.),
 the Gaussian 88(TM) system (copyright 1988, Gaussian, Inc.),
 the Gaussian 86(TM) system (copyright 1986, Carnegie Mellon
 University), and the Gaussian 82(TM) system (copyright 1983,
 Carnegie Mellon University). Gaussian is a federally registered
 trademark of Gaussian, Inc.
  
 This software contains proprietary and confidential information,
 including trade secrets, belonging to Gaussian, Inc.
  
 This software is provided under written license and may be
 used, copied, transmitted, or stored only in accord with that
 written license.
  
 The following legend is applicable only to US Government
 contracts under FAR:
  
                    RESTRICTED RIGHTS LEGEND
  
 Use, reproduction and disclosure by the US Government is
 subject to restrictions as set forth in subparagraphs (a)
 and (c) of the Commercial Computer Software - Restricted
 Rights clause in FAR 52.227-19.
  
 Gaussian, Inc.
 340 Quinnipiac St., Bldg. 40, Wallingford CT 06492
  
  
 ---------------------------------------------------------------
 Warning -- This program may not be used in any manner that
 competes with the business of Gaussian, Inc. or will provide
 assistance to any competitor of Gaussian, Inc.  The licensee
 of this program is prohibited from giving any competitor of
 Gaussian, Inc. access to this program.  By using this program,
 the user acknowledges that Gaussian, Inc. is engaged in the
 business of creating and licensing software in the field of
 computational chemistry and represents and warrants to the
 licensee that it is not a competitor of Gaussian, Inc. and that
 it will not use this program in any manner prohibited above.
 ---------------------------------------------------------------
  

 Cite this work as:
 Gaussian 16, Revision C.02,
 M. J. Frisch, G. W. Trucks, H. B. Schlegel, G. E. Scuseria, 
 M. A. Robb, J. R. Cheeseman, G. Scalmani, V. Barone, 
 G. A. Petersson, H. Nakatsuji, X. Li, M. Caricato, A. V. Marenich, 
 J. Bloino, B. G. Janesko, R. Gomperts, B. Mennucci, H. P. Hratchian, 
 J. V. Ortiz, A. F. Izmaylov, J. L. Sonnenberg, D. Williams-Young, 
 F. Ding, F. Lipparini, F. Egidi, J. Goings, B. Peng, A. Petrone, 
 T. Henderson, D. Ranasinghe, V. G. Zakrzewski, J. Gao, N. Rega, 
 G. Zheng, W. Liang, M. Hada, M. Ehara, K. Toyota, R. Fukuda, 
 J. Hasegawa, M. Ishida, T. Nakajima, Y. Honda, O. Kitao, H. Nakai, 
 T. Vreven, K. Throssell, J. A. Montgomery, Jr., J. E. Peralta, 
 F. Ogliaro, M. J. Bearpark, J. J. Heyd, E. N. Brothers, K. N. Kudin, 
 V. N. Staroverov, T. A. Keith, R. Kobayashi, J. Normand, 
 K. Raghavachari, A. P. Rendell, J. C. Burant, S. S. Iyengar, 
 J. Tomasi, M. Cossi, J. M. Millam, M. Klene, C. Adamo, R. Cammi, 
 J. W. Ochterski, R. L. Martin, K. Morokuma, O. Farkas, 
 J. B. Foresman, and D. J. Fox, Gaussian, Inc., Wallingford CT, 2019.
 
 ******************************************
 Gaussian 16:  ES64L-G16RevC.02  7-Dec-2021
                 2-Jul-2023 
 ******************************************
 %mem=8GB
 %NPROCS=4
 Will use up to    4 processors via shared memory.
 %NoSave
 ---------------------------------------------------------
 #MP2/6-31G* SCF=Tight Opt=(ModRedun, MaxCycle=20 ) NoSymm
 ---------------------------------------------------------
 1/6=20,18=120,19=15,38=1/1,3;
 2/9=110,12=2,15=1,17=6,18=5,40=1/2;
 3/5=1,6=6,7=1,11=9,25=1,30=1,71=1/1,2,3;
 4//1;
 5/5=2,32=2,38=5/2;
 8/6=4,10=2/1;
 9/15=2,16=-3/6;
 10/5=1,31=1/2;
 6/7=2,8=2,9=2,10=2/1;
 7/12=2,30=1/1,2,3,16;
 1/6=20,18=20,19=15/3(2);
 2/9=110,15=1/2;
 99//99;
 2/9=110,15=1/2;
 3/5=1,6=6,7=1,11=9,25=1,30=1,71=1/1,2,3;
 4/5=5,16=3,69=1/1;
 5/5=2,32=2,38=5/2;
 8/6=4,10=2/1;
 9/15=2,16=-3/6;
 10/5=1,31=1/2;
 7/12=2,30=1/1,2,3,16;
 1/6=20,18=20,19=15/3(-8);
 2/9=110,15=1/2;
 6/7=2,8=2,9=2,10=2/1;
 99/9=10/99;
 --------
 MolName:
 --------
 Symbolic Z-matrix:
 Charge =  0 Multiplicity = 1
 8                    0    -3.64243  -1.30868  -0.55102 
 7                    0    -3.21503  -0.16463  -0.40694 
 8                    0    -3.91021   0.84212  -0.55076 
 6                    0    -1.73152   0.0071   -0.06284 
 6                    0    -1.33341   1.30942   0.26199 
 7                    0    -0.08114   1.69875   0.64776 
 6                    0     1.20496   0.96764   0.48211 
 1                    0     1.93328   1.48129   1.16242 
 6                    0     1.82988   1.03793  -0.93398 
 6                    0     3.26589   0.48216  -0.88542 
 6                    0     3.29117  -0.93547  -0.29181 
 6                    0     2.57326  -0.98724   1.07434 
 6                    0     1.10815  -0.48243   0.96609 
 1                    0     0.65159  -0.53002   1.98252 
 7                    0     0.37854  -1.37713   0.06552 
 6                    0    -0.89239  -1.22606  -0.1201 
 1                    0    -2.09102   2.10996   0.23264 
 1                    0     0.15158   2.69246   0.71567 
 1                    0     1.21967   0.44888  -1.65128 
 1                    0     1.85568   2.09009  -1.28881 
 1                    0     3.70257   0.46998  -1.90803 
 1                    0     3.8943    1.14755  -0.25231 
 1                    0     2.78678  -1.63308  -0.99799 
 1                    0     4.34258  -1.27827  -0.17702 
 1                    0     2.57373  -2.03434   1.44881 
 1                    0     3.1276   -0.36537   1.80803 
 1                    0    -1.43306  -2.10063  -0.51159 
 
 The following ModRedundant input section has been read:
 D       5       6       7       8 F                                           
 D       1       2       4      16 F                                           
 D       7      13      15      16 F                                           
 D       7       9      10      11 F                                           
 D       9      10      11      12 F                                           
 D       6       7      13      15 F                                           
 

 GradGradGradGradGradGradGradGradGradGradGradGradGradGradGradGradGradGrad
 Berny optimization.
 Initialization pass.
                           ----------------------------
                           !    Initial Parameters    !
                           ! (Angstroms and Degrees)  !
 --------------------------                            --------------------------
 ! Name  Definition              Value          Derivative Info.                !
 --------------------------------------------------------------------------------
 ! R1    R(1,2)                  1.2297         estimate D2E/DX2                !
 ! R2    R(2,3)                  1.2319         estimate D2E/DX2                !
 ! R3    R(2,4)                  1.5325         estimate D2E/DX2                !
 ! R4    R(4,5)                  1.4            estimate D2E/DX2                !
 ! R5    R(4,16)                 1.4927         estimate D2E/DX2                !
 ! R6    R(5,6)                  1.367          estimate D2E/DX2                !
 ! R7    R(5,17)                 1.1026         estimate D2E/DX2                !
 ! R8    R(6,7)                  1.4886         estimate D2E/DX2                !
 ! R9    R(6,18)                 1.0229         estimate D2E/DX2                !
 ! R10   R(7,8)                  1.1212         estimate D2E/DX2                !
 ! R11   R(7,9)                  1.5494         estimate D2E/DX2                !
 ! R12   R(7,13)                 1.5318         estimate D2E/DX2                !
 ! R13   R(9,10)                 1.5406         estimate D2E/DX2                !
 ! R14   R(9,19)                 1.1108         estimate D2E/DX2                !
 ! R15   R(9,20)                 1.1107         estimate D2E/DX2                !
 ! R16   R(10,11)                1.5371         estimate D2E/DX2                !
 ! R17   R(10,21)                1.112          estimate D2E/DX2                !
 ! R18   R(10,22)                1.1129         estimate D2E/DX2                !
 ! R19   R(11,12)                1.5442         estimate D2E/DX2                !
 ! R20   R(11,23)                1.1134         estimate D2E/DX2                !
 ! R21   R(11,24)                1.1118         estimate D2E/DX2                !
 ! R22   R(12,13)                1.5534         estimate D2E/DX2                !
 ! R23   R(12,25)                1.112          estimate D2E/DX2                !
 ! R24   R(12,26)                1.1101         estimate D2E/DX2                !
 ! R25   R(13,14)                1.1153         estimate D2E/DX2                !
 ! R26   R(13,15)                1.4642         estimate D2E/DX2                !
 ! R27   R(15,16)                1.2933         estimate D2E/DX2                !
 ! R28   R(16,27)                1.1002         estimate D2E/DX2                !
 ! A1    A(1,2,3)              123.4006         estimate D2E/DX2                !
 ! A2    A(1,2,4)              117.8386         estimate D2E/DX2                !
 ! A3    A(3,2,4)              118.7447         estimate D2E/DX2                !
 ! A4    A(2,4,5)              115.5687         estimate D2E/DX2                !
 ! A5    A(2,4,16)             116.2948         estimate D2E/DX2                !
 ! A6    A(5,4,16)             128.136          estimate D2E/DX2                !
 ! A7    A(4,5,6)              126.2224         estimate D2E/DX2                !
 ! A8    A(4,5,17)             118.2828         estimate D2E/DX2                !
 ! A9    A(6,5,17)             115.4797         estimate D2E/DX2                !
 ! A10   A(5,6,7)              128.3292         estimate D2E/DX2                !
 ! A11   A(5,6,18)             120.2562         estimate D2E/DX2                !
 ! A12   A(7,6,18)             106.7358         estimate D2E/DX2                !
 ! A13   A(6,7,8)              105.5865         estimate D2E/DX2                !
 ! A14   A(6,7,9)              115.3323         estimate D2E/DX2                !
 ! A15   A(6,7,13)             112.035          estimate D2E/DX2                !
 ! A16   A(8,7,9)              105.7697         estimate D2E/DX2                !
 ! A17   A(8,7,13)             106.441          estimate D2E/DX2                !
 ! A18   A(9,7,13)             110.9286         estimate D2E/DX2                !
 ! A19   A(7,9,10)             109.3156         estimate D2E/DX2                !
 ! A20   A(7,9,19)             110.1549         estimate D2E/DX2                !
 ! A21   A(7,9,20)             110.1402         estimate D2E/DX2                !
 ! A22   A(10,9,19)            109.9444         estimate D2E/DX2                !
 ! A23   A(10,9,20)            109.2788         estimate D2E/DX2                !
 ! A24   A(19,9,20)            107.988          estimate D2E/DX2                !
 ! A25   A(9,10,11)            111.1136         estimate D2E/DX2                !
 ! A26   A(9,10,21)            109.9382         estimate D2E/DX2                !
 ! A27   A(9,10,22)            109.1829         estimate D2E/DX2                !
 ! A28   A(11,10,21)           109.7903         estimate D2E/DX2                !
 ! A29   A(11,10,22)           108.8108         estimate D2E/DX2                !
 ! A30   A(21,10,22)           107.9367         estimate D2E/DX2                !
 ! A31   A(10,11,12)           111.404          estimate D2E/DX2                !
 ! A32   A(10,11,23)           108.993          estimate D2E/DX2                !
 ! A33   A(10,11,24)           109.8636         estimate D2E/DX2                !
 ! A34   A(12,11,23)           109.2385         estimate D2E/DX2                !
 ! A35   A(12,11,24)           109.7536         estimate D2E/DX2                !
 ! A36   A(23,11,24)           107.4991         estimate D2E/DX2                !
 ! A37   A(11,12,13)           111.4656         estimate D2E/DX2                !
 ! A38   A(11,12,25)           109.2258         estimate D2E/DX2                !
 ! A39   A(11,12,26)           109.4989         estimate D2E/DX2                !
 ! A40   A(13,12,25)           109.2599         estimate D2E/DX2                !
 ! A41   A(13,12,26)           109.5717         estimate D2E/DX2                !
 ! A42   A(25,12,26)           107.7405         estimate D2E/DX2                !
 ! A43   A(7,13,12)            105.6669         estimate D2E/DX2                !
 ! A44   A(7,13,14)            110.746          estimate D2E/DX2                !
 ! A45   A(7,13,15)            114.5584         estimate D2E/DX2                !
 ! A46   A(12,13,14)           107.9823         estimate D2E/DX2                !
 ! A47   A(12,13,15)           108.3164         estimate D2E/DX2                !
 ! A48   A(14,13,15)           109.2983         estimate D2E/DX2                !
 ! A49   A(13,15,16)           120.4374         estimate D2E/DX2                !
 ! A50   A(4,16,15)            130.0496         estimate D2E/DX2                !
 ! A51   A(4,16,27)            113.2096         estimate D2E/DX2                !
 ! A52   A(15,16,27)           116.1775         estimate D2E/DX2                !
 ! D1    D(1,2,4,5)           -171.9768         estimate D2E/DX2                !
 ! D2    D(1,2,4,16)             8.2582         Frozen                          !
 ! D3    D(3,2,4,5)              9.4301         estimate D2E/DX2                !
 ! D4    D(3,2,4,16)          -170.3349         estimate D2E/DX2                !
 ! D5    D(2,4,5,6)            177.4937         estimate D2E/DX2                !
 ! D6    D(2,4,5,17)            -1.0232         estimate D2E/DX2                !
 ! D7    D(16,4,5,6)            -2.7742         estimate D2E/DX2                !
 ! D8    D(16,4,5,17)          178.7089         estimate D2E/DX2                !
 ! D9    D(2,4,16,15)          177.0633         estimate D2E/DX2                !
 ! D10   D(2,4,16,27)            6.1365         estimate D2E/DX2                !
 ! D11   D(5,4,16,15)           -2.6672         estimate D2E/DX2                !
 ! D12   D(5,4,16,27)         -173.5939         estimate D2E/DX2                !
 ! D13   D(4,5,6,7)             17.5234         estimate D2E/DX2                !
 ! D14   D(4,5,6,18)           169.9148         estimate D2E/DX2                !
 ! D15   D(17,5,6,7)          -163.9234         estimate D2E/DX2                !
 ! D16   D(17,5,6,18)          -11.532          estimate D2E/DX2                !
 ! D17   D(5,6,7,8)           -165.0871         Frozen                          !
 ! D18   D(5,6,7,9)             78.5398         estimate D2E/DX2                !
 ! D19   D(5,6,7,13)           -49.6266         estimate D2E/DX2                !
 ! D20   D(18,6,7,8)            39.6217         estimate D2E/DX2                !
 ! D21   D(18,6,7,9)           -76.7515         estimate D2E/DX2                !
 ! D22   D(18,6,7,13)          155.0822         estimate D2E/DX2                !
 ! D23   D(6,7,9,10)           169.057          estimate D2E/DX2                !
 ! D24   D(6,7,9,19)           -70.0338         estimate D2E/DX2                !
 ! D25   D(6,7,9,20)            48.9783         estimate D2E/DX2                !
 ! D26   D(8,7,9,10)            52.7878         estimate D2E/DX2                !
 ! D27   D(8,7,9,19)           173.697          estimate D2E/DX2                !
 ! D28   D(8,7,9,20)           -67.2909         estimate D2E/DX2                !
 ! D29   D(13,7,9,10)          -62.2281         estimate D2E/DX2                !
 ! D30   D(13,7,9,19)           58.6811         estimate D2E/DX2                !
 ! D31   D(13,7,9,20)          177.6932         estimate D2E/DX2                !
 ! D32   D(6,7,13,12)         -165.8329         estimate D2E/DX2                !
 ! D33   D(6,7,13,14)          -49.1467         estimate D2E/DX2                !
 ! D34   D(6,7,13,15)           75.0226         Frozen                          !
 ! D35   D(8,7,13,12)          -50.8935         estimate D2E/DX2                !
 ! D36   D(8,7,13,14)           65.7926         estimate D2E/DX2                !
 ! D37   D(8,7,13,15)         -170.038          estimate D2E/DX2                !
 ! D38   D(9,7,13,12)           63.703          estimate D2E/DX2                !
 ! D39   D(9,7,13,14)         -179.6109         estimate D2E/DX2                !
 ! D40   D(9,7,13,15)          -55.4415         estimate D2E/DX2                !
 ! D41   D(7,9,10,11)           54.8128         Frozen                          !
 ! D42   D(7,9,10,21)          176.5591         estimate D2E/DX2                !
 ! D43   D(7,9,10,22)          -65.2076         estimate D2E/DX2                !
 ! D44   D(19,9,10,11)         -66.2243         estimate D2E/DX2                !
 ! D45   D(19,9,10,21)          55.5219         estimate D2E/DX2                !
 ! D46   D(19,9,10,22)         173.7553         estimate D2E/DX2                !
 ! D47   D(20,9,10,11)         175.4187         estimate D2E/DX2                !
 ! D48   D(20,9,10,21)         -62.8351         estimate D2E/DX2                !
 ! D49   D(20,9,10,22)          55.3983         estimate D2E/DX2                !
 ! D50   D(9,10,11,12)         -52.8225         Frozen                          !
 ! D51   D(9,10,11,23)          67.7882         estimate D2E/DX2                !
 ! D52   D(9,10,11,24)        -174.6652         estimate D2E/DX2                !
 ! D53   D(21,10,11,12)       -174.6549         estimate D2E/DX2                !
 ! D54   D(21,10,11,23)        -54.0442         estimate D2E/DX2                !
 ! D55   D(21,10,11,24)         63.5024         estimate D2E/DX2                !
 ! D56   D(22,10,11,12)         67.4187         estimate D2E/DX2                !
 ! D57   D(22,10,11,23)       -171.9706         estimate D2E/DX2                !
 ! D58   D(22,10,11,24)        -54.424          estimate D2E/DX2                !
 ! D59   D(10,11,12,13)         56.7017         estimate D2E/DX2                !
 ! D60   D(10,11,12,25)        177.5325         estimate D2E/DX2                !
 ! D61   D(10,11,12,26)        -64.7037         estimate D2E/DX2                !
 ! D62   D(23,11,12,13)        -63.7648         estimate D2E/DX2                !
 ! D63   D(23,11,12,25)         57.066          estimate D2E/DX2                !
 ! D64   D(23,11,12,26)        174.8298         estimate D2E/DX2                !
 ! D65   D(24,11,12,13)        178.6081         estimate D2E/DX2                !
 ! D66   D(24,11,12,25)        -60.5611         estimate D2E/DX2                !
 ! D67   D(24,11,12,26)         57.2027         estimate D2E/DX2                !
 ! D68   D(11,12,13,7)         -60.6294         estimate D2E/DX2                !
 ! D69   D(11,12,13,14)       -179.1725         estimate D2E/DX2                !
 ! D70   D(11,12,13,15)         62.569          estimate D2E/DX2                !
 ! D71   D(25,12,13,7)         178.5598         estimate D2E/DX2                !
 ! D72   D(25,12,13,14)         60.0166         estimate D2E/DX2                !
 ! D73   D(25,12,13,15)        -58.2419         estimate D2E/DX2                !
 ! D74   D(26,12,13,7)          60.7337         estimate D2E/DX2                !
 ! D75   D(26,12,13,14)        -57.8095         estimate D2E/DX2                !
 ! D76   D(26,12,13,15)       -176.0679         estimate D2E/DX2                !
 ! D77   D(7,13,15,16)         -67.1612         Frozen                          !
 ! D78   D(12,13,15,16)        175.1921         estimate D2E/DX2                !
 ! D79   D(14,13,15,16)         57.7742         estimate D2E/DX2                !
 ! D80   D(13,15,16,4)          29.5308         estimate D2E/DX2                !
 ! D81   D(13,15,16,27)       -159.7631         estimate D2E/DX2                !
 --------------------------------------------------------------------------------
 Trust Radius=3.00D-01 FncErr=1.00D-07 GrdErr=1.00D-07 EigMax=2.50D+02 EigMin=1.00D-04
 Number of steps in this run=     20 maximum allowed number of steps=    162.
 GradGradGradGradGradGradGradGradGradGradGradGradGradGradGradGradGradGrad

                          Input orientation:                          
 ---------------------------------------------------------------------
 Center     Atomic      Atomic             Coordinates (Angstroms)
 Number     Number       Type             X           Y           Z
 ---------------------------------------------------------------------
      1          8           0       -3.642430   -1.308680   -0.551020
      2          7           0       -3.215030   -0.164630   -0.406940
      3          8           0       -3.910210    0.842120   -0.550760
      4          6           0       -1.731520    0.007100   -0.062840
      5          6           0       -1.333410    1.309420    0.261990
      6          7           0       -0.081140    1.698750    0.647760
      7          6           0        1.204960    0.967640    0.482110
      8          1           0        1.933280    1.481290    1.162420
      9          6           0        1.829880    1.037930   -0.933980
     10          6           0        3.265890    0.482160   -0.885420
     11          6           0        3.291170   -0.935470   -0.291810
     12          6           0        2.573260   -0.987240    1.074340
     13          6           0        1.108150   -0.482430    0.966090
     14          1           0        0.651590   -0.530020    1.982520
     15          7           0        0.378540   -1.377130    0.065520
     16          6           0       -0.892390   -1.226060   -0.120100
     17          1           0       -2.091020    2.109960    0.232640
     18          1           0        0.151580    2.692460    0.715670
     19          1           0        1.219670    0.448880   -1.651280
     20          1           0        1.855680    2.090090   -1.288810
     21          1           0        3.702570    0.469980   -1.908030
     22          1           0        3.894300    1.147550   -0.252310
     23          1           0        2.786780   -1.633080   -0.997990
     24          1           0        4.342580   -1.278270   -0.177020
     25          1           0        2.573730   -2.034340    1.448810
     26          1           0        3.127600   -0.365370    1.808030
     27          1           0       -1.433060   -2.100630   -0.511590
 ---------------------------------------------------------------------
                    Distance matrix (angstroms):
                    1          2          3          4          5
     1  O    0.000000
     2  N    1.229748   0.000000
     3  O    2.167406   1.231871   0.000000
     4  C    2.370901   1.532546   2.383698   0.000000
     5  C    3.584272   2.482093   2.742049   1.400016   0.000000
     6  N    4.812951   3.795503   4.102687   2.467871   1.366959
     7  C    5.454006   4.648522   5.219918   3.137279   2.570718
     8  H    6.465938   5.628236   6.122900   4.135850   3.392872
     9  C    5.966524   5.212968   5.756199   3.808552   3.392706
    10  C    7.144496   6.530666   7.192912   5.086888   4.811909
    11  C    6.948474   6.552716   7.422045   5.115494   5.170393
    12  C    6.432723   6.031184   6.929855   4.562129   4.603980
    13  C    5.054930   4.547097   5.407329   3.059749   3.109292
    14  H    5.046161   4.560020   5.395396   3.186096   3.206866
    15  N    4.068539   3.821926   4.868085   2.526840   3.191696
    16  C    2.784823   2.569741   3.683758   1.492683   2.601759
    17  H    3.835113   2.616528   2.351720   2.153734   1.102587
    18  H    5.657573   4.556016   4.639584   3.370950   2.079380
    19  H    5.285793   4.646648   5.261316   3.380508   3.304444
    20  H    6.505781   5.619035   5.945388   4.325489   3.631077
    21  H    7.678159   7.106982   7.741776   5.757458   5.547499
    22  H    7.932502   7.231065   7.816184   5.743377   5.255441
    23  H    6.452888   6.207045   7.153762   4.896910   5.217454
    24  H    7.993822   7.642678   8.529026   6.209662   6.253458
    25  H    6.570125   6.359982   7.369788   4.998774   5.277785
    26  H    7.231062   6.721261   7.520152   5.220147   5.009568
    27  H    2.347351   2.633337   3.846763   2.175541   3.498113
                    6          7          8          9         10
     6  N    0.000000
     7  C    1.488629   0.000000
     8  H    2.090467   1.121208   0.000000
     9  C    2.567213   1.549444   2.145263   0.000000
    10  C    3.877285   2.520568   2.639651   1.540572   0.000000
    11  C    4.381139   2.927977   3.130396   2.538121   1.537103
    12  C    3.800309   2.458564   2.551661   2.947419   2.545492
    13  C    2.504654   1.531768   2.139061   2.538239   3.002393
    14  H    2.699239   2.190989   2.522035   3.514656   4.010505
    15  N    3.164071   2.520806   3.433798   2.989633   3.563430
    16  C    3.130854   3.094164   4.118132   3.633016   4.560156
    17  H    2.093092   3.497230   4.177883   4.228913   5.709315
    18  H    1.022854   2.034493   2.200221   2.876718   4.140995
    19  H    2.922305   2.195605   3.080912   1.110790   2.185101
    20  H    2.766717   2.195333   2.526893   1.110680   2.176432
    21  H    4.728467   3.492634   3.685213   2.185934   1.112011
    22  H    4.113158   2.793616   2.440992   2.176814   1.112866
    23  H    4.694097   3.384759   3.885246   2.837966   2.171741
    24  H    5.395573   3.914489   3.900512   3.500205   2.181790
    25  H    4.650374   3.438012   3.584948   3.958515   3.501498
    26  H    3.987835   2.689149   2.292022   3.342446   2.827031
    27  H    4.196078   4.166638   5.192755   4.547059   5.375006
                   11         12         13         14         15
    11  C    0.000000
    12  C    1.544163   0.000000
    13  C    2.559909   1.553415   0.000000
    14  H    3.507756   2.174088   1.115277   0.000000
    15  N    2.967518   2.446738   1.464188   2.113537   0.000000
    16  C    4.197154   3.673480   2.394777   2.699881   1.293267
    17  H    6.206260   5.661856   4.182478   4.189688   4.276266
    18  H    4.902440   4.419657   3.325306   3.498471   4.127441
    19  H    2.838256   3.365063   2.780360   3.805977   2.643712
    20  H    3.494088   3.945803   3.501605   4.360781   4.004718
    21  H    2.180988   3.506189   3.987313   5.044290   4.284377
    22  H    2.168939   2.839450   3.450212   4.280639   4.339999
    23  H    1.113445   2.181112   2.828322   3.828736   2.645030
    24  H    1.111824   2.186571   3.521590   4.341301   3.972683
    25  H    2.179907   1.112046   2.188462   2.498489   2.676616
    26  H    2.181994   1.110097   2.191060   2.487606   3.408420
    27  H    4.870755   4.450327   3.355571   3.610148   2.034306
                   16         17         18         19         20
    16  C    0.000000
    17  H    3.562326   0.000000
    18  H    4.140433   2.366829   0.000000
    19  H    3.100118   4.155600   3.431752   0.000000
    20  H    4.462580   4.229852   2.699027   1.797071   0.000000
    21  H    5.214106   6.390437   4.942949   2.496229   2.533613
    22  H    5.344521   6.081568   4.163134   3.098210   2.473598
    23  H    3.804293   6.270385   5.347075   2.686481   3.848833
    24  H    5.235540   7.282797   5.841924   3.861225   4.332043
    25  H    3.889574   6.357215   5.361618   4.196477   5.002108
    26  H    4.540792   5.986911   4.404574   4.033612   4.151805
    27  H    1.100210   4.326183   5.195283   3.851736   5.383495
                   21         22         23         24         25
    21  H    0.000000
    22  H    1.799242   0.000000
    23  H    2.467733   3.084565   0.000000
    24  H    2.542122   2.468041   1.794546   0.000000
    25  H    4.337542   3.842153   2.488620   2.518689   0.000000
    26  H    3.851948   2.668662   3.097902   2.499997   1.794790
    27  H    5.910396   6.244891   4.273434   5.843478   4.461158
                   26         27
    26  H    0.000000
    27  H    5.402905   0.000000
 Symmetry turned off by external request.
 Stoichiometry    C9H13N3O2
 Framework group  C1[X(C9H13N3O2)]
 Deg. of freedom    75
 Full point group                 C1      NOp   1
 Rotational constants (GHZ):           1.6075624           0.4033529           0.3612842
 Standard basis: 6-31G(d) (6D, 7F)
   236 basis functions,   444 primitive gaussians,   236 cartesian basis functions
    52 alpha electrons       52 beta electrons
       nuclear repulsion energy       917.6165976445 Hartrees.
 NAtoms=   27 NActive=   27 NUniq=   27 SFac= 1.00D+00 NAtFMM=   60 NAOKFM=F Big=F
 Integral buffers will be    131072 words long.
 Raffenetti 1 integral format.
 Two-electron integral symmetry is turned off.
 One-electron integrals computed using PRISM.
 NBasis=   236 RedAO= T EigKep=  1.27D-03  NBF=   236
 NBsUse=   236 1.00D-06 EigRej= -1.00D+00 NBFU=   236
 ExpMin= 1.61D-01 ExpMax= 5.48D+03 ExpMxC= 8.25D+02 IAcc=3 IRadAn=         5 AccDes= 0.00D+00
 Harris functional with IExCor=  205 and IRadAn=       5 diagonalized for initial guess.
 HarFok:  IExCor=  205 AccDes= 0.00D+00 IRadAn=         5 IDoV= 1 UseB2=F ITyADJ=14
 ICtDFT=  3500011 ScaDFX=  1.000000  1.000000  1.000000  1.000000
 FoFCou: FMM=F IPFlag=           0 FMFlag=      100000 FMFlg1=           0
         NFxFlg=           0 DoJE=T BraDBF=F KetDBF=T FulRan=T
         wScrn=  0.000000 ICntrl=       500 IOpCl=  0 I1Cent=   200000004 NGrid=           0
         NMat0=    1 NMatS0=      1 NMatT0=    0 NMatD0=    1 NMtDS0=    0 NMtDT0=    0
 Symmetry not used in FoFCou.
 Keep R1 ints in memory in canonical form, NReq=397720213.
 Requested convergence on RMS density matrix=1.00D-08 within 128 cycles.
 Requested convergence on MAX density matrix=1.00D-06.
 Requested convergence on             energy=1.00D-06.
 No special actions if energy rises.
 SCF Done:  E(RHF) =  -661.276193420     A.U. after   16 cycles
            NFock= 16  Conv=0.70D-08     -V/T= 2.0036
 ExpMin= 1.61D-01 ExpMax= 5.48D+03 ExpMxC= 8.25D+02 IAcc=3 IRadAn=         5 AccDes= 0.00D+00
 HarFok:  IExCor=  205 AccDes= 0.00D+00 IRadAn=         5 IDoV=-2 UseB2=F ITyADJ=14
 ICtDFT= 12500011 ScaDFX=  1.000000  1.000000  1.000000  1.000000
 Range of M.O.s used for correlation:    15   236
 NBasis=   236 NAE=    52 NBE=    52 NFC=    14 NFV=     0
 NROrb=    222 NOA=    38 NOB=    38 NVA=   184 NVB=   184
 Fully direct method using O(ONN) memory.
 JobTyp=1 Pass  1:  I=  15 to  52 NPSUse=  4 ParTrn=T ParDer=T DoDerP=T.
 Spin components of T(2) and E(2):
     alpha-alpha T2 =       0.9215983925D-01 E2=     -0.2719969048D+00
     alpha-beta  T2 =       0.4997726244D+00 E2=     -0.1493815875D+01
     beta-beta   T2 =       0.9215983925D-01 E2=     -0.2719969048D+00
 ANorm=    0.1297725820D+01
 E2 =    -0.2037809684D+01 EUMP2 =    -0.66331400310431D+03
          IDoAtm=111111111111111111111111111
          Differentiating once with respect to electric field.
                with respect to dipole field.
          Differentiating once with respect to nuclear coordinates.
 Keep R1 ints in memory in canonical form, NReq=397723379.
          There are     1 degrees of freedom in the 1st order CPHF.  IDoFFX=0 NUNeed=     1.
 LinEq1:  Iter=  0 NonCon=     1 RMS=4.67D-03 Max=1.30D-01 NDo=     1
 AX will form     1 AO Fock derivatives at one time.
 LinEq1:  Iter=  1 NonCon=     1 RMS=1.59D-03 Max=4.97D-02 NDo=     1
 LinEq1:  Iter=  2 NonCon=     1 RMS=6.57D-04 Max=2.12D-02 NDo=     1
 LinEq1:  Iter=  3 NonCon=     1 RMS=3.00D-04 Max=9.76D-03 NDo=     1
 LinEq1:  Iter=  4 NonCon=     1 RMS=9.50D-05 Max=2.62D-03 NDo=     1
 LinEq1:  Iter=  5 NonCon=     1 RMS=3.93D-05 Max=1.80D-03 NDo=     1
 LinEq1:  Iter=  6 NonCon=     1 RMS=1.62D-05 Max=5.45D-04 NDo=     1
 LinEq1:  Iter=  7 NonCon=     1 RMS=6.15D-06 Max=6.89D-05 NDo=     1
 LinEq1:  Iter=  8 NonCon=     1 RMS=2.43D-06 Max=5.15D-05 NDo=     1
 LinEq1:  Iter=  9 NonCon=     1 RMS=9.04D-07 Max=2.59D-05 NDo=     1
 LinEq1:  Iter= 10 NonCon=     1 RMS=4.27D-07 Max=1.28D-05 NDo=     1
 LinEq1:  Iter= 11 NonCon=     1 RMS=1.63D-07 Max=5.44D-06 NDo=     1
 LinEq1:  Iter= 12 NonCon=     1 RMS=5.80D-08 Max=1.03D-06 NDo=     1
 LinEq1:  Iter= 13 NonCon=     1 RMS=1.84D-08 Max=4.11D-07 NDo=     1
 LinEq1:  Iter= 14 NonCon=     1 RMS=5.76D-09 Max=1.68D-07 NDo=     1
 LinEq1:  Iter= 15 NonCon=     1 RMS=2.09D-09 Max=6.86D-08 NDo=     1
 LinEq1:  Iter= 16 NonCon=     1 RMS=7.53D-10 Max=1.37D-08 NDo=     1
 LinEq1:  Iter= 17 NonCon=     1 RMS=2.51D-10 Max=4.45D-09 NDo=     1
 LinEq1:  Iter= 18 NonCon=     1 RMS=8.98D-11 Max=1.35D-09 NDo=     1
 LinEq1:  Iter= 19 NonCon=     0 RMS=3.12D-11 Max=6.11D-10 NDo=     1
 Linear equations converged to 1.000D-10 1.000D-09 after    19 iterations.
 End of Minotr F.D. properties file   721 does not exist.
 End of Minotr F.D. properties file   722 does not exist.
 End of Minotr F.D. properties file   788 does not exist.

 **********************************************************************

            Population analysis using the SCF Density.

 **********************************************************************

 Alpha  occ. eigenvalues --  -20.59778 -20.59432 -15.85315 -15.63793 -15.56029
 Alpha  occ. eigenvalues --  -11.35990 -11.30532 -11.30200 -11.29983 -11.27517
 Alpha  occ. eigenvalues --  -11.24637 -11.23890 -11.23242 -11.22838  -1.58486
 Alpha  occ. eigenvalues --   -1.37958  -1.29046  -1.22386  -1.13269  -1.08406
 Alpha  occ. eigenvalues --   -1.01681  -1.00722  -0.93714  -0.88890  -0.84875
 Alpha  occ. eigenvalues --   -0.81511  -0.78001  -0.77022  -0.74381  -0.71243
 Alpha  occ. eigenvalues --   -0.70272  -0.69813  -0.67352  -0.63996  -0.63384
 Alpha  occ. eigenvalues --   -0.61929  -0.59716  -0.57406  -0.56494  -0.54780
 Alpha  occ. eigenvalues --   -0.54218  -0.50490  -0.49787  -0.48617  -0.47855
 Alpha  occ. eigenvalues --   -0.47763  -0.46422  -0.45302  -0.44054  -0.42212
 Alpha  occ. eigenvalues --   -0.38821  -0.33505
 Alpha virt. eigenvalues --    0.07273   0.11411   0.17250   0.21604   0.23814
 Alpha virt. eigenvalues --    0.25081   0.25854   0.27958   0.28589   0.28888
 Alpha virt. eigenvalues --    0.30037   0.31521   0.31776   0.32430   0.33165
 Alpha virt. eigenvalues --    0.33960   0.34680   0.35784   0.37642   0.38906
 Alpha virt. eigenvalues --    0.40286   0.41097   0.43786   0.45143   0.45310
 Alpha virt. eigenvalues --    0.47138   0.49847   0.53354   0.57675   0.59055
 Alpha virt. eigenvalues --    0.63242   0.68240   0.69535   0.72539   0.74071
 Alpha virt. eigenvalues --    0.74894   0.75733   0.75990   0.78156   0.78574
 Alpha virt. eigenvalues --    0.81003   0.82325   0.84597   0.84940   0.87821
 Alpha virt. eigenvalues --    0.88387   0.90712   0.91960   0.92528   0.93709
 Alpha virt. eigenvalues --    0.95022   0.97467   0.99329   1.01057   1.01963
 Alpha virt. eigenvalues --    1.03088   1.04964   1.05908   1.07116   1.08560
 Alpha virt. eigenvalues --    1.09881   1.10701   1.11777   1.12848   1.13140
 Alpha virt. eigenvalues --    1.13311   1.14411   1.15147   1.15810   1.16628
 Alpha virt. eigenvalues --    1.17807   1.20217   1.21371   1.21938   1.23025
 Alpha virt. eigenvalues --    1.23222   1.25129   1.25665   1.27264   1.28672
 Alpha virt. eigenvalues --    1.29163   1.31447   1.34445   1.36540   1.38996
 Alpha virt. eigenvalues --    1.41757   1.47678   1.51807   1.52834   1.53762
 Alpha virt. eigenvalues --    1.54477   1.58599   1.60667   1.64192   1.65567
 Alpha virt. eigenvalues --    1.67129   1.68605   1.72042   1.72499   1.76500
 Alpha virt. eigenvalues --    1.79765   1.82397   1.83723   1.86979   1.91258
 Alpha virt. eigenvalues --    1.93396   1.95939   1.98043   2.00027   2.00789
 Alpha virt. eigenvalues --    2.02935   2.03123   2.05673   2.09603   2.11508
 Alpha virt. eigenvalues --    2.11787   2.13176   2.16715   2.18130   2.19655
 Alpha virt. eigenvalues --    2.20420   2.22246   2.24053   2.24685   2.26002
 Alpha virt. eigenvalues --    2.28852   2.31987   2.32965   2.35198   2.37054
 Alpha virt. eigenvalues --    2.39557   2.42022   2.42685   2.44944   2.45443
 Alpha virt. eigenvalues --    2.48781   2.50720   2.51390   2.56150   2.57340
 Alpha virt. eigenvalues --    2.60394   2.63637   2.66390   2.67711   2.68353
 Alpha virt. eigenvalues --    2.69268   2.70472   2.74080   2.75163   2.81447
 Alpha virt. eigenvalues --    2.84670   2.86228   2.89902   2.91547   2.93941
 Alpha virt. eigenvalues --    2.97722   2.97965   3.02159   3.05713   3.06978
 Alpha virt. eigenvalues --    3.08319   3.14751   3.18675   3.22788   3.27204
 Alpha virt. eigenvalues --    3.31560   3.31671   3.38252   3.42219   3.60442
 Alpha virt. eigenvalues --    4.10421   4.23100   4.32281   4.36468   4.44517
 Alpha virt. eigenvalues --    4.51964   4.59454   4.59991   4.70529   4.78333
 Alpha virt. eigenvalues --    4.96558   4.99236   5.04703   5.08894
          Condensed to atoms (all electrons):
               1          2          3          4          5          6
     1  O    8.302725   0.309649  -0.090385  -0.076779   0.003521  -0.000010
     2  N    0.309649   5.677589   0.312511   0.264404  -0.048808   0.000697
     3  O   -0.090385   0.312511   8.328728  -0.088222   0.008094   0.000490
     4  C   -0.076779   0.264404  -0.088222   5.260456   0.563414  -0.052219
     5  C    0.003521  -0.048808   0.008094   0.563414   4.687668   0.316881
     6  N   -0.000010   0.000697   0.000490  -0.052219   0.316881   7.150949
     7  C    0.000001  -0.000099   0.000002   0.006278  -0.029783   0.206698
     8  H   -0.000000   0.000001  -0.000000  -0.000262   0.002983  -0.045024
     9  C    0.000000  -0.000006  -0.000000   0.000673   0.000347  -0.058494
    10  C   -0.000000   0.000000   0.000000  -0.000026  -0.000021   0.003359
    11  C   -0.000000  -0.000000  -0.000000  -0.000012   0.000009  -0.000150
    12  C    0.000000   0.000001  -0.000000  -0.000270  -0.000131   0.003922
    13  C   -0.000008   0.000023  -0.000000  -0.007468  -0.000871  -0.053821
    14  H    0.000000  -0.000026   0.000000   0.001687   0.002544  -0.004972
    15  N    0.000423   0.001442  -0.000009  -0.063797  -0.004934   0.002071
    16  C    0.000911  -0.021412   0.002092   0.309275  -0.044321   0.001454
    17  H    0.000154  -0.004487   0.012811  -0.023858   0.374441  -0.031716
    18  H    0.000000  -0.000033   0.000008   0.001765  -0.026669   0.332202
    19  H    0.000000  -0.000004  -0.000000  -0.000988   0.001368  -0.000465
    20  H    0.000000   0.000000   0.000000  -0.000033  -0.000042  -0.000315
    21  H   -0.000000  -0.000000  -0.000000   0.000001   0.000001  -0.000063
    22  H   -0.000000   0.000000  -0.000000  -0.000001  -0.000001  -0.000090
    23  H    0.000000  -0.000000   0.000000   0.000025  -0.000001  -0.000024
    24  H    0.000000   0.000000   0.000000  -0.000000  -0.000000   0.000005
    25  H    0.000000  -0.000000   0.000000   0.000024  -0.000001  -0.000077
    26  H    0.000000  -0.000000   0.000000   0.000004  -0.000001  -0.000079
    27  H    0.006984  -0.000115   0.000067  -0.068380   0.001967  -0.000023
               7          8          9         10         11         12
     1  O    0.000001  -0.000000   0.000000  -0.000000  -0.000000   0.000000
     2  N   -0.000099   0.000001  -0.000006   0.000000  -0.000000   0.000001
     3  O    0.000002  -0.000000  -0.000000   0.000000  -0.000000  -0.000000
     4  C    0.006278  -0.000262   0.000673  -0.000026  -0.000012  -0.000270
     5  C   -0.029783   0.002983   0.000347  -0.000021   0.000009  -0.000131
     6  N    0.206698  -0.045024  -0.058494   0.003359  -0.000150   0.003922
     7  C    5.054581   0.412569   0.343417  -0.049217  -0.008294  -0.065349
     8  H    0.412569   0.543311  -0.057189   0.000496  -0.000170  -0.003336
     9  C    0.343417  -0.057189   5.172594   0.320317  -0.053831  -0.005241
    10  C   -0.049217   0.000496   0.320317   5.126384   0.332488  -0.060835
    11  C   -0.008294  -0.000170  -0.053831   0.332488   5.125295   0.330382
    12  C   -0.065349  -0.003336  -0.005241  -0.060835   0.330382   5.143165
    13  C    0.311105  -0.037024  -0.055849  -0.000763  -0.046850   0.367007
    14  H   -0.042430  -0.000787   0.003754  -0.000384   0.003960  -0.041295
    15  N   -0.064702   0.003995  -0.011285   0.001159  -0.007170  -0.076006
    16  C   -0.000226  -0.000184   0.000038  -0.000088  -0.000017   0.002544
    17  H    0.001468  -0.000052  -0.000036   0.000001  -0.000000   0.000001
    18  H   -0.030383  -0.004439   0.001158  -0.000111   0.000010  -0.000161
    19  H   -0.035322   0.003982   0.388955  -0.033606  -0.002098   0.000517
    20  H   -0.042001  -0.001829   0.397005  -0.036818   0.004124  -0.000391
    21  H    0.004100  -0.000067  -0.035980   0.400093  -0.035749   0.004245
    22  H   -0.004585   0.003578  -0.045523   0.395727  -0.045492  -0.001245
    23  H    0.000517   0.000035  -0.002047  -0.040259   0.396547  -0.036804
    24  H   -0.000148  -0.000107   0.004413  -0.038485   0.400431  -0.037674
    25  H    0.005251  -0.000019  -0.000396   0.004114  -0.033646   0.394550
    26  H   -0.004369   0.001429   0.001110  -0.002434  -0.042593   0.393875
    27  H   -0.000385   0.000007  -0.000040   0.000002   0.000007  -0.000022
              13         14         15         16         17         18
     1  O   -0.000008   0.000000   0.000423   0.000911   0.000154   0.000000
     2  N    0.000023  -0.000026   0.001442  -0.021412  -0.004487  -0.000033
     3  O   -0.000000   0.000000  -0.000009   0.002092   0.012811   0.000008
     4  C   -0.007468   0.001687  -0.063797   0.309275  -0.023858   0.001765
     5  C   -0.000871   0.002544  -0.004934  -0.044321   0.374441  -0.026669
     6  N   -0.053821  -0.004972   0.002071   0.001454  -0.031716   0.332202
     7  C    0.311105  -0.042430  -0.064702  -0.000226   0.001468  -0.030383
     8  H   -0.037024  -0.000787   0.003995  -0.000184  -0.000052  -0.004439
     9  C   -0.055849   0.003754  -0.011285   0.000038  -0.000036   0.001158
    10  C   -0.000763  -0.000384   0.001159  -0.000088   0.000001  -0.000111
    11  C   -0.046850   0.003960  -0.007170  -0.000017  -0.000000   0.000010
    12  C    0.367007  -0.041295  -0.076006   0.002544   0.000001  -0.000161
    13  C    5.017487   0.409989   0.252665  -0.065708  -0.000088   0.004108
    14  H    0.409989   0.516059  -0.033460  -0.008131   0.000004  -0.000017
    15  N    0.252665  -0.033460   6.966648   0.576831  -0.000057  -0.000127
    16  C   -0.065708  -0.008131   0.576831   4.711980   0.001365  -0.000172
    17  H   -0.000088   0.000004  -0.000057   0.001365   0.380252  -0.002679
    18  H    0.004108  -0.000017  -0.000127  -0.000172  -0.002679   0.326248
    19  H   -0.005718   0.000057   0.006432   0.001591   0.000003  -0.000129
    20  H    0.003972  -0.000054   0.000090  -0.000046  -0.000017   0.001880
    21  H   -0.000419   0.000009  -0.000035   0.000003  -0.000000   0.000001
    22  H    0.000323  -0.000041   0.000010  -0.000000   0.000000   0.000002
    23  H   -0.006038   0.000001   0.006767   0.000090   0.000000   0.000000
    24  H    0.004156  -0.000061   0.000004   0.000005   0.000000  -0.000000
    25  H   -0.034351  -0.002769   0.001584  -0.000068  -0.000000   0.000003
    26  H   -0.045184  -0.000896   0.004243  -0.000027   0.000000  -0.000001
    27  H    0.004651  -0.000133  -0.041422   0.404848  -0.000063   0.000000
              19         20         21         22         23         24
     1  O    0.000000   0.000000  -0.000000  -0.000000   0.000000   0.000000
     2  N   -0.000004   0.000000  -0.000000   0.000000  -0.000000   0.000000
     3  O   -0.000000   0.000000  -0.000000  -0.000000   0.000000   0.000000
     4  C   -0.000988  -0.000033   0.000001  -0.000001   0.000025  -0.000000
     5  C    0.001368  -0.000042   0.000001  -0.000001  -0.000001  -0.000000
     6  N   -0.000465  -0.000315  -0.000063  -0.000090  -0.000024   0.000005
     7  C   -0.035322  -0.042001   0.004100  -0.004585   0.000517  -0.000148
     8  H    0.003982  -0.001829  -0.000067   0.003578   0.000035  -0.000107
     9  C    0.388955   0.397005  -0.035980  -0.045523  -0.002047   0.004413
    10  C   -0.033606  -0.036818   0.400093   0.395727  -0.040259  -0.038485
    11  C   -0.002098   0.004124  -0.035749  -0.045492   0.396547   0.400431
    12  C    0.000517  -0.000391   0.004245  -0.001245  -0.036804  -0.037674
    13  C   -0.005718   0.003972  -0.000419   0.000323  -0.006038   0.004156
    14  H    0.000057  -0.000054   0.000009  -0.000041   0.000001  -0.000061
    15  N    0.006432   0.000090  -0.000035   0.000010   0.006767   0.000004
    16  C    0.001591  -0.000046   0.000003  -0.000000   0.000090   0.000005
    17  H    0.000003  -0.000017  -0.000000   0.000000   0.000000   0.000000
    18  H   -0.000129   0.001880   0.000001   0.000002   0.000000  -0.000000
    19  H    0.505412  -0.023669  -0.002543   0.003761   0.001689  -0.000075
    20  H   -0.023669   0.546263  -0.002663  -0.002917  -0.000049  -0.000090
    21  H   -0.002543  -0.002663   0.525422  -0.024684  -0.002827  -0.002065
    22  H    0.003761  -0.002917  -0.024684   0.569565   0.004069  -0.003540
    23  H    0.001689  -0.000049  -0.002827   0.004069   0.510559  -0.024891
    24  H   -0.000075  -0.000090  -0.002065  -0.003540  -0.024891   0.540407
    25  H   -0.000027   0.000011  -0.000086  -0.000083  -0.002047  -0.002424
    26  H    0.000023  -0.000035  -0.000071   0.002451   0.003850  -0.002761
    27  H    0.000061   0.000000  -0.000000   0.000000  -0.000021  -0.000000
              25         26         27
     1  O    0.000000   0.000000   0.006984
     2  N   -0.000000  -0.000000  -0.000115
     3  O    0.000000   0.000000   0.000067
     4  C    0.000024   0.000004  -0.068380
     5  C   -0.000001  -0.000001   0.001967
     6  N   -0.000077  -0.000079  -0.000023
     7  C    0.005251  -0.004369  -0.000385
     8  H   -0.000019   0.001429   0.000007
     9  C   -0.000396   0.001110  -0.000040
    10  C    0.004114  -0.002434   0.000002
    11  C   -0.033646  -0.042593   0.000007
    12  C    0.394550   0.393875  -0.000022
    13  C   -0.034351  -0.045184   0.004651
    14  H   -0.002769  -0.000896  -0.000133
    15  N    0.001584   0.004243  -0.041422
    16  C   -0.000068  -0.000027   0.404848
    17  H   -0.000000   0.000000  -0.000063
    18  H    0.000003  -0.000001   0.000000
    19  H   -0.000027   0.000023   0.000061
    20  H    0.000011  -0.000035   0.000000
    21  H   -0.000086  -0.000071  -0.000000
    22  H   -0.000083   0.002451   0.000000
    23  H   -0.002047   0.003850  -0.000021
    24  H   -0.002424  -0.002761  -0.000000
    25  H    0.509899  -0.023225  -0.000018
    26  H   -0.023225   0.565334   0.000001
    27  H   -0.000018   0.000001   0.440210
 Mulliken charges:
               1
     1  O   -0.457189
     2  N    0.508673
     3  O   -0.486188
     4  C   -0.025693
     5  C    0.192344
     6  N   -0.771186
     7  C    0.031308
     8  H    0.178103
     9  C   -0.307863
    10  C   -0.321091
    11  C   -0.317180
    12  C   -0.311450
    13  C   -0.015328
    14  H    0.197392
    15  N   -0.521362
    16  C    0.127371
    17  H    0.292552
    18  H    0.397535
    19  H    0.190796
    20  H    0.157623
    21  H    0.173380
    22  H    0.148718
    23  H    0.190859
    24  H    0.162901
    25  H    0.183800
    26  H    0.149357
    27  H    0.251817
 Sum of Mulliken charges =  -0.00000
 Mulliken charges with hydrogens summed into heavy atoms:
               1
     1  O   -0.457189
     2  N    0.508673
     3  O   -0.486188
     4  C   -0.025693
     5  C    0.484896
     6  N   -0.373650
     7  C    0.209411
     9  C    0.040556
    10  C    0.001007
    11  C    0.036580
    12  C    0.021707
    13  C    0.182064
    15  N   -0.521362
    16  C    0.379188
 Electronic spatial extent (au):  <R**2>=           3104.5886
 Charge=              0.0000 electrons
 Dipole moment (field-independent basis, Debye):
    X=              5.3115    Y=              4.4400    Z=              1.6905  Tot=              7.1262
 Quadrupole moment (field-independent basis, Debye-Ang):
   XX=           -104.5895   YY=            -79.7027   ZZ=            -83.1780
   XY=             -0.3956   XZ=             -3.5984   YZ=              1.3134
 Traceless Quadrupole moment (field-independent basis, Debye-Ang):
   XX=            -15.4328   YY=              9.4541   ZZ=              5.9787
   XY=             -0.3956   XZ=             -3.5984   YZ=              1.3134
 Octapole moment (field-independent basis, Debye-Ang**2):
  XXX=             93.6354  YYY=             32.8456  ZZZ=              2.9947  XYY=             -3.7967
  XXY=              6.6545  XXZ=             22.3838  XZZ=             -4.2868  YZZ=             -1.9453
  YYZ=              8.5758  XYZ=             -0.2560
 Hexadecapole moment (field-independent basis, Debye-Ang**3):
 XXXX=          -3455.7716 YYYY=           -616.3153 ZZZZ=           -336.9723 XXXY=             -0.0586
 XXXZ=           -143.7534 YYYX=             14.6199 YYYZ=             26.9579 ZZZX=            -64.0295
 ZZZY=              9.1045 XXYY=           -643.7360 XXZZ=           -554.3496 YYZZ=           -170.7114
 XXYZ=              7.5900 YYXZ=            -23.0012 ZZXY=              9.8313
 N-N= 9.176165976445D+02 E-N=-3.381280101385D+03  KE= 6.588735536387D+02
 Calling FoFJK, ICntrl=  10002127 FMM=F ISym2X=0 I1Cent= 0 IOpClX= 0 NMat=1 NMatS=1 NMatT=0.
 -------------------------------------------------------------------
 Center     Atomic                   Forces (Hartrees/Bohr)
 Number     Number              X              Y              Z
 -------------------------------------------------------------------
      1        8           0.000163736   -0.018882675    0.000451166
      2        7           0.039279595    0.008298803    0.007512137
      3        8          -0.003221381    0.016898396    0.000853426
      4        6          -0.003117307    0.003004589    0.011944511
      5        6           0.001591303   -0.014301581   -0.005107920
      6        7           0.017207229   -0.001134077   -0.010740079
      7        6          -0.003589817    0.006492997    0.005234262
      8        1          -0.012800862   -0.002414894   -0.005937213
      9        6          -0.004548652    0.001147129   -0.002201717
     10        6           0.002616532   -0.001429719    0.000611837
     11        6          -0.001135099   -0.004129758   -0.001693197
     12        6           0.000611998   -0.009643510   -0.002840385
     13        6           0.014247900    0.000427039   -0.002581987
     14        1           0.001143375    0.003221439   -0.011707236
     15        7          -0.000705692   -0.009444724    0.024264134
     16        6          -0.020869068    0.016171549   -0.018542406
     17        1           0.006559371   -0.008612077    0.001148374
     18        1          -0.018494124   -0.002642078   -0.000713858
     19        1           0.003384258    0.005659678    0.007200563
     20        1          -0.002886130   -0.007825366    0.003015351
     21        1          -0.003440195    0.002362289    0.009956972
     22        1          -0.004626805   -0.004016718   -0.006909830
     23        1           0.004578016    0.005924266    0.008699605
     24        1          -0.009647122    0.002274638   -0.001325225
     25        1          -0.001263021    0.010580169   -0.002512109
     26        1          -0.004971707   -0.004697867   -0.003888402
     27        1           0.003933668    0.006712062   -0.004190774
 -------------------------------------------------------------------
 Cartesian Forces:  Max     0.039279595 RMS     0.009288544

 GradGradGradGradGradGradGradGradGradGradGradGradGradGradGradGradGradGrad
 Berny optimization.
 FormGI is forming the generalized inverse of G from B-inverse, IUseBI=4.
 Internal  Forces:  Max     0.037750154 RMS     0.007042392
 Search for a local minimum.
 Step number   1 out of a maximum of   20
 All quantities printed in internal units (Hartrees-Bohrs-Radians)
 Mixed Optimization -- RFO/linear search
 Second derivative matrix not updated -- first step.
 ITU=  0
     Eigenvalues ---    0.00232   0.00802   0.01052   0.01169   0.01347
     Eigenvalues ---    0.01428   0.01546   0.01886   0.02055   0.02109
     Eigenvalues ---    0.02670   0.03302   0.03812   0.04574   0.04758
     Eigenvalues ---    0.04882   0.05139   0.05288   0.05617   0.06225
     Eigenvalues ---    0.07155   0.07675   0.07688   0.07811   0.07982
     Eigenvalues ---    0.08034   0.08046   0.10433   0.11560   0.12032
     Eigenvalues ---    0.12601   0.14144   0.14968   0.15922   0.15997
     Eigenvalues ---    0.20049   0.22287   0.23277   0.25000   0.25000
     Eigenvalues ---    0.25000   0.25389   0.26415   0.26639   0.27958
     Eigenvalues ---    0.28088   0.28545   0.29190   0.31442   0.32028
     Eigenvalues ---    0.32048   0.32238   0.32298   0.32384   0.32388
     Eigenvalues ---    0.32408   0.32516   0.32528   0.32590   0.33300
     Eigenvalues ---    0.33398   0.33659   0.35538   0.43886   0.44327
     Eigenvalues ---    0.50384   0.67192   0.90311   0.911911000.00000
     Eigenvalues --- 1000.000001000.000001000.000001000.000001000.00000
     Eigenvalues --- 1000.000001000.000001000.000001000.000001000.00000
     Eigenvalues --- 1000.000001000.000001000.000001000.000001000.00000
     Eigenvalues --- 1000.000001000.000001000.000001000.000001000.00000
     Eigenvalues --- 1000.000001000.000001000.000001000.000001000.00000
     Eigenvalues --- 1000.000001000.000001000.000001000.000001000.00000
     Eigenvalues --- 1000.000001000.000001000.000001000.000001000.00000
     Eigenvalues --- 1000.000001000.000001000.000001000.000001000.00000
     Eigenvalues --- 1000.000001000.000001000.000001000.000001000.00000
     Eigenvalues --- 1000.000001000.000001000.000001000.000001000.00000
     Eigenvalues --- 1000.000001000.000001000.000001000.000001000.00000
     Eigenvalues --- 1000.000001000.000001000.000001000.000001000.00000
     Eigenvalues --- 1000.000001000.000001000.000001000.000001000.00000
     Eigenvalues --- 1000.000001000.000001000.000001000.000001000.00000
     Eigenvalues --- 1000.000001000.000001000.000001000.000001000.00000
     Eigenvalues --- 1000.000001000.000001000.000001000.000001000.00000
     Eigenvalues --- 1000.000001000.000001000.000001000.000001000.00000
     Eigenvalues --- 1000.000001000.000001000.000001000.000001000.00000
     Eigenvalues --- 1000.00000
 RFO step:  Lambda=-2.65009351D-02 EMin= 2.32146455D-03
 Linear search not attempted -- first point.
 Iteration  1 RMS(Cart)=  0.06554677 RMS(Int)=  0.00166243
 Iteration  2 RMS(Cart)=  0.00201016 RMS(Int)=  0.00039455
 Iteration  3 RMS(Cart)=  0.00000244 RMS(Int)=  0.00039454
 Iteration  4 RMS(Cart)=  0.00000000 RMS(Int)=  0.00039454
 Iteration  1 RMS(Cart)=  0.00004607 RMS(Int)=  0.00006015
 Iteration  2 RMS(Cart)=  0.00002908 RMS(Int)=  0.00006523
 Iteration  3 RMS(Cart)=  0.00002043 RMS(Int)=  0.00007400
 Iteration  4 RMS(Cart)=  0.00001571 RMS(Int)=  0.00008248
 Iteration  5 RMS(Cart)=  0.00001283 RMS(Int)=  0.00008986
 Iteration  6 RMS(Cart)=  0.00001082 RMS(Int)=  0.00009612
 Iteration  7 RMS(Cart)=  0.00000928 RMS(Int)=  0.00010141
 Iteration  8 RMS(Cart)=  0.00000800 RMS(Int)=  0.00010588
 Iteration  9 RMS(Cart)=  0.00000691 RMS(Int)=  0.00010967
 Iteration 10 RMS(Cart)=  0.00000597 RMS(Int)=  0.00011289
 Iteration 11 RMS(Cart)=  0.00000516 RMS(Int)=  0.00011564
 Iteration 12 RMS(Cart)=  0.00000445 RMS(Int)=  0.00011799
 Iteration 13 RMS(Cart)=  0.00000384 RMS(Int)=  0.00012000
 Iteration 14 RMS(Cart)=  0.00000331 RMS(Int)=  0.00012172
 Iteration 15 RMS(Cart)=  0.00000286 RMS(Int)=  0.00012319
 Iteration 16 RMS(Cart)=  0.00000246 RMS(Int)=  0.00012446
 Iteration 17 RMS(Cart)=  0.00000213 RMS(Int)=  0.00012554
 Iteration 18 RMS(Cart)=  0.00000184 RMS(Int)=  0.00012648
 Iteration 19 RMS(Cart)=  0.00000159 RMS(Int)=  0.00012728
 Iteration 20 RMS(Cart)=  0.00000137 RMS(Int)=  0.00012797
 Iteration 21 RMS(Cart)=  0.00000119 RMS(Int)=  0.00012856
 Iteration 22 RMS(Cart)=  0.00000103 RMS(Int)=  0.00012907
 Iteration 23 RMS(Cart)=  0.00000089 RMS(Int)=  0.00012951
 Variable       Old X    -DE/DX   Delta X   Delta X   Delta X     New X
                                 (Linear)    (Quad)   (Total)
    R1        2.32389   0.01746   0.00000   0.01860   0.01860   2.34249
    R2        2.32790   0.01553   0.00000   0.01670   0.01670   2.34460
    R3        2.89609  -0.03775   0.00000  -0.11856  -0.11856   2.77753
    R4        2.64565  -0.03197   0.00000  -0.06864  -0.06841   2.57724
    R5        2.82076  -0.02617   0.00000  -0.07720  -0.07722   2.74354
    R6        2.58318  -0.02267   0.00000  -0.04177  -0.04143   2.54175
    R7        2.08359  -0.01079   0.00000  -0.02993  -0.02993   2.05365
    R8        2.81310  -0.01678   0.00000  -0.04217  -0.04205   2.77105
    R9        1.93291  -0.00682   0.00000  -0.01466  -0.01466   1.91825
   R10        2.11878  -0.01302   0.00000  -0.03820  -0.03820   2.08057
   R11        2.92802  -0.01302   0.00000  -0.04283  -0.04276   2.88526
   R12        2.89462  -0.00100   0.00000   0.00069   0.00063   2.89525
   R13        2.91126  -0.00412   0.00000  -0.01426  -0.01439   2.89687
   R14        2.09909  -0.00951   0.00000  -0.02704  -0.02704   2.07205
   R15        2.09888  -0.00844   0.00000  -0.02400  -0.02400   2.07488
   R16        2.90470  -0.00136   0.00000  -0.00668  -0.00663   2.89807
   R17        2.10140  -0.01053   0.00000  -0.03006  -0.03006   2.07133
   R18        2.10301  -0.00895   0.00000  -0.02560  -0.02560   2.07742
   R19        2.91805  -0.00938   0.00000  -0.03050  -0.03055   2.88749
   R20        2.10411  -0.01130   0.00000  -0.03240  -0.03240   2.07171
   R21        2.10104  -0.00996   0.00000  -0.02841  -0.02841   2.07263
   R22        2.93553  -0.01120   0.00000  -0.03633  -0.03619   2.89934
   R23        2.10146  -0.01081   0.00000  -0.03085  -0.03085   2.07061
   R24        2.09778  -0.00768   0.00000  -0.02181  -0.02181   2.07597
   R25        2.10757  -0.01128   0.00000  -0.03250  -0.03250   2.07507
   R26        2.76691  -0.00466   0.00000  -0.00869  -0.00909   2.75782
   R27        2.44392  -0.00090   0.00000  -0.00231  -0.00259   2.44133
   R28        2.07909  -0.00578   0.00000  -0.01591  -0.01591   2.06318
    A1        2.15375   0.01123   0.00000   0.04073   0.04065   2.19439
    A2        2.05667  -0.00532   0.00000  -0.01912  -0.01921   2.03746
    A3        2.07249  -0.00586   0.00000  -0.02107  -0.02116   2.05133
    A4        2.01705  -0.00988   0.00000  -0.03120  -0.03116   1.98589
    A5        2.02973  -0.00279   0.00000  -0.00557  -0.00560   2.02413
    A6        2.23640   0.01266   0.00000   0.03663   0.03603   2.27242
    A7        2.20300   0.00620   0.00000   0.02141   0.02149   2.22449
    A8        2.06442  -0.00400   0.00000  -0.01562  -0.01569   2.04873
    A9        2.01550  -0.00220   0.00000  -0.00619  -0.00634   2.00916
   A10        2.23977  -0.00729   0.00000  -0.01170  -0.01151   2.22825
   A11        2.09887  -0.01232   0.00000  -0.07864  -0.07956   2.01930
   A12        1.86289   0.01981   0.00000   0.10264   0.10310   1.96599
   A13        1.84283  -0.00248   0.00000  -0.01474  -0.01423   1.82860
   A14        2.01293  -0.00122   0.00000  -0.02036  -0.02064   1.99228
   A15        1.95538   0.00241   0.00000  -0.00755  -0.00916   1.94622
   A16        1.84603   0.00374   0.00000   0.01640   0.01577   1.86180
   A17        1.85775   0.00132   0.00000   0.04976   0.04987   1.90762
   A18        1.93607  -0.00336   0.00000  -0.01491  -0.01441   1.92166
   A19        1.90792   0.00028   0.00000  -0.00693  -0.00708   1.90083
   A20        1.92257  -0.00062   0.00000  -0.01407  -0.01405   1.90852
   A21        1.92231  -0.00196   0.00000  -0.00552  -0.00555   1.91676
   A22        1.91889  -0.00080   0.00000   0.00207   0.00183   1.92072
   A23        1.90728   0.00347   0.00000   0.02940   0.02955   1.93683
   A24        1.88475  -0.00035   0.00000  -0.00449  -0.00472   1.88003
   A25        1.93930  -0.00068   0.00000   0.00508   0.00486   1.94416
   A26        1.91878  -0.00085   0.00000  -0.00734  -0.00729   1.91149
   A27        1.90560   0.00029   0.00000  -0.00261  -0.00266   1.90294
   A28        1.91620   0.00050   0.00000   0.00639   0.00644   1.92265
   A29        1.89911   0.00193   0.00000   0.01189   0.01197   1.91108
   A30        1.88385  -0.00118   0.00000  -0.01382  -0.01392   1.86993
   A31        1.94437   0.00169   0.00000   0.01041   0.01061   1.95497
   A32        1.90229  -0.00000   0.00000   0.00409   0.00412   1.90641
   A33        1.91748   0.00046   0.00000   0.00494   0.00480   1.92228
   A34        1.90657  -0.00145   0.00000  -0.01603  -0.01613   1.89044
   A35        1.91556  -0.00080   0.00000  -0.00038  -0.00052   1.91504
   A36        1.87621   0.00004   0.00000  -0.00364  -0.00367   1.87255
   A37        1.94544  -0.00441   0.00000  -0.02518  -0.02512   1.92032
   A38        1.90635   0.00257   0.00000   0.01371   0.01355   1.91990
   A39        1.91112   0.00208   0.00000   0.01802   0.01789   1.92900
   A40        1.90694   0.00101   0.00000  -0.00184  -0.00179   1.90515
   A41        1.91239  -0.00014   0.00000  -0.00176  -0.00159   1.91080
   A42        1.88043  -0.00100   0.00000  -0.00219  -0.00238   1.87805
   A43        1.84424   0.00632   0.00000   0.02333   0.02312   1.86736
   A44        1.93288  -0.00485   0.00000  -0.01996  -0.02035   1.91254
   A45        1.99942  -0.00039   0.00000   0.00236   0.00263   2.00205
   A46        1.88465   0.00197   0.00000   0.02685   0.02698   1.91162
   A47        1.89048  -0.00415   0.00000  -0.03412  -0.03385   1.85662
   A48        1.90762   0.00138   0.00000   0.00343   0.00349   1.91110
   A49        2.10203  -0.00374   0.00000   0.00618   0.00554   2.10756
   A50        2.26979  -0.00619   0.00000  -0.03531  -0.03638   2.23341
   A51        1.97588   0.00267   0.00000   0.01241   0.01263   1.98851
   A52        2.02768   0.00365   0.00000   0.01903   0.01928   2.04696
    D1       -3.00156   0.00053   0.00000  -0.03350  -0.03301  -3.03457
    D2        0.14413   0.00160   0.00000   0.00000   0.00000   0.14413
    D3        0.16459  -0.00172   0.00000  -0.05800  -0.05775   0.10683
    D4       -2.97290  -0.00065   0.00000  -0.02450  -0.02474  -2.99765
    D5        3.09785   0.00153   0.00000  -0.00005  -0.00061   3.09724
    D6       -0.01786   0.00148   0.00000   0.01969   0.01902   0.00116
    D7       -0.04842   0.00025   0.00000  -0.03838  -0.03961  -0.08803
    D8        3.11906   0.00021   0.00000  -0.01864  -0.01999   3.09907
    D9        3.09034   0.00371   0.00000   0.05873   0.05736  -3.13549
   D10        0.10710   0.00224   0.00000   0.08723   0.08679   0.19389
   D11       -0.04655   0.00501   0.00000   0.09736   0.09712   0.05057
   D12       -3.02979   0.00353   0.00000   0.12585   0.12655  -2.90324
   D13        0.30584  -0.00294   0.00000  -0.03182  -0.03219   0.27365
   D14        2.96557   0.00252   0.00000   0.02695   0.02525   2.99083
   D15       -2.86100  -0.00292   0.00000  -0.05121  -0.05157  -2.91257
   D16       -0.20127   0.00254   0.00000   0.00755   0.00587  -0.19540
   D17       -2.88131   0.00051   0.00000   0.00000   0.00000  -2.88131
   D18        1.37078  -0.00179   0.00000   0.00070   0.00092   1.37170
   D19       -0.86615   0.00184   0.00000   0.04685   0.04638  -0.81977
   D20        0.69153   0.00175   0.00000  -0.01639  -0.01749   0.67404
   D21       -1.33957  -0.00054   0.00000  -0.01569  -0.01657  -1.35613
   D22        2.70670   0.00309   0.00000   0.03046   0.02889   2.73559
   D23        2.95060   0.00269   0.00000   0.04534   0.04555   2.99616
   D24       -1.22232   0.00149   0.00000   0.03464   0.03475  -1.18757
   D25        0.85483  -0.00055   0.00000   0.01690   0.01706   0.87189
   D26        0.92132   0.00392   0.00000   0.06376   0.06402   0.98534
   D27        3.03158   0.00273   0.00000   0.05307   0.05322   3.08480
   D28       -1.17445   0.00069   0.00000   0.03532   0.03552  -1.13892
   D29       -1.08609   0.00195   0.00000   0.00340   0.00340  -1.08269
   D30        1.02418   0.00075   0.00000  -0.00730  -0.00741   1.01677
   D31        3.10133  -0.00129   0.00000  -0.02505  -0.02510   3.07623
   D32       -2.89433  -0.00092   0.00000  -0.02513  -0.02486  -2.91919
   D33       -0.85777   0.00253   0.00000   0.00973   0.00965  -0.84812
   D34        1.30939   0.00016   0.00000   0.00000   0.00001   1.30940
   D35       -0.88826  -0.00188   0.00000  -0.01758  -0.01746  -0.90572
   D36        1.14830   0.00158   0.00000   0.01729   0.01706   1.16536
   D37       -2.96772  -0.00080   0.00000   0.00756   0.00741  -2.96031
   D38        1.11183   0.00160   0.00000   0.02200   0.02212   1.13395
   D39       -3.13480   0.00505   0.00000   0.05687   0.05664  -3.07816
   D40       -0.96764   0.00268   0.00000   0.04714   0.04699  -0.92064
   D41        0.95666   0.00112   0.00000   0.00000   0.00001   0.95667
   D42        3.08154   0.00073   0.00000   0.00647   0.00640   3.08794
   D43       -1.13809  -0.00104   0.00000  -0.01623  -0.01621  -1.15430
   D44       -1.15583   0.00221   0.00000   0.02048   0.02059  -1.13524
   D45        0.96904   0.00181   0.00000   0.02694   0.02698   0.99602
   D46        3.03260   0.00005   0.00000   0.00424   0.00437   3.03697
   D47        3.06163   0.00102   0.00000   0.00704   0.00706   3.06869
   D48       -1.09668   0.00063   0.00000   0.01351   0.01345  -1.08323
   D49        0.96688  -0.00114   0.00000  -0.00919  -0.00916   0.95772
   D50       -0.92193  -0.00087   0.00000   0.00000   0.00001  -0.92192
   D51        1.18313  -0.00161   0.00000  -0.01071  -0.01068   1.17245
   D52       -3.04848  -0.00130   0.00000  -0.00987  -0.00990  -3.05838
   D53       -3.04830   0.00031   0.00000   0.00155   0.00158  -3.04672
   D54       -0.94325  -0.00043   0.00000  -0.00916  -0.00911  -0.95236
   D55        1.10833  -0.00012   0.00000  -0.00832  -0.00833   1.10000
   D56        1.17668   0.00032   0.00000   0.00759   0.00761   1.18429
   D57       -3.00145  -0.00042   0.00000  -0.00312  -0.00308  -3.00453
   D58       -0.94988  -0.00011   0.00000  -0.00228  -0.00230  -0.95217
   D59        0.98963  -0.00158   0.00000  -0.01079  -0.01073   0.97890
   D60        3.09853  -0.00142   0.00000  -0.02010  -0.02017   3.07835
   D61       -1.12929   0.00007   0.00000  -0.00428  -0.00415  -1.13345
   D62       -1.11291  -0.00169   0.00000  -0.01192  -0.01186  -1.12477
   D63        0.99599  -0.00153   0.00000  -0.02123  -0.02130   0.97469
   D64        3.05136  -0.00004   0.00000  -0.00541  -0.00528   3.04607
   D65        3.11730  -0.00042   0.00000   0.00214   0.00218   3.11948
   D66       -1.05699  -0.00026   0.00000  -0.00717  -0.00726  -1.06425
   D67        0.99837   0.00124   0.00000   0.00865   0.00876   1.00713
   D68       -1.05818  -0.00005   0.00000  -0.00579  -0.00565  -1.06383
   D69       -3.12715   0.00131   0.00000  -0.00809  -0.00835  -3.13550
   D70        1.09203   0.00085   0.00000  -0.00830  -0.00823   1.08380
   D71        3.11646  -0.00112   0.00000  -0.00557  -0.00545   3.11101
   D72        1.04749   0.00024   0.00000  -0.00787  -0.00815   1.03934
   D73       -1.01651  -0.00021   0.00000  -0.00808  -0.00803  -1.02454
   D74        1.06000  -0.00041   0.00000  -0.00082  -0.00061   1.05939
   D75       -1.00897   0.00094   0.00000  -0.00312  -0.00331  -1.01227
   D76       -3.07297   0.00049   0.00000  -0.00332  -0.00319  -3.07616
   D77       -1.17218   0.00862   0.00000   0.00000   0.00001  -1.17217
   D78        3.05768   0.00377   0.00000  -0.00730  -0.00734   3.05034
   D79        1.00835   0.00299   0.00000  -0.02200  -0.02224   0.98611
   D80        0.51541  -0.00862   0.00000  -0.06594  -0.06461   0.45080
   D81       -2.78839  -0.00722   0.00000  -0.09580  -0.09559  -2.88398
         Item               Value     Threshold  Converged?
 Maximum Force            0.037750     0.000450     NO 
 RMS     Force            0.007018     0.000300     NO 
 Maximum Displacement     0.275978     0.001800     NO 
 RMS     Displacement     0.065806     0.001200     NO 
 Predicted change in Energy=-1.541578D-02
 GradGradGradGradGradGradGradGradGradGradGradGradGradGradGradGradGradGrad

                          Input orientation:                          
 ---------------------------------------------------------------------
 Center     Atomic      Atomic             Coordinates (Angstroms)
 Number     Number       Type             X           Y           Z
 ---------------------------------------------------------------------
      1          8           0       -3.501393   -1.311978   -0.541769
      2          7           0       -3.083191   -0.158032   -0.368267
      3          8           0       -3.764169    0.876989   -0.434316
      4          6           0       -1.654084   -0.012362   -0.057201
      5          6           0       -1.285717    1.263963    0.251492
      6          7           0       -0.067434    1.696602    0.622619
      7          6           0        1.212665    0.994339    0.486839
      8          1           0        1.906128    1.545915    1.140335
      9          6           0        1.804963    1.041614   -0.919616
     10          6           0        3.223157    0.460920   -0.881206
     11          6           0        3.234510   -0.947956   -0.275528
     12          6           0        2.544123   -0.991184    1.086921
     13          6           0        1.110853   -0.457063    0.966844
     14          1           0        0.624725   -0.485930    1.951033
     15          7           0        0.412562   -1.354548    0.052135
     16          6           0       -0.852652   -1.217637   -0.170332
     17          1           0       -2.061383    2.025014    0.238791
     18          1           0        0.043562    2.704029    0.679107
     19          1           0        1.176200    0.453444   -1.598572
     20          1           0        1.813992    2.076902   -1.285205
     21          1           0        3.637686    0.439337   -1.895672
     22          1           0        3.865395    1.122720   -0.282825
     23          1           0        2.709685   -1.635005   -0.949618
     24          1           0        4.265555   -1.309484   -0.179672
     25          1           0        2.513973   -2.021247    1.459296
     26          1           0        3.099259   -0.389255    1.819270
     27          1           0       -1.367972   -2.048128   -0.656884
 ---------------------------------------------------------------------
                    Distance matrix (angstroms):
                    1          2          3          4          5
     1  O    0.000000
     2  N    1.239592   0.000000
     3  O    2.207300   1.240710   0.000000
     4  C    2.310056   1.469805   2.320693   0.000000
     5  C    3.489120   2.374254   2.600540   1.363815   0.000000
     6  N    4.711626   3.676453   3.931249   2.429026   1.345037
     7  C    5.347848   4.529188   5.062724   3.086694   2.523885
     8  H    6.343367   5.483850   5.922774   4.066624   3.325268
     9  C    5.817180   5.063317   5.592660   3.717477   3.312587
    10  C    6.962611   6.357375   7.013953   4.968949   4.717819
    11  C    6.750984   6.367568   7.234442   4.982104   5.059920
    12  C    6.269274   5.871829   6.752686   4.460050   4.522311
    13  C    4.927434   4.411570   5.244882   2.981829   3.035985
    14  H    4.890937   4.385808   5.177821   3.074124   3.098444
    15  N    3.958987   3.718693   4.760407   2.466666   3.127377
    16  C    2.676321   2.477346   3.596397   1.451819   2.554176
    17  H    3.717314   2.485619   2.161138   2.098668   1.086747
    18  H    5.494138   4.366345   4.367677   3.286781   2.005898
    19  H    5.110130   4.475485   5.093341   3.256272   3.184448
    20  H    6.347482   5.460596   5.768855   4.230907   3.553942
    21  H    7.474397   6.918092   7.557417   5.620217   5.434171
    22  H    7.763013   7.066149   7.635023   5.639500   5.180675
    23  H    6.232830   6.006398   6.963220   4.740449   5.080345
    24  H    7.775384   7.440798   8.325981   6.061324   6.133934
    25  H    6.379024   6.175743   7.169421   4.869094   5.166143
    26  H    7.070681   6.562124   7.334075   5.124204   4.941565
    27  H    2.259790   2.568606   3.787823   2.141454   3.435383
                    6          7          8          9         10
     6  N    0.000000
     7  C    1.466378   0.000000
     8  H    2.045894   1.100992   0.000000
     9  C    2.512642   1.526816   2.123194   0.000000
    10  C    3.823139   2.489610   2.645450   1.532956   0.000000
    11  C    4.324719   2.905439   3.160485   2.533149   1.533593
    12  C    3.776242   2.464788   2.616632   2.950392   2.538349
    13  C    2.478936   1.532102   2.162055   2.507300   2.952932
    14  H    2.647114   2.163500   2.535275   3.459332   3.958529
    15  N    3.140917   2.519206   3.439128   2.936779   3.473686
    16  C    3.120597   3.096812   4.118972   3.567711   4.464875
    17  H    2.056941   3.441396   4.096761   4.154228   5.623801
    18  H    1.015096   2.080098   2.241229   2.902081   4.192366
    19  H    2.832977   2.154724   3.037745   1.096480   2.169032
    20  H    2.706324   2.161869   2.484689   1.097979   2.181824
    21  H    4.653002   3.444577   3.666081   2.162012   1.096103
    22  H    4.076312   2.765111   2.458293   2.158115   1.099322
    23  H    4.613450   3.349317   3.889969   2.825546   2.158990
    24  H    5.334325   3.882264   3.932254   3.482771   2.170962
    25  H    4.602835   3.425322   3.632611   3.942465   3.484544
    26  H    3.976269   2.692386   2.372635   3.350236   2.833852
    27  H    4.165517   4.150229   5.183327   4.436559   5.236803
                   11         12         13         14         15
    11  C    0.000000
    12  C    1.527996   0.000000
    13  C    2.508861   1.534264   0.000000
    14  H    3.461506   2.164731   1.098081   0.000000
    15  N    2.869856   2.397158   1.459378   2.098886   0.000000
    16  C    4.097400   3.629055   2.393114   2.686675   1.291899
    17  H    6.095044   5.570229   4.093147   4.056080   4.192455
    18  H    4.942719   4.480370   3.348791   3.483014   4.123263
    19  H    2.819753   3.342160   2.722986   3.712983   2.564530
    20  H    3.491001   3.946292   3.462240   4.296010   3.940474
    21  H    2.170714   3.483982   3.922042   4.973047   4.172937
    22  H    2.164663   2.844389   3.412460   4.252037   4.262758
    23  H    1.096300   2.142290   2.759826   3.752493   2.521694
    24  H    1.096788   2.160764   3.463129   4.298114   3.860223
    25  H    2.163502   1.095720   2.158223   2.483598   2.615438
    26  H    2.172238   1.098558   2.164483   2.479925   3.357513
    27  H    4.747490   4.411630   3.363415   3.634905   2.038152
                   16         17         18         19         20
    16  C    0.000000
    17  H    3.484709   0.000000
    18  H    4.111473   2.255157   0.000000
    19  H    2.991425   4.040752   3.396443   0.000000
    20  H    4.382684   4.164588   2.717763   1.772172   0.000000
    21  H    5.087779   6.288855   4.967499   2.479391   2.525896
    22  H    5.267816   6.017716   4.246441   3.067717   2.474567
    23  H    3.670385   6.129530   5.346791   2.671018   3.833163
    24  H    5.119039   7.164086   5.888210   3.829531   4.324347
    25  H    3.825655   6.228623   5.388864   4.155032   4.981675
    26  H    4.501370   5.912599   4.495070   4.011227   4.167925
    27  H    1.091789   4.227711   5.134228   3.690183   5.247433
                   21         22         23         24         25
    21  H    0.000000
    22  H    1.766391   0.000000
    23  H    2.461523   3.063547   0.000000
    24  H    2.529279   2.467060   1.766214   0.000000
    25  H    4.309642   3.840033   2.447519   2.502171   0.000000
    26  H    3.844120   2.700339   3.061111   2.490549   1.770746
    27  H    5.725268   6.130443   4.108972   5.701750   4.421362
                   26         27
    26  H    0.000000
    27  H    5.370229   0.000000
 Symmetry turned off by external request.
 Stoichiometry    C9H13N3O2
 Framework group  C1[X(C9H13N3O2)]
 Deg. of freedom    75
 Full point group                 C1      NOp   1
 Rotational constants (GHZ):           1.6269642           0.4255853           0.3788302
 Standard basis: 6-31G(d) (6D, 7F)
   236 basis functions,   444 primitive gaussians,   236 cartesian basis functions
    52 alpha electrons       52 beta electrons
       nuclear repulsion energy       932.5905791258 Hartrees.
 NAtoms=   27 NActive=   27 NUniq=   27 SFac= 1.00D+00 NAtFMM=   60 NAOKFM=F Big=F
 Integral buffers will be    131072 words long.
 Raffenetti 1 integral format.
 Two-electron integral symmetry is turned off.
 One-electron integrals computed using PRISM.
 NBasis=   236 RedAO= T EigKep=  1.02D-03  NBF=   236
 NBsUse=   236 1.00D-06 EigRej= -1.00D+00 NBFU=   236
 Initial guess from the checkpoint file:  "/home/alexey/tmp/Gau-1521554.chk"
 B after Tr=     0.058264    0.003300    0.015623
         Rot=    0.999998   -0.001384   -0.001697    0.000168 Ang=  -0.25 deg.
 ExpMin= 1.61D-01 ExpMax= 5.48D+03 ExpMxC= 8.25D+02 IAcc=3 IRadAn=         5 AccDes= 0.00D+00
 Harris functional with IExCor=  205 and IRadAn=       5 diagonalized for initial guess.
 HarFok:  IExCor=  205 AccDes= 0.00D+00 IRadAn=         5 IDoV= 1 UseB2=F ITyADJ=14
 ICtDFT=  3500011 ScaDFX=  1.000000  1.000000  1.000000  1.000000
 FoFCou: FMM=F IPFlag=           0 FMFlag=      100000 FMFlg1=           0
         NFxFlg=           0 DoJE=T BraDBF=F KetDBF=T FulRan=T
         wScrn=  0.000000 ICntrl=       500 IOpCl=  0 I1Cent=   200000004 NGrid=           0
         NMat0=    1 NMatS0=      1 NMatT0=    0 NMatD0=    1 NMtDS0=    0 NMtDT0=    0
 Symmetry not used in FoFCou.
 Keep R1 ints in memory in canonical form, NReq=397720213.
 Requested convergence on RMS density matrix=1.00D-08 within 128 cycles.
 Requested convergence on MAX density matrix=1.00D-06.
 Requested convergence on             energy=1.00D-06.
 No special actions if energy rises.
 SCF Done:  E(RHF) =  -661.294474226     A.U. after   15 cycles
            NFock= 15  Conv=0.63D-08     -V/T= 2.0025
 ExpMin= 1.61D-01 ExpMax= 5.48D+03 ExpMxC= 8.25D+02 IAcc=3 IRadAn=         5 AccDes= 0.00D+00
 HarFok:  IExCor=  205 AccDes= 0.00D+00 IRadAn=         5 IDoV=-2 UseB2=F ITyADJ=14
 ICtDFT= 12500011 ScaDFX=  1.000000  1.000000  1.000000  1.000000
 Range of M.O.s used for correlation:    15   236
 NBasis=   236 NAE=    52 NBE=    52 NFC=    14 NFV=     0
 NROrb=    222 NOA=    38 NOB=    38 NVA=   184 NVB=   184
 Fully direct method using O(ONN) memory.
 JobTyp=1 Pass  1:  I=  15 to  52 NPSUse=  4 ParTrn=T ParDer=T DoDerP=T.
 Spin components of T(2) and E(2):
     alpha-alpha T2 =       0.9151216212D-01 E2=     -0.2726548073D+00
     alpha-beta  T2 =       0.4917999565D+00 E2=     -0.1488507076D+01
     beta-beta   T2 =       0.9151216212D-01 E2=     -0.2726548073D+00
 ANorm=    0.1294150023D+01
 E2 =    -0.2033816691D+01 EUMP2 =    -0.66332829091688D+03
          IDoAtm=111111111111111111111111111
          Differentiating once with respect to electric field.
                with respect to dipole field.
          Differentiating once with respect to nuclear coordinates.
 Keep R1 ints in memory in canonical form, NReq=397723379.
[...]
    27  H    4.659260   4.403722   3.371895   3.675889   2.025560
                   16         17         18         19         20
    16  C    0.000000
    17  H    3.463727   0.000000
    18  H    4.091126   2.226526   0.000000
    19  H    2.920048   4.075757   3.449879   0.000000
    20  H    4.337423   4.244865   2.827728   1.769322   0.000000
    21  H    5.025699   6.341667   5.053398   2.498801   2.523743
    22  H    5.219971   6.039112   4.311360   3.070344   2.459617
    23  H    3.629911   6.149291   5.397928   2.712145   3.848178
    24  H    5.096003   7.172404   5.933308   3.853293   4.316630
    25  H    3.841718   6.190734   5.387005   4.180070   4.987704
    26  H    4.518993   5.895369   4.513004   4.039491   4.179329
    27  H    1.089925   4.217228   5.098995   3.533272   5.126940
                   21         22         23         24         25
    21  H    0.000000
    22  H    1.758610   0.000000
    23  H    2.470740   3.062331   0.000000
    24  H    2.515003   2.457035   1.764330   0.000000
    25  H    4.311841   3.839402   2.442001   2.519926   0.000000
    26  H    3.848467   2.705480   3.061324   2.496501   1.769679
    27  H    5.569727   6.018955   3.998132   5.623751   4.439418
                   26         27
    26  H    0.000000
    27  H    5.376417   0.000000
 Symmetry turned off by external request.
 Stoichiometry    C9H13N3O2
 Framework group  C1[X(C9H13N3O2)]
 Deg. of freedom    75
 Full point group                 C1      NOp   1
 Rotational constants (GHZ):           1.6485218           0.4222124           0.3765639

 **********************************************************************

            Population analysis using the SCF Density.

 **********************************************************************

 Alpha  occ. eigenvalues --  -20.59291 -20.58954 -15.84774 -15.64087 -15.55890
 Alpha  occ. eigenvalues --  -11.34998 -11.29639 -11.29597 -11.28712 -11.27157
 Alpha  occ. eigenvalues --  -11.23773 -11.23222 -11.22621 -11.22008  -1.57176
 Alpha  occ. eigenvalues --   -1.36764  -1.30919  -1.22876  -1.14728  -1.09755
 Alpha  occ. eigenvalues --   -1.02777  -1.01303  -0.94468  -0.89721  -0.85525
 Alpha  occ. eigenvalues --   -0.82422  -0.78646  -0.77388  -0.75018  -0.71892
 Alpha  occ. eigenvalues --   -0.69784  -0.69494  -0.67933  -0.64799  -0.64087
 Alpha  occ. eigenvalues --   -0.62297  -0.60090  -0.57897  -0.56767  -0.55054
 Alpha  occ. eigenvalues --   -0.54623  -0.50719  -0.50210  -0.48753  -0.48168
 Alpha  occ. eigenvalues --   -0.47375  -0.46194  -0.45922  -0.43730  -0.41776
 Alpha  occ. eigenvalues --   -0.39275  -0.33735
 Alpha virt. eigenvalues --    0.07296   0.11560   0.17285   0.21971   0.24277
 Alpha virt. eigenvalues --    0.25931   0.27121   0.28736   0.29223   0.29453
 Alpha virt. eigenvalues --    0.30731   0.31933   0.32084   0.32819   0.33729
 Alpha virt. eigenvalues --    0.34453   0.35904   0.37602   0.38396   0.40324
 Alpha virt. eigenvalues --    0.41250   0.42144   0.44624   0.45898   0.46540
 Alpha virt. eigenvalues --    0.47653   0.48974   0.53903   0.57424   0.59382
 Alpha virt. eigenvalues --    0.63873   0.69020   0.69673   0.73301   0.74039
 Alpha virt. eigenvalues --    0.75230   0.75582   0.76396   0.78626   0.79321
 Alpha virt. eigenvalues --    0.81589   0.84225   0.85404   0.85943   0.88229
 Alpha virt. eigenvalues --    0.88585   0.91340   0.92068   0.92974   0.94373
 Alpha virt. eigenvalues --    0.95396   0.97877   0.99775   1.01548   1.02301
 Alpha virt. eigenvalues --    1.03183   1.05813   1.06902   1.07993   1.09067
 Alpha virt. eigenvalues --    1.10429   1.11939   1.12093   1.12550   1.13928
 Alpha virt. eigenvalues --    1.14512   1.15048   1.16040   1.17182   1.18493
 Alpha virt. eigenvalues --    1.18776   1.21742   1.23104   1.23855   1.24950
 Alpha virt. eigenvalues --    1.24980   1.25845   1.27020   1.28174   1.29865
 Alpha virt. eigenvalues --    1.30550   1.32846   1.35850   1.37247   1.40680
 Alpha virt. eigenvalues --    1.41642   1.46209   1.48814   1.52326   1.54894
 Alpha virt. eigenvalues --    1.57413   1.59657   1.61070   1.63523   1.65883
 Alpha virt. eigenvalues --    1.67925   1.69284   1.72466   1.75344   1.78603
 Alpha virt. eigenvalues --    1.81493   1.84136   1.87200   1.89287   1.91438
 Alpha virt. eigenvalues --    1.95551   1.96465   1.99817   2.01585   2.02534
 Alpha virt. eigenvalues --    2.04652   2.05742   2.09807   2.10001   2.12020
 Alpha virt. eigenvalues --    2.12460   2.15758   2.19001   2.19922   2.21456
 Alpha virt. eigenvalues --    2.22428   2.24759   2.25139   2.27709   2.29095
 Alpha virt. eigenvalues --    2.30898   2.33649   2.34469   2.36422   2.38196
 Alpha virt. eigenvalues --    2.41182   2.42126   2.44429   2.44898   2.48152
 Alpha virt. eigenvalues --    2.51065   2.52203   2.53703   2.54933   2.59995
 Alpha virt. eigenvalues --    2.63011   2.66132   2.67392   2.69655   2.70318
 Alpha virt. eigenvalues --    2.71091   2.71894   2.75856   2.78223   2.84126
 Alpha virt. eigenvalues --    2.87572   2.88657   2.92588   2.93411   2.95823
 Alpha virt. eigenvalues --    2.98965   3.01151   3.03968   3.06857   3.08317
 Alpha virt. eigenvalues --    3.09824   3.16375   3.20717   3.25240   3.27306
 Alpha virt. eigenvalues --    3.33591   3.37641   3.38396   3.51899   3.66038
 Alpha virt. eigenvalues --    4.13763   4.27974   4.34116   4.39327   4.47215
 Alpha virt. eigenvalues --    4.55636   4.62106   4.62299   4.73025   4.80813
 Alpha virt. eigenvalues --    4.99156   5.00986   5.05878   5.10700
          Condensed to atoms (all electrons):
               1          2          3          4          5          6
     1  O    8.316176   0.305591  -0.082538  -0.084481   0.004554  -0.000014
     2  N    0.305591   5.721522   0.302036   0.261855  -0.054448   0.000922
     3  O   -0.082538   0.302036   8.352421  -0.092256   0.002965   0.000782
     4  C   -0.084481   0.261855  -0.092256   5.235792   0.561666  -0.051105
     5  C    0.004554  -0.054448   0.002965   0.561666   4.714341   0.321464
     6  N   -0.000014   0.000922   0.000782  -0.051105   0.321464   7.174532
     7  C    0.000003  -0.000122   0.000002   0.005664  -0.030142   0.184032
     8  H   -0.000000   0.000002  -0.000000  -0.000283   0.003600  -0.046776
     9  C   -0.000000  -0.000008  -0.000000   0.000741  -0.000482  -0.065710
    10  C   -0.000000   0.000000   0.000000  -0.000045  -0.000019   0.003982
    11  C   -0.000000  -0.000000  -0.000000  -0.000021   0.000014  -0.000170
    12  C    0.000000   0.000002  -0.000000  -0.000255  -0.000158   0.003653
    13  C   -0.000017   0.000008  -0.000002  -0.007986  -0.000786  -0.056219
    14  H   -0.000001  -0.000070   0.000001   0.001855   0.003944  -0.005941
    15  N    0.000525   0.002257  -0.000016  -0.065655  -0.006087   0.001314
    16  C    0.000548  -0.025434   0.002607   0.321631  -0.051431  -0.000565
    17  H    0.000225  -0.007030   0.017448  -0.023236   0.375171  -0.033687
    18  H    0.000001  -0.000053   0.000013   0.001904  -0.032392   0.338403
    19  H    0.000001  -0.000012   0.000000  -0.001565   0.002192  -0.001148
    20  H    0.000000  -0.000000   0.000000  -0.000054  -0.000012   0.000312
    21  H   -0.000000  -0.000000  -0.000000   0.000002   0.000000  -0.000086
    22  H   -0.000000   0.000000  -0.000000  -0.000000  -0.000002  -0.000095
    23  H    0.000000  -0.000000   0.000000   0.000049  -0.000001  -0.000029
    24  H    0.000000   0.000000   0.000000   0.000000  -0.000000   0.000006
    25  H    0.000000  -0.000000   0.000000   0.000027  -0.000002  -0.000086
    26  H    0.000000  -0.000000   0.000000   0.000004   0.000000  -0.000070
    27  H    0.006500  -0.000708   0.000029  -0.066882   0.002064  -0.000001
               7          8          9         10         11         12
     1  O    0.000003  -0.000000  -0.000000  -0.000000  -0.000000   0.000000
     2  N   -0.000122   0.000002  -0.000008   0.000000  -0.000000   0.000002
     3  O    0.000002  -0.000000  -0.000000   0.000000  -0.000000  -0.000000
     4  C    0.005664  -0.000283   0.000741  -0.000045  -0.000021  -0.000255
     5  C   -0.030142   0.003600  -0.000482  -0.000019   0.000014  -0.000158
     6  N    0.184032  -0.046776  -0.065710   0.003982  -0.000170   0.003653
     7  C    5.028161   0.414386   0.357789  -0.055890  -0.009422  -0.062311
     8  H    0.414386   0.529725  -0.059246   0.000616  -0.000144  -0.001838
     9  C    0.357789  -0.059246   5.169963   0.325649  -0.050595  -0.005011
    10  C   -0.055890   0.000616   0.325649   5.116834   0.337632  -0.061267
    11  C   -0.009422  -0.000144  -0.050595   0.337632   5.123365   0.335656
    12  C   -0.062311  -0.001838  -0.005011  -0.061267   0.335656   5.118482
    13  C    0.327953  -0.029528  -0.063975   0.000519  -0.049948   0.372097
    14  H   -0.044639  -0.000810   0.004317  -0.000402   0.004200  -0.036275
    15  N   -0.058446   0.003568  -0.017306   0.001494  -0.015691  -0.083243
    16  C   -0.000954  -0.000042  -0.001071  -0.000068   0.000016   0.002214
    17  H    0.001574  -0.000042  -0.000055   0.000001   0.000000   0.000001
    18  H   -0.023409  -0.004312   0.001248  -0.000086   0.000005  -0.000116
    19  H   -0.035987   0.004439   0.391020  -0.031940  -0.002111   0.000735
    20  H   -0.043325  -0.002390   0.397953  -0.034841   0.003929  -0.000450
    21  H    0.004600  -0.000107  -0.036131   0.402111  -0.034830   0.004369
    22  H   -0.004818   0.003778  -0.047287   0.397838  -0.045516  -0.000890
    23  H    0.000752   0.000029  -0.002007  -0.038627   0.399036  -0.037384
    24  H   -0.000139  -0.000096   0.004423  -0.038605   0.402229  -0.038781
    25  H    0.005155  -0.000023  -0.000414   0.004186  -0.033533   0.397838
    26  H   -0.003273   0.001440   0.000979  -0.002142  -0.041335   0.397068
    27  H   -0.000409   0.000007  -0.000052   0.000006   0.000019  -0.000029
              13         14         15         16         17         18
     1  O   -0.000017  -0.000001   0.000525   0.000548   0.000225   0.000001
     2  N    0.000008  -0.000070   0.002257  -0.025434  -0.007030  -0.000053
     3  O   -0.000002   0.000001  -0.000016   0.002607   0.017448   0.000013
     4  C   -0.007986   0.001855  -0.065655   0.321631  -0.023236   0.001904
     5  C   -0.000786   0.003944  -0.006087  -0.051431   0.375171  -0.032392
     6  N   -0.056219  -0.005941   0.001314  -0.000565  -0.033687   0.338403
     7  C    0.327953  -0.044639  -0.058446  -0.000954   0.001574  -0.023409
     8  H   -0.029528  -0.000810   0.003568  -0.000042  -0.000042  -0.004312
     9  C   -0.063975   0.004317  -0.017306  -0.001071  -0.000055   0.001248
    10  C    0.000519  -0.000402   0.001494  -0.000068   0.000001  -0.000086
    11  C   -0.049948   0.004200  -0.015691   0.000016   0.000000   0.000005
    12  C    0.372097  -0.036275  -0.083243   0.002214   0.000001  -0.000116
    13  C    5.033025   0.406251   0.243507  -0.066300  -0.000090   0.003476
    14  H    0.406251   0.515866  -0.035634  -0.004398   0.000043  -0.000062
    15  N    0.243507  -0.035634   6.987718   0.585755  -0.000038  -0.000147
    16  C   -0.066300  -0.004398   0.585755   4.704714   0.001966  -0.000208
    17  H   -0.000090   0.000043  -0.000038   0.001966   0.375798  -0.003331
    18  H    0.003476  -0.000062  -0.000147  -0.000208  -0.003331   0.316191
    19  H   -0.007474   0.000072   0.007149   0.002741   0.000021  -0.000147
    20  H    0.004585  -0.000064   0.000199  -0.000050  -0.000011   0.001177
    21  H   -0.000448   0.000010  -0.000063   0.000005  -0.000000   0.000001
    22  H   -0.000162  -0.000053   0.000036  -0.000002   0.000000   0.000001
    23  H   -0.008321  -0.000003   0.009154   0.000158   0.000000   0.000000
    24  H    0.004756  -0.000058   0.000178   0.000007   0.000000  -0.000000
    25  H   -0.035413  -0.002924   0.000956  -0.000067  -0.000000   0.000002
    26  H   -0.048213  -0.000855   0.004986  -0.000032   0.000000  -0.000001
    27  H    0.004782  -0.000162  -0.041356   0.406790  -0.000078   0.000001
              19         20         21         22         23         24
     1  O    0.000001   0.000000  -0.000000  -0.000000   0.000000   0.000000
     2  N   -0.000012  -0.000000  -0.000000   0.000000  -0.000000   0.000000
     3  O    0.000000   0.000000  -0.000000  -0.000000   0.000000   0.000000
     4  C   -0.001565  -0.000054   0.000002  -0.000000   0.000049   0.000000
     5  C    0.002192  -0.000012   0.000000  -0.000002  -0.000001  -0.000000
     6  N   -0.001148   0.000312  -0.000086  -0.000095  -0.000029   0.000006
     7  C   -0.035987  -0.043325   0.004600  -0.004818   0.000752  -0.000139
     8  H    0.004439  -0.002390  -0.000107   0.003778   0.000029  -0.000096
     9  C    0.391020   0.397953  -0.036131  -0.047287  -0.002007   0.004423
    10  C   -0.031940  -0.034841   0.402111   0.397838  -0.038627  -0.038605
    11  C   -0.002111   0.003929  -0.034830  -0.045516   0.399036   0.402229
    12  C    0.000735  -0.000450   0.004369  -0.000890  -0.037384  -0.038781
    13  C   -0.007474   0.004585  -0.000448  -0.000162  -0.008321   0.004756
    14  H    0.000072  -0.000064   0.000010  -0.000053  -0.000003  -0.000058
    15  N    0.007149   0.000199  -0.000063   0.000036   0.009154   0.000178
    16  C    0.002741  -0.000050   0.000005  -0.000002   0.000158   0.000007
    17  H    0.000021  -0.000011  -0.000000   0.000000   0.000000   0.000000
    18  H   -0.000147   0.001177   0.000001   0.000001   0.000000  -0.000000
    19  H    0.504282  -0.025101  -0.002831   0.003962   0.001453  -0.000069
    20  H   -0.025101   0.545681  -0.002693  -0.003070  -0.000044  -0.000084
    21  H   -0.002831  -0.002693   0.524120  -0.027521  -0.002872  -0.002270
    22  H    0.003962  -0.003070  -0.027521   0.572337   0.004124  -0.003691
    23  H    0.001453  -0.000044  -0.002872   0.004124   0.496387  -0.025471
    24  H   -0.000069  -0.000084  -0.002270  -0.003691  -0.025471   0.538926
    25  H   -0.000026   0.000012  -0.000086  -0.000081  -0.002246  -0.002310
    26  H    0.000020  -0.000030  -0.000080   0.002381   0.004032  -0.002972
    27  H    0.000081   0.000000  -0.000000   0.000000  -0.000046  -0.000000
              25         26         27
     1  O    0.000000   0.000000   0.006500
     2  N   -0.000000  -0.000000  -0.000708
     3  O    0.000000   0.000000   0.000029
     4  C    0.000027   0.000004  -0.066882
     5  C   -0.000002   0.000000   0.002064
     6  N   -0.000086  -0.000070  -0.000001
     7  C    0.005155  -0.003273  -0.000409
     8  H   -0.000023   0.001440   0.000007
     9  C   -0.000414   0.000979  -0.000052
    10  C    0.004186  -0.002142   0.000006
    11  C   -0.033533  -0.041335   0.000019
    12  C    0.397838   0.397068  -0.000029
    13  C   -0.035413  -0.048213   0.004782
    14  H   -0.002924  -0.000855  -0.000162
    15  N    0.000956   0.004986  -0.041356
    16  C   -0.000067  -0.000032   0.406790
    17  H   -0.000000   0.000000  -0.000078
    18  H    0.000002  -0.000001   0.000001
    19  H   -0.000026   0.000020   0.000081
    20  H    0.000012  -0.000030   0.000000
    21  H   -0.000086  -0.000080  -0.000000
    22  H   -0.000081   0.002381   0.000000
    23  H   -0.002246   0.004032  -0.000046
    24  H   -0.002310  -0.002972  -0.000000
    25  H    0.507095  -0.023971  -0.000016
    26  H   -0.023971   0.561362   0.000001
    27  H   -0.000016   0.000001   0.438153
 Mulliken charges:
               1
     1  O   -0.467072
     2  N    0.493692
     3  O   -0.503494
     4  C    0.002633
     5  C    0.183988
     6  N   -0.767699
     7  C    0.043215
     8  H    0.184048
     9  C   -0.304733
    10  C   -0.326934
    11  C   -0.322786
    12  C   -0.304106
    13  C   -0.026075
    14  H    0.195791
    15  N   -0.525113
    16  C    0.121469
    17  H    0.295348
    18  H    0.401841
    19  H    0.190245
    20  H    0.158372
    21  H    0.174801
    22  H    0.148732
    23  H    0.201879
    24  H    0.164023
    25  H    0.185926
    26  H    0.150703
    27  H    0.251306
 Sum of Mulliken charges =  -0.00000
 Mulliken charges with hydrogens summed into heavy atoms:
               1
     1  O   -0.467072
     2  N    0.493692
     3  O   -0.503494
     4  C    0.002633
     5  C    0.479336
     6  N   -0.365858
     7  C    0.227264
     9  C    0.043884
    10  C   -0.003401
    11  C    0.043116
    12  C    0.032522
    13  C    0.169716
    15  N   -0.525113
    16  C    0.372775
 Electronic spatial extent (au):  <R**2>=           2986.9696
 Charge=              0.0000 electrons
 Dipole moment (field-independent basis, Debye):
    X=              5.3926    Y=              4.6689    Z=              1.4675  Tot=              7.2823
 Quadrupole moment (field-independent basis, Debye-Ang):
   XX=           -105.7396   YY=            -78.8734   ZZ=            -82.0617
   XY=             -1.0780   XZ=             -1.8851   YZ=              1.4983
 Traceless Quadrupole moment (field-independent basis, Debye-Ang):
   XX=            -16.8481   YY=             10.0182   ZZ=              6.8299
   XY=             -1.0780   XZ=             -1.8851   YZ=              1.4983
 Octapole moment (field-independent basis, Debye-Ang**2):
  XXX=             88.0229  YYY=             34.4195  ZZZ=             -0.0070  XYY=             -5.0690
  XXY=              7.4715  XXZ=             14.4161  XZZ=             -8.6016  YZZ=             -0.9606
  YYZ=              8.1409  XYZ=              0.9153
 Hexadecapole moment (field-independent basis, Debye-Ang**3):
 XXXX=          -3322.4495 YYYY=           -598.1511 ZZZZ=           -323.3187 XXXY=              1.8367
 XXXZ=            -91.0570 YYYX=              7.8329 YYYZ=             22.7571 ZZZX=            -40.7732
 ZZZY=              3.0805 XXYY=           -619.8115 XXZZ=           -525.6166 YYZZ=           -161.8598
 XXYZ=             -2.8452 YYXZ=            -14.1041 ZZXY=              7.9631
 N-N= 9.320178687842D+02 E-N=-3.410757529683D+03  KE= 6.596249019965D+02
 Unable to Open any file for archive entry.
 1\1\GINC-LOTUS\FOpt\RMP2-FC\6-31G(d)\C9H13N3O2\ALEXEY\02-Jul-2023\0\\#
 MP2/6-31G* SCF=Tight Opt=(ModRedun, MaxCycle=20 ) NoSymm\\MolName:\\0,
 1\O,-3.4957683773,-1.3428059002,-0.5386675448\N,-3.0977257086,-0.18894
 30579,-0.2871232749\O,-3.8516903208,0.802034317,-0.2339115692\C,-1.675
 391078,-0.0189686896,-0.0308856712\C,-1.281804962,1.2668577636,0.23986
 87703\N,-0.0574809931,1.7094910898,0.569764934\C,1.2209967585,1.016613
 3788,0.4698430394\H,1.916461414,1.6074005677,1.0825091155\C,1.82628038
 46,1.0330541907,-0.9398628421\C,3.2332287255,0.4260629691,-0.873286228
 5\C,3.2315668655,-0.9712979142,-0.2474924606\C,2.5302185071,-0.9878955
 198,1.1116663965\C,1.106757857,-0.4378937156,0.9595373877\H,0.57128830
 74,-0.4489310716,1.9197574642\N,0.4262832826,-1.3083247221,0.004621851
 6\C,-0.8294980916,-1.170420175,-0.2729595488\H,-2.0666467008,2.0168155
 737,0.2823758854\H,0.0043197252,2.7113948745,0.7137395945\H,1.18545298
 93,0.4597934131,-1.6179719502\H,1.8665993781,2.0640762065,-1.313311760
 6\H,3.6697269492,0.3910451714,-1.8780929254\H,3.8748111033,1.091777777
 9,-0.2782101677\H,2.7092858142,-1.6688897903,-0.9091884017\H,4.2623314
 623,-1.3307521386,-0.143308761\H,2.4747543794,-2.0111892777,1.49730139
 66\H,3.0846214535,-0.38676657,1.8452605338\H,-1.2779791247,-1.96135875
 12,-0.8739732627\\Version=ES64L-G16RevC.02\HF=-661.2962931\MP2=-663.33
 14686\RMSD=5.369e-09\RMSF=2.784e-03\Dipole=1.9724056,1.6457481,0.53772
 83\PG=C01 [X(C9H13N3O2)]\\@
 The archive entry for this job was punched.


 We make a living by what we get,
 we make a life by what we give.
                   -- Sir Winston Churchill
 Job cpu time:       0 days  1 hours  8 minutes 58.2 seconds.
 Elapsed time:       0 days  0 hours 20 minutes 34.8 seconds.
 File lengths (MBytes):  RWF=     36 Int=      0 D2E=      0 Chk=      7 Scr=      1
 Normal termination of Gaussian 16 at Sun Jul  2 14:15:54 2023.
