 Entering Gaussian System, Link 0=g16
 Initial command:
 /home/alexey/programs//g16/l1.exe "/home/alexey/tmp/Gau-1519292.inp" -scrdir="/home/alexey/tmp/"
 Entering Link 1 = /home/alexey/programs//g16/l1.exe PID=   1519294.
  
 Copyright (c) 1988-2021, Gaussian, Inc.  All Rights Reserved.
  
 This is part of the Gaussian(R) 16 program.  It is based on
 the Gaussian(R) 09 system (copyright 2009, Gaussian, Inc.),
 the Gaussian(R) 03 system (copyright 2003, Gaussian, Inc.),
 the Gaussian(R) 98 system (copyright 1998, Gaussian, Inc.),
 the Gaussian(R) 94 system (copyright 1995, Gaussian, Inc.),
 the Gaussian 92(TM) system (copyright 1992, Gaussian, Inc.),
 the Gaussian 90(TM) system (copyright 1990, Gaussian, Inc.),
 the Gaussian 88(TM) system (copyright 1988, Gaussian, Inc.),
 the Gaussian 86(TM) system (copyright 1986, Carnegie Mellon
 University), and the Gaussian 82(TM) system (copyright 1983,
 Carnegie Mellon University). Gaussian is a federally registered
 trademark of Gaussian, Inc.
  
 This software contains proprietary and confidential information,
 including trade secrets, belonging to Gaussian, Inc.
  
 This software is provided under written license and may be
 used, copied, transmitted, or stored only in accord with that
 written license.
  
 The following legend is applicable only to US Government
 contracts under FAR:
  
                    RESTRICTED RIGHTS LEGEND
  
 Use, reproduction and disclosure by the US Government is
 subject to restrictions as set forth in subparagraphs (a)
 and (c) of the Commercial Computer Software - Restricted
 Rights clause in FAR 52.227-19.
  
 Gaussian, Inc.
 340 Quinnipiac St., Bldg. 40, Wallingford CT 06492
  
  
 ---------------------------------------------------------------
 Warning -- This program may not be used in any manner that
 competes with the business of Gaussian, Inc. or will provide
 assistance to any competitor of Gaussian, Inc.  The licensee
 of this program is prohibited from giving any competitor of
 Gaussian, Inc. access to this program.  By using this program,
 the user acknowledges that Gaussian, Inc. is engaged in the
 business of creating and licensing software in the field of
 computational chemistry and represents and warrants to the
 licensee that it is not a competitor of Gaussian, Inc. and that
 it will not use this program in any manner prohibited above.
 ---------------------------------------------------------------
  

 Cite this work as:
 Gaussian 16, Revision C.02,
 M. J. Frisch, G. W. Trucks, H. B. Schlegel, G. E. Scuseria, 
 M. A. Robb, J. R. Cheeseman, G. Scalmani, V. Barone, 
 G. A. Petersson, H. Nakatsuji, X. Li, M. Caricato, A. V. Marenich, 
 J. Bloino, B. G. Janesko, R. Gomperts, B. Mennucci, H. P. Hratchian, 
 J. V. Ortiz, A. F. Izmaylov, J. L. Sonnenberg, D. Williams-Young, 
 F. Ding, F. Lipparini, F. Egidi, J. Goings, B. Peng, A. Petrone, 
 T. Henderson, D. Ranasinghe, V. G. Zakrzewski, J. Gao, N. Rega, 
 G. Zheng, W. Liang, M. Hada, M. Ehara, K. Toyota, R. Fukuda, 
 J. Hasegawa, M. Ishida, T. Nakajima, Y. Honda, O. Kitao, H. Nakai, 
 T. Vreven, K. Throssell, J. A. Montgomery, Jr., J. E. Peralta, 
 F. Ogliaro, M. J. Bearpark, J. J. Heyd, E. N. Brothers, K. N. Kudin, 
 V. N. Staroverov, T. A. Keith, R. Kobayashi, J. Normand, 
 K. Raghavachari, A. P. Rendell, J. C. Burant, S. S. Iyengar, 
 J. Tomasi, M. Cossi, J. M. Millam, M. Klene, C. Adamo, R. Cammi, 
 J. W. Ochterski, R. L. Martin, K. Morokuma, O. Farkas, 
 J. B. Foresman, and D. J. Fox, Gaussian, Inc., Wallingford CT, 2019.
 
 ******************************************
 Gaussian 16:  ES64L-G16RevC.02  7-Dec-2021
                 2-Jul-2023 
 ******************************************
 %mem=8GB
 %NPROCS=4
 Will use up to    4 processors via shared memory.
 %NoSave
 ---------------------------------------------------------
 #MP2/6-31G* SCF=Tight Opt=(ModRedun, MaxCycle=20 ) NoSymm
 ---------------------------------------------------------
 1/6=20,18=120,19=15,38=1/1,3;
 2/9=110,12=2,15=1,17=6,18=5,40=1/2;
 3/5=1,6=6,7=1,11=9,25=1,30=1,71=1/1,2,3;
 4//1;
 5/5=2,32=2,38=5/2;
 8/6=4,10=2/1;
 9/15=2,16=-3/6;
 10/5=1,31=1/2;
 6/7=2,8=2,9=2,10=2/1;
 7/12=2,30=1/1,2,3,16;
 1/6=20,18=20,19=15/3(2);
 2/9=110,15=1/2;
 99//99;
 2/9=110,15=1/2;
 3/5=1,6=6,7=1,11=9,25=1,30=1,71=1/1,2,3;
 4/5=5,16=3,69=1/1;
 5/5=2,32=2,38=5/2;
 8/6=4,10=2/1;
 9/15=2,16=-3/6;
 10/5=1,31=1/2;
 7/12=2,30=1/1,2,3,16;
 1/6=20,18=20,19=15/3(-8);
 2/9=110,15=1/2;
 6/7=2,8=2,9=2,10=2/1;
 99/9=10/99;
 --------
 MolName:
 --------
 Symbolic Z-matrix:
 Charge =  0 Multiplicity = 1
 8                    0    -3.64436  -1.394    -0.30588 
 7                    0    -3.25867  -0.23542  -0.15938 
 8                    0    -4.01791   0.73296  -0.10552 
 6                    0    -1.75125   0.00531  -0.05489 
 6                    0    -1.35535   1.31635   0.23442 
 7                    0    -0.08013   1.73846   0.50144 
 6                    0     1.20541   0.9847    0.41848 
 1                    0     1.90084   1.49607   1.13308 
 6                    0     1.91132   1.04536  -0.96054 
 6                    0     3.33406   0.46836  -0.8301 
 6                    0     3.3055   -0.94922  -0.23666 
 6                    0     2.51048  -0.99086   1.08629 
 6                    0     1.06124  -0.46624   0.89344 
 1                    0     0.5433   -0.51325   1.8798 
 7                    0     0.37781  -1.33917  -0.06342 
 6                    0    -0.87435  -1.16487  -0.33004 
 1                    0    -2.13727   2.08827   0.32558 
 1                    0     0.15772   2.73203   0.45209 
 1                    0     1.33449   0.46721  -1.71318 
 1                    0     1.9746    2.09707  -1.31188 
 1                    0     3.82852   0.44971  -1.82594 
 1                    0     3.93467   1.12476  -0.16156 
 1                    0     2.83421  -1.64055  -0.9712 
 1                    0     4.34398  -1.30587  -0.06163 
 1                    0     2.47452  -2.03798   1.45898 
 1                    0     3.02963  -0.37635   1.85123 
 1                    0    -1.38301  -1.96784  -0.88501 
 
 The following ModRedundant input section has been read:
 D       5       6       7       8 F                                           
 D       1       2       4      16 F                                           
 D       7      13      15      16 F                                           
 D       7       9      10      11 F                                           
 D       9      10      11      12 F                                           
 D       6       7      13      15 F                                           
 

 GradGradGradGradGradGradGradGradGradGradGradGradGradGradGradGradGradGrad
 Berny optimization.
 Initialization pass.
                           ----------------------------
                           !    Initial Parameters    !
                           ! (Angstroms and Degrees)  !
 --------------------------                            --------------------------
 ! Name  Definition              Value          Derivative Info.                !
 --------------------------------------------------------------------------------
 ! R1    R(1,2)                  1.2298         estimate D2E/DX2                !
 ! R2    R(2,3)                  1.2317         estimate D2E/DX2                !
 ! R3    R(2,4)                  1.5301         estimate D2E/DX2                !
 ! R4    R(4,5)                  1.3997         estimate D2E/DX2                !
 ! R5    R(4,16)                 1.4879         estimate D2E/DX2                !
 ! R6    R(5,6)                  1.3695         estimate D2E/DX2                !
 ! R7    R(5,17)                 1.1025         estimate D2E/DX2                !
 ! R8    R(6,7)                  1.4925         estimate D2E/DX2                !
 ! R9    R(6,18)                 1.0228         estimate D2E/DX2                !
 ! R10   R(7,8)                  1.1206         estimate D2E/DX2                !
 ! R11   R(7,9)                  1.5504         estimate D2E/DX2                !
 ! R12   R(7,13)                 1.5335         estimate D2E/DX2                !
 ! R13   R(9,10)                 1.5408         estimate D2E/DX2                !
 ! R14   R(9,19)                 1.1106         estimate D2E/DX2                !
 ! R15   R(9,20)                 1.1106         estimate D2E/DX2                !
 ! R16   R(10,11)                1.537          estimate D2E/DX2                !
 ! R17   R(10,21)                1.112          estimate D2E/DX2                !
 ! R18   R(10,22)                1.1129         estimate D2E/DX2                !
 ! R19   R(11,12)                1.544          estimate D2E/DX2                !
 ! R20   R(11,23)                1.1134         estimate D2E/DX2                !
 ! R21   R(11,24)                1.1119         estimate D2E/DX2                !
 ! R22   R(12,13)                1.5533         estimate D2E/DX2                !
 ! R23   R(12,25)                1.112          estimate D2E/DX2                !
 ! R24   R(12,26)                1.1101         estimate D2E/DX2                !
 ! R25   R(13,14)                1.1151         estimate D2E/DX2                !
 ! R26   R(13,15)                1.4645         estimate D2E/DX2                !
 ! R27   R(15,16)                1.292          estimate D2E/DX2                !
 ! R28   R(16,27)                1.1007         estimate D2E/DX2                !
 ! A1    A(1,2,3)              123.5419         estimate D2E/DX2                !
 ! A2    A(1,2,4)              117.7302         estimate D2E/DX2                !
 ! A3    A(3,2,4)              118.7244         estimate D2E/DX2                !
 ! A4    A(2,4,5)              116.1118         estimate D2E/DX2                !
 ! A5    A(2,4,16)             116.375          estimate D2E/DX2                !
 ! A6    A(5,4,16)             127.4551         estimate D2E/DX2                !
 ! A7    A(4,5,6)              126.323          estimate D2E/DX2                !
 ! A8    A(4,5,17)             118.1817         estimate D2E/DX2                !
 ! A9    A(6,5,17)             115.3692         estimate D2E/DX2                !
 ! A10   A(5,6,7)              129.4572         estimate D2E/DX2                !
 ! A11   A(5,6,18)             120.4316         estimate D2E/DX2                !
 ! A12   A(7,6,18)             106.7143         estimate D2E/DX2                !
 ! A13   A(6,7,8)              105.5818         estimate D2E/DX2                !
 ! A14   A(6,7,9)              114.9514         estimate D2E/DX2                !
 ! A15   A(6,7,13)             112.3116         estimate D2E/DX2                !
 ! A16   A(8,7,9)              105.4734         estimate D2E/DX2                !
 ! A17   A(8,7,13)             107.0137         estimate D2E/DX2                !
 ! A18   A(9,7,13)             110.8128         estimate D2E/DX2                !
 ! A19   A(7,9,10)             109.2973         estimate D2E/DX2                !
 ! A20   A(7,9,19)             110.2385         estimate D2E/DX2                !
 ! A21   A(7,9,20)             110.143          estimate D2E/DX2                !
 ! A22   A(10,9,19)            109.9992         estimate D2E/DX2                !
 ! A23   A(10,9,20)            109.1944         estimate D2E/DX2                !
 ! A24   A(19,9,20)            107.9484         estimate D2E/DX2                !
 ! A25   A(9,10,11)            111.1553         estimate D2E/DX2                !
 ! A26   A(9,10,21)            109.9409         estimate D2E/DX2                !
 ! A27   A(9,10,22)            109.1661         estimate D2E/DX2                !
 ! A28   A(11,10,21)           109.7888         estimate D2E/DX2                !
 ! A29   A(11,10,22)           108.7878         estimate D2E/DX2                !
 ! A30   A(21,10,22)           107.932          estimate D2E/DX2                !
 ! A31   A(10,11,12)           111.4231         estimate D2E/DX2                !
 ! A32   A(10,11,23)           109.015          estimate D2E/DX2                !
 ! A33   A(10,11,24)           109.8315         estimate D2E/DX2                !
 ! A34   A(12,11,23)           109.3039         estimate D2E/DX2                !
 ! A35   A(12,11,24)           109.7175         estimate D2E/DX2                !
 ! A36   A(23,11,24)           107.4599         estimate D2E/DX2                !
 ! A37   A(11,12,13)           111.4029         estimate D2E/DX2                !
 ! A38   A(11,12,25)           109.2202         estimate D2E/DX2                !
 ! A39   A(11,12,26)           109.5538         estimate D2E/DX2                !
 ! A40   A(13,12,25)           109.2364         estimate D2E/DX2                !
 ! A41   A(13,12,26)           109.5682         estimate D2E/DX2                !
 ! A42   A(25,12,26)           107.7844         estimate D2E/DX2                !
 ! A43   A(7,13,12)            105.6823         estimate D2E/DX2                !
 ! A44   A(7,13,14)            110.9487         estimate D2E/DX2                !
 ! A45   A(7,13,15)            113.9218         estimate D2E/DX2                !
 ! A46   A(12,13,14)           108.0178         estimate D2E/DX2                !
 ! A47   A(12,13,15)           108.3736         estimate D2E/DX2                !
 ! A48   A(14,13,15)           109.6376         estimate D2E/DX2                !
 ! A49   A(13,15,16)           120.4434         estimate D2E/DX2                !
 ! A50   A(4,16,15)            129.7232         estimate D2E/DX2                !
 ! A51   A(4,16,27)            113.2418         estimate D2E/DX2                !
 ! A52   A(15,16,27)           116.9685         estimate D2E/DX2                !
 ! D1    D(1,2,4,5)           -174.3048         estimate D2E/DX2                !
 ! D2    D(1,2,4,16)             8.2592         Frozen                          !
 ! D3    D(3,2,4,5)              6.3521         estimate D2E/DX2                !
 ! D4    D(3,2,4,16)          -171.0839         estimate D2E/DX2                !
 ! D5    D(2,4,5,6)            173.2409         estimate D2E/DX2                !
 ! D6    D(2,4,5,17)            -2.4711         estimate D2E/DX2                !
 ! D7    D(16,4,5,6)            -9.6531         estimate D2E/DX2                !
 ! D8    D(16,4,5,17)          174.6349         estimate D2E/DX2                !
 ! D9    D(2,4,16,15)         -164.412          estimate D2E/DX2                !
 ! D10   D(2,4,16,27)           18.688          estimate D2E/DX2                !
 ! D11   D(5,4,16,15)           18.4885         estimate D2E/DX2                !
 ! D12   D(5,4,16,27)         -158.4115         estimate D2E/DX2                !
 ! D13   D(4,5,6,7)              7.083          estimate D2E/DX2                !
 ! D14   D(4,5,6,18)           163.3623         estimate D2E/DX2                !
 ! D15   D(17,5,6,7)          -177.0998         estimate D2E/DX2                !
 ! D16   D(17,5,6,18)          -20.8205         estimate D2E/DX2                !
 ! D17   D(5,6,7,8)           -154.6497         Frozen                          !
 ! D18   D(5,6,7,9)             89.5504         estimate D2E/DX2                !
 ! D19   D(5,6,7,13)           -38.3681         estimate D2E/DX2                !
 ! D20   D(18,6,7,8)            46.5832         estimate D2E/DX2                !
 ! D21   D(18,6,7,9)           -69.2167         estimate D2E/DX2                !
 ! D22   D(18,6,7,13)          162.8648         estimate D2E/DX2                !
 ! D23   D(6,7,9,10)           169.1085         estimate D2E/DX2                !
 ! D24   D(6,7,9,19)           -69.8737         estimate D2E/DX2                !
 ! D25   D(6,7,9,20)            49.1434         estimate D2E/DX2                !
 ! D26   D(8,7,9,10)            53.2464         estimate D2E/DX2                !
 ! D27   D(8,7,9,19)           174.2642         estimate D2E/DX2                !
 ! D28   D(8,7,9,20)           -66.7187         estimate D2E/DX2                !
 ! D29   D(13,7,9,10)          -62.2229         estimate D2E/DX2                !
 ! D30   D(13,7,9,19)           58.7949         estimate D2E/DX2                !
 ! D31   D(13,7,9,20)          177.8121         estimate D2E/DX2                !
 ! D32   D(6,7,13,12)         -166.1148         estimate D2E/DX2                !
 ! D33   D(6,7,13,14)          -49.2752         estimate D2E/DX2                !
 ! D34   D(6,7,13,15)           75.0228         Frozen                          !
 ! D35   D(8,7,13,12)          -50.6974         estimate D2E/DX2                !
 ! D36   D(8,7,13,14)           66.1422         estimate D2E/DX2                !
 ! D37   D(8,7,13,15)         -169.5598         estimate D2E/DX2                !
 ! D38   D(9,7,13,12)           63.8088         estimate D2E/DX2                !
 ! D39   D(9,7,13,14)         -179.3516         estimate D2E/DX2                !
 ! D40   D(9,7,13,15)          -55.0536         estimate D2E/DX2                !
 ! D41   D(7,9,10,11)           54.8123         Frozen                          !
 ! D42   D(7,9,10,21)          176.5862         estimate D2E/DX2                !
 ! D43   D(7,9,10,22)          -65.1947         estimate D2E/DX2                !
 ! D44   D(19,9,10,11)         -66.3509         estimate D2E/DX2                !
 ! D45   D(19,9,10,21)          55.423          estimate D2E/DX2                !
 ! D46   D(19,9,10,22)         173.6422         estimate D2E/DX2                !
 ! D47   D(20,9,10,11)         175.3586         estimate D2E/DX2                !
 ! D48   D(20,9,10,21)         -62.8674         estimate D2E/DX2                !
 ! D49   D(20,9,10,22)          55.3517         estimate D2E/DX2                !
 ! D50   D(9,10,11,12)         -52.8222         Frozen                          !
 ! D51   D(9,10,11,23)          67.8966         estimate D2E/DX2                !
 ! D52   D(9,10,11,24)        -174.6099         estimate D2E/DX2                !
 ! D53   D(21,10,11,12)       -174.6847         estimate D2E/DX2                !
 ! D54   D(21,10,11,23)        -53.9659         estimate D2E/DX2                !
 ! D55   D(21,10,11,24)         63.5276         estimate D2E/DX2                !
 ! D56   D(22,10,11,12)         67.409          estimate D2E/DX2                !
 ! D57   D(22,10,11,23)       -171.8722         estimate D2E/DX2                !
 ! D58   D(22,10,11,24)        -54.3788         estimate D2E/DX2                !
 ! D59   D(10,11,12,13)         56.7364         estimate D2E/DX2                !
 ! D60   D(10,11,12,25)        177.494          estimate D2E/DX2                !
 ! D61   D(10,11,12,26)        -64.6606         estimate D2E/DX2                !
 ! D62   D(23,11,12,13)        -63.8128         estimate D2E/DX2                !
 ! D63   D(23,11,12,25)         56.9447         estimate D2E/DX2                !
 ! D64   D(23,11,12,26)        174.7902         estimate D2E/DX2                !
 ! D65   D(24,11,12,13)        178.5902         estimate D2E/DX2                !
 ! D66   D(24,11,12,25)        -60.6523         estimate D2E/DX2                !
 ! D67   D(24,11,12,26)         57.1932         estimate D2E/DX2                !
 ! D68   D(11,12,13,7)         -60.7534         estimate D2E/DX2                !
 ! D69   D(11,12,13,14)       -179.558          estimate D2E/DX2                !
 ! D70   D(11,12,13,15)         61.7292         estimate D2E/DX2                !
 ! D71   D(25,12,13,7)         178.4986         estimate D2E/DX2                !
 ! D72   D(25,12,13,14)         59.6939         estimate D2E/DX2                !
 ! D73   D(25,12,13,15)        -59.0188         estimate D2E/DX2                !
 ! D74   D(26,12,13,7)          60.6353         estimate D2E/DX2                !
 ! D75   D(26,12,13,14)        -58.1694         estimate D2E/DX2                !
 ! D76   D(26,12,13,15)       -176.8822         estimate D2E/DX2                !
 ! D77   D(7,13,15,16)         -67.1599         Frozen                          !
 ! D78   D(12,13,15,16)        175.5222         estimate D2E/DX2                !
 ! D79   D(14,13,15,16)         57.8396         estimate D2E/DX2                !
 ! D80   D(13,15,16,4)          15.6924         estimate D2E/DX2                !
 ! D81   D(13,15,16,27)       -167.5036         estimate D2E/DX2                !
 --------------------------------------------------------------------------------
 Trust Radius=3.00D-01 FncErr=1.00D-07 GrdErr=1.00D-07 EigMax=2.50D+02 EigMin=1.00D-04
 Number of steps in this run=     20 maximum allowed number of steps=    162.
 GradGradGradGradGradGradGradGradGradGradGradGradGradGradGradGradGradGrad

                          Input orientation:                          
 ---------------------------------------------------------------------
 Center     Atomic      Atomic             Coordinates (Angstroms)
 Number     Number       Type             X           Y           Z
 ---------------------------------------------------------------------
      1          8           0       -3.644360   -1.394000   -0.305880
      2          7           0       -3.258670   -0.235420   -0.159380
      3          8           0       -4.017910    0.732960   -0.105520
      4          6           0       -1.751250    0.005310   -0.054890
      5          6           0       -1.355350    1.316350    0.234420
      6          7           0       -0.080130    1.738460    0.501440
      7          6           0        1.205410    0.984700    0.418480
      8          1           0        1.900840    1.496070    1.133080
      9          6           0        1.911320    1.045360   -0.960540
     10          6           0        3.334060    0.468360   -0.830100
     11          6           0        3.305500   -0.949220   -0.236660
     12          6           0        2.510480   -0.990860    1.086290
     13          6           0        1.061240   -0.466240    0.893440
     14          1           0        0.543300   -0.513250    1.879800
     15          7           0        0.377810   -1.339170   -0.063420
     16          6           0       -0.874350   -1.164870   -0.330040
     17          1           0       -2.137270    2.088270    0.325580
     18          1           0        0.157720    2.732030    0.452090
     19          1           0        1.334490    0.467210   -1.713180
     20          1           0        1.974600    2.097070   -1.311880
     21          1           0        3.828520    0.449710   -1.825940
     22          1           0        3.934670    1.124760   -0.161560
     23          1           0        2.834210   -1.640550   -0.971200
     24          1           0        4.343980   -1.305870   -0.061630
     25          1           0        2.474520   -2.037980    1.458980
     26          1           0        3.029630   -0.376350    1.851230
     27          1           0       -1.383010   -1.967840   -0.885010
 ---------------------------------------------------------------------
                    Distance matrix (angstroms):
                    1          2          3          4          5
     1  O    0.000000
     2  N    1.229848   0.000000
     3  O    2.168788   1.231709   0.000000
     4  C    2.367473   1.530093   2.381131   0.000000
     5  C    3.588522   2.487106   2.746840   1.399737   0.000000
     6  N    4.813295   3.799474   4.109202   2.471023   1.369548
     7  C    5.450062   4.663757   5.255570   3.150416   2.588699
     8  H    6.416569   5.593662   6.094922   4.119636   3.382700
     9  C    6.102838   5.386191   5.998702   3.913608   3.488911
    10  C    7.241653   6.664027   7.392327   5.164857   4.882915
    11  C    6.964422   6.603318   7.515269   5.149261   5.203676
    12  C    6.323189   5.950250   6.856518   4.522940   4.581871
    13  C    4.943863   4.452340   5.313546   3.005294   3.074385
    14  H    4.805145   4.323242   5.128272   3.045799   3.107987
    15  N    4.029844   3.801507   4.859820   2.518054   3.185018
    16  C    2.779575   2.564758   3.678877   1.487946   2.589677
    17  H    3.846592   2.625311   2.357863   2.152322   1.102529
    18  H    5.661665   4.566331   4.662949   3.366927   2.083485
    19  H    5.498504   4.899500   5.594942   3.533422   3.427743
    20  H    6.691212   5.844303   6.263088   4.453924   3.753550
    21  H    7.845622   7.312666   8.037819   5.870941   5.645233
    22  H    7.987908   7.320808   7.962423   5.796053   5.308278
    23  H    6.517308   6.305286   7.303047   4.957310   5.267750
    24  H    7.992559   7.678262   8.606972   6.234667   6.280609
    25  H    6.400792   6.223968   7.230312   4.931934   5.236314
    26  H    7.087375   6.603418   7.397787   5.160986   4.970650
    27  H    2.403828   2.654415   3.852872   2.172101   3.469840
                    6          7          8          9         10
     6  N    0.000000
     7  C    1.492531   0.000000
     8  H    2.093314   1.120614   0.000000
     9  C    2.565862   1.550382   2.141610   0.000000
    10  C    3.878511   2.521252   2.639012   1.540822   0.000000
    11  C    4.385306   2.929101   3.135076   2.538915   1.537049
    12  C    3.808214   2.460084   2.560990   2.948677   2.545615
    13  C    2.513382   1.533492   2.147793   2.538664   3.001629
    14  H    2.712700   2.194926   2.537296   3.516856   4.011914
    15  N    3.162370   2.513468   3.433631   2.973628   3.548856
    16  C    3.122734   3.083235   4.113758   3.611455   4.541829
    17  H    2.094068   3.521364   4.160419   4.374111   5.821955
    18  H    1.022834   2.037632   2.242724   2.813448   4.105770
    19  H    2.919207   2.197369   3.079042   1.110611   2.185889
    20  H    2.763810   2.196171   2.518823   1.110648   2.175532
    21  H    4.728120   3.493471   3.683289   2.186177   1.111996
    22  H    4.115193   2.793729   2.439350   2.176837   1.112897
    23  H    4.698910   3.387645   3.890702   2.840062   2.171926
    24  H    5.399791   3.915078   3.904758   3.500594   2.181370
    25  H    4.658822   3.439459   3.595112   3.959578   3.501491
    26  H    3.995618   2.689425   2.301274   3.343341   2.827675
    27  H    4.166101   4.137209   5.182184   4.465164   5.309316
                   11         12         13         14         15
    11  C    0.000000
    12  C    1.544017   0.000000
    13  C    2.558730   1.553291   0.000000
    14  H    3.507025   2.174297   1.115069   0.000000
    15  N    2.958622   2.447741   1.464467   2.117932   0.000000
    16  C    4.186451   3.673329   2.394054   2.705131   1.292042
    17  H    6.258291   5.626838   4.132608   4.045857   4.268992
    18  H    4.892290   4.449449   3.352621   3.566352   4.109606
    19  H    2.840997   3.368375   2.782169   3.807465   2.626776
    20  H    3.493891   3.946353   3.502602   4.364540   3.989503
    21  H    2.180909   3.506217   3.986456   5.045044   4.267783
    22  H    2.168614   2.839242   3.449769   4.283879   4.328029
    23  H    1.113373   2.181780   2.828305   3.827176   2.636057
    24  H    1.111879   2.186018   3.520443   4.340802   3.966310
    25  H    2.179707   1.112048   2.188050   2.496298   2.683697
    26  H    2.182560   1.110078   2.190890   2.490260   3.409554
    27  H    4.841495   4.472111   3.375210   3.670242   2.042235
                   16         17         18         19         20
    16  C    0.000000
    17  H    3.550736   0.000000
    18  H    4.106425   2.386925   0.000000
    19  H    3.075018   4.340218   3.347027   0.000000
    20  H    4.440808   4.425927   2.610712   1.796448   0.000000
    21  H    5.192453   6.550158   4.886019   2.496639   2.532799
    22  H    5.328927   6.167180   4.150329   3.098521   2.471942
    23  H    3.793517   6.348334   5.320602   2.691161   3.850298
    24  H    5.227130   7.326440   5.838948   3.863737   4.330945
    25  H    3.895875   6.291196   5.397628   4.199791   5.002622
    26  H    4.541009   5.924425   4.457296   4.036101   4.151645
    27  H    1.100676   4.299589   5.123521   3.741676   5.289542
                   21         22         23         24         25
    21  H    0.000000
    22  H    1.799200   0.000000
    23  H    2.467472   3.084391   0.000000
    24  H    2.541761   2.466877   1.794083   0.000000
    25  H    4.337351   3.842019   2.488594   2.518555   0.000000
    26  H    3.852555   2.669036   3.098790   2.500111   1.795278
    27  H    5.821507   6.193971   4.230779   5.823622   4.514393
                   26         27
    26  H    0.000000
    27  H    5.430584   0.000000
 Symmetry turned off by external request.
 Stoichiometry    C9H13N3O2
 Framework group  C1[X(C9H13N3O2)]
 Deg. of freedom    75
 Full point group                 C1      NOp   1
 Rotational constants (GHZ):           1.6593276           0.4000409           0.3558510
 Standard basis: 6-31G(d) (6D, 7F)
   236 basis functions,   444 primitive gaussians,   236 cartesian basis functions
    52 alpha electrons       52 beta electrons
       nuclear repulsion energy       917.1741750046 Hartrees.
 NAtoms=   27 NActive=   27 NUniq=   27 SFac= 1.00D+00 NAtFMM=   60 NAOKFM=F Big=F
 Integral buffers will be    131072 words long.
 Raffenetti 1 integral format.
 Two-electron integral symmetry is turned off.
 One-electron integrals computed using PRISM.
 NBasis=   236 RedAO= T EigKep=  1.27D-03  NBF=   236
 NBsUse=   236 1.00D-06 EigRej= -1.00D+00 NBFU=   236
 ExpMin= 1.61D-01 ExpMax= 5.48D+03 ExpMxC= 8.25D+02 IAcc=3 IRadAn=         5 AccDes= 0.00D+00
 Harris functional with IExCor=  205 and IRadAn=       5 diagonalized for initial guess.
 HarFok:  IExCor=  205 AccDes= 0.00D+00 IRadAn=         5 IDoV= 1 UseB2=F ITyADJ=14
 ICtDFT=  3500011 ScaDFX=  1.000000  1.000000  1.000000  1.000000
 FoFCou: FMM=F IPFlag=           0 FMFlag=      100000 FMFlg1=           0
         NFxFlg=           0 DoJE=T BraDBF=F KetDBF=T FulRan=T
         wScrn=  0.000000 ICntrl=       500 IOpCl=  0 I1Cent=   200000004 NGrid=           0
         NMat0=    1 NMatS0=      1 NMatT0=    0 NMatD0=    1 NMtDS0=    0 NMtDT0=    0
 Symmetry not used in FoFCou.
 Keep R1 ints in memory in canonical form, NReq=397720213.
 Requested convergence on RMS density matrix=1.00D-08 within 128 cycles.
 Requested convergence on MAX density matrix=1.00D-06.
 Requested convergence on             energy=1.00D-06.
 No special actions if energy rises.
 SCF Done:  E(RHF) =  -661.281825300     A.U. after   16 cycles
            NFock= 16  Conv=0.69D-08     -V/T= 2.0037
 ExpMin= 1.61D-01 ExpMax= 5.48D+03 ExpMxC= 8.25D+02 IAcc=3 IRadAn=         5 AccDes= 0.00D+00
 HarFok:  IExCor=  205 AccDes= 0.00D+00 IRadAn=         5 IDoV=-2 UseB2=F ITyADJ=14
 ICtDFT= 12500011 ScaDFX=  1.000000  1.000000  1.000000  1.000000
 Range of M.O.s used for correlation:    15   236
 NBasis=   236 NAE=    52 NBE=    52 NFC=    14 NFV=     0
 NROrb=    222 NOA=    38 NOB=    38 NVA=   184 NVB=   184
 Fully direct method using O(ONN) memory.
 JobTyp=1 Pass  1:  I=  15 to  52 NPSUse=  4 ParTrn=T ParDer=T DoDerP=T.
 Spin components of T(2) and E(2):
     alpha-alpha T2 =       0.9204858368D-01 E2=     -0.2718592279D+00
     alpha-beta  T2 =       0.4994650066D+00 E2=     -0.1493563053D+01
     beta-beta   T2 =       0.9204858368D-01 E2=     -0.2718592279D+00
 ANorm=    0.1297521550D+01
 E2 =    -0.2037281509D+01 EUMP2 =    -0.66331910680905D+03
          IDoAtm=111111111111111111111111111
          Differentiating once with respect to electric field.
                with respect to dipole field.
          Differentiating once with respect to nuclear coordinates.
 Keep R1 ints in memory in canonical form, NReq=397723379.
          There are     1 degrees of freedom in the 1st order CPHF.  IDoFFX=0 NUNeed=     1.
 LinEq1:  Iter=  0 NonCon=     1 RMS=4.64D-03 Max=1.17D-01 NDo=     1
 AX will form     1 AO Fock derivatives at one time.
 LinEq1:  Iter=  1 NonCon=     1 RMS=1.58D-03 Max=3.16D-02 NDo=     1
 LinEq1:  Iter=  2 NonCon=     1 RMS=6.46D-04 Max=1.89D-02 NDo=     1
 LinEq1:  Iter=  3 NonCon=     1 RMS=2.95D-04 Max=9.35D-03 NDo=     1
 LinEq1:  Iter=  4 NonCon=     1 RMS=9.14D-05 Max=2.24D-03 NDo=     1
 LinEq1:  Iter=  5 NonCon=     1 RMS=3.77D-05 Max=1.84D-03 NDo=     1
 LinEq1:  Iter=  6 NonCon=     1 RMS=1.55D-05 Max=5.71D-04 NDo=     1
 LinEq1:  Iter=  7 NonCon=     1 RMS=5.90D-06 Max=8.99D-05 NDo=     1
 LinEq1:  Iter=  8 NonCon=     1 RMS=2.34D-06 Max=5.42D-05 NDo=     1
 LinEq1:  Iter=  9 NonCon=     1 RMS=8.58D-07 Max=2.43D-05 NDo=     1
 LinEq1:  Iter= 10 NonCon=     1 RMS=4.18D-07 Max=1.45D-05 NDo=     1
 LinEq1:  Iter= 11 NonCon=     1 RMS=1.51D-07 Max=5.68D-06 NDo=     1
 LinEq1:  Iter= 12 NonCon=     1 RMS=5.33D-08 Max=8.25D-07 NDo=     1
 LinEq1:  Iter= 13 NonCon=     1 RMS=1.65D-08 Max=2.93D-07 NDo=     1
 LinEq1:  Iter= 14 NonCon=     1 RMS=4.93D-09 Max=8.41D-08 NDo=     1
 LinEq1:  Iter= 15 NonCon=     1 RMS=1.74D-09 Max=3.60D-08 NDo=     1
 LinEq1:  Iter= 16 NonCon=     1 RMS=6.72D-10 Max=1.17D-08 NDo=     1
 LinEq1:  Iter= 17 NonCon=     1 RMS=2.28D-10 Max=3.85D-09 NDo=     1
 LinEq1:  Iter= 18 NonCon=     1 RMS=8.13D-11 Max=1.14D-09 NDo=     1
 LinEq1:  Iter= 19 NonCon=     0 RMS=2.78D-11 Max=4.60D-10 NDo=     1
 Linear equations converged to 1.000D-10 1.000D-09 after    19 iterations.
 End of Minotr F.D. properties file   721 does not exist.
 End of Minotr F.D. properties file   722 does not exist.
 End of Minotr F.D. properties file   788 does not exist.

 **********************************************************************

            Population analysis using the SCF Density.

 **********************************************************************

 Alpha  occ. eigenvalues --  -20.59765 -20.59362 -15.85255 -15.63754 -15.56445
 Alpha  occ. eigenvalues --  -11.35984 -11.30442 -11.30121 -11.30053 -11.27610
 Alpha  occ. eigenvalues --  -11.24645 -11.23899 -11.23343 -11.22840  -1.58440
 Alpha  occ. eigenvalues --   -1.37931  -1.28850  -1.22577  -1.13307  -1.08383
 Alpha  occ. eigenvalues --   -1.01782  -1.00724  -0.93678  -0.88932  -0.84924
 Alpha  occ. eigenvalues --   -0.81533  -0.77969  -0.77062  -0.74375  -0.71211
 Alpha  occ. eigenvalues --   -0.70266  -0.69762  -0.67372  -0.64254  -0.63284
 Alpha  occ. eigenvalues --   -0.61833  -0.59987  -0.57404  -0.56546  -0.54857
 Alpha  occ. eigenvalues --   -0.53954  -0.50619  -0.49676  -0.48517  -0.47878
 Alpha  occ. eigenvalues --   -0.47706  -0.46254  -0.45569  -0.44002  -0.42095
 Alpha  occ. eigenvalues --   -0.39457  -0.33670
 Alpha virt. eigenvalues --    0.07495   0.11743   0.17606   0.21432   0.23567
 Alpha virt. eigenvalues --    0.24603   0.26370   0.28041   0.28536   0.28876
 Alpha virt. eigenvalues --    0.29777   0.31258   0.31794   0.32362   0.33271
 Alpha virt. eigenvalues --    0.33881   0.34407   0.35554   0.37572   0.38651
 Alpha virt. eigenvalues --    0.40427   0.41367   0.44003   0.45181   0.45492
 Alpha virt. eigenvalues --    0.46687   0.49793   0.53211   0.57512   0.59018
 Alpha virt. eigenvalues --    0.63345   0.68671   0.69328   0.72357   0.74093
 Alpha virt. eigenvalues --    0.74855   0.75609   0.75828   0.78164   0.78757
 Alpha virt. eigenvalues --    0.80707   0.83306   0.84670   0.85381   0.87869
 Alpha virt. eigenvalues --    0.88729   0.90481   0.90893   0.92033   0.93837
 Alpha virt. eigenvalues --    0.94875   0.97274   0.99250   1.00693   1.01985
 Alpha virt. eigenvalues --    1.02837   1.05001   1.06424   1.07058   1.08719
 Alpha virt. eigenvalues --    1.09713   1.10536   1.11707   1.12301   1.13230
 Alpha virt. eigenvalues --    1.13773   1.14082   1.15599   1.16025   1.17009
 Alpha virt. eigenvalues --    1.18039   1.20301   1.21536   1.22325   1.23122
 Alpha virt. eigenvalues --    1.23617   1.24570   1.25242   1.26936   1.27813
 Alpha virt. eigenvalues --    1.29153   1.31726   1.33594   1.36555   1.39264
 Alpha virt. eigenvalues --    1.42440   1.47804   1.48088   1.50875   1.53152
 Alpha virt. eigenvalues --    1.56040   1.57722   1.59464   1.61692   1.65839
 Alpha virt. eigenvalues --    1.67950   1.70269   1.71732   1.73362   1.76481
 Alpha virt. eigenvalues --    1.78372   1.81272   1.84440   1.88760   1.91259
 Alpha virt. eigenvalues --    1.93839   1.96030   1.97467   1.99216   2.01030
 Alpha virt. eigenvalues --    2.02890   2.03528   2.06118   2.09321   2.11831
 Alpha virt. eigenvalues --    2.12208   2.13392   2.17407   2.18534   2.19825
 Alpha virt. eigenvalues --    2.20210   2.22055   2.23849   2.24995   2.25995
 Alpha virt. eigenvalues --    2.29436   2.31963   2.32927   2.35308   2.36390
 Alpha virt. eigenvalues --    2.39689   2.40134   2.42119   2.43911   2.46522
 Alpha virt. eigenvalues --    2.48729   2.50215   2.50594   2.56402   2.57040
 Alpha virt. eigenvalues --    2.60607   2.63847   2.65386   2.68379   2.68771
 Alpha virt. eigenvalues --    2.69223   2.69788   2.74450   2.76155   2.81169
 Alpha virt. eigenvalues --    2.84733   2.86707   2.90048   2.91075   2.94676
 Alpha virt. eigenvalues --    2.97565   2.98207   3.02188   3.05004   3.05920
 Alpha virt. eigenvalues --    3.07435   3.13986   3.18447   3.22882   3.27108
 Alpha virt. eigenvalues --    3.31626   3.33630   3.37781   3.42958   3.60599
 Alpha virt. eigenvalues --    4.10421   4.23406   4.31971   4.36792   4.43721
 Alpha virt. eigenvalues --    4.52327   4.59505   4.60333   4.70714   4.78073
 Alpha virt. eigenvalues --    4.96921   4.99282   5.03479   5.09675
          Condensed to atoms (all electrons):
               1          2          3          4          5          6
     1  O    8.301000   0.312252  -0.090072  -0.078658   0.003569  -0.000011
     2  N    0.312252   5.678996   0.310409   0.266240  -0.047764   0.000749
     3  O   -0.090072   0.310409   8.331400  -0.088084   0.007991   0.000476
     4  C   -0.078658   0.266240  -0.088084   5.252334   0.565697  -0.048899
     5  C    0.003569  -0.047764   0.007991   0.565697   4.677804   0.311043
     6  N   -0.000011   0.000749   0.000476  -0.048899   0.311043   7.168477
     7  C    0.000002  -0.000091   0.000002   0.005044  -0.028846   0.202620
     8  H   -0.000000   0.000001  -0.000000  -0.000247   0.002801  -0.046744
     9  C   -0.000000  -0.000003   0.000000   0.000615   0.000845  -0.058119
    10  C   -0.000000   0.000000   0.000000  -0.000025  -0.000042   0.003397
    11  C   -0.000000  -0.000000  -0.000000  -0.000011   0.000014  -0.000156
    12  C   -0.000000   0.000001  -0.000000  -0.000196  -0.000152   0.003733
    13  C   -0.000014  -0.000004  -0.000002  -0.008642   0.000266  -0.049390
    14  H   -0.000001  -0.000048   0.000000   0.002386   0.003719  -0.005417
    15  N    0.000312   0.001578  -0.000012  -0.062037  -0.003788   0.001815
    16  C    0.002681  -0.024628   0.002026   0.314991  -0.042623  -0.000170
    17  H    0.000143  -0.004476   0.012745  -0.024644   0.375197  -0.032709
    18  H    0.000000  -0.000034   0.000008   0.001401  -0.025721   0.329878
    19  H    0.000000  -0.000001   0.000000  -0.000970   0.001074   0.000125
    20  H    0.000000  -0.000000   0.000000  -0.000030   0.000009  -0.000993
    21  H   -0.000000  -0.000000  -0.000000   0.000001   0.000001  -0.000062
    22  H   -0.000000   0.000000  -0.000000  -0.000000  -0.000002  -0.000093
    23  H    0.000000  -0.000000   0.000000   0.000026  -0.000001  -0.000024
    24  H    0.000000   0.000000   0.000000   0.000000  -0.000000   0.000005
    25  H    0.000000  -0.000000   0.000000   0.000021  -0.000001  -0.000073
    26  H    0.000000  -0.000000   0.000000   0.000004  -0.000000  -0.000072
    27  H    0.006062  -0.000256   0.000025  -0.067690   0.002024   0.000006
               7          8          9         10         11         12
     1  O    0.000002  -0.000000  -0.000000  -0.000000  -0.000000  -0.000000
     2  N   -0.000091   0.000001  -0.000003   0.000000  -0.000000   0.000001
     3  O    0.000002  -0.000000   0.000000   0.000000  -0.000000  -0.000000
     4  C    0.005044  -0.000247   0.000615  -0.000025  -0.000011  -0.000196
     5  C   -0.028846   0.002801   0.000845  -0.000042   0.000014  -0.000152
     6  N    0.202620  -0.046744  -0.058119   0.003397  -0.000156   0.003733
     7  C    5.026303   0.414242   0.343013  -0.049716  -0.007926  -0.065305
     8  H    0.414242   0.542983  -0.060007   0.001135  -0.000254  -0.002960
     9  C    0.343013  -0.060007   5.179550   0.318748  -0.053339  -0.005755
    10  C   -0.049716   0.001135   0.318748   5.127023   0.332664  -0.060513
    11  C   -0.007926  -0.000254  -0.053339   0.332664   5.124973   0.330487
    12  C   -0.065305  -0.002960  -0.005755  -0.060513   0.330487   5.139092
    13  C    0.323769  -0.037128  -0.053873  -0.001124  -0.047610   0.368747
    14  H   -0.040731  -0.000897   0.003825  -0.000389   0.003959  -0.040812
    15  N   -0.059624   0.003903  -0.012830   0.001372  -0.007903  -0.075023
    16  C   -0.001444  -0.000044  -0.000567  -0.000054   0.000004   0.002225
    17  H    0.001401  -0.000030  -0.000063   0.000001   0.000000   0.000001
    18  H   -0.029642  -0.003495   0.000909  -0.000116   0.000011  -0.000150
    19  H   -0.035040   0.004055   0.387215  -0.032816  -0.002180   0.000581
    20  H   -0.041818  -0.001851   0.396913  -0.037159   0.004130  -0.000376
    21  H    0.004076  -0.000081  -0.035806   0.400009  -0.035752   0.004224
    22  H   -0.004420   0.003580  -0.045676   0.395917  -0.045654  -0.001185
    23  H    0.000480   0.000033  -0.002008  -0.040017   0.396577  -0.036400
    24  H   -0.000143  -0.000103   0.004410  -0.038537   0.400318  -0.037918
    25  H    0.005096  -0.000008  -0.000380   0.004098  -0.033753   0.394994
    26  H   -0.004401   0.001475   0.001088  -0.002401  -0.042389   0.394555
    27  H   -0.000395   0.000008  -0.000054   0.000004   0.000006  -0.000020
              13         14         15         16         17         18
     1  O   -0.000014  -0.000001   0.000312   0.002681   0.000143   0.000000
     2  N   -0.000004  -0.000048   0.001578  -0.024628  -0.004476  -0.000034
     3  O   -0.000002   0.000000  -0.000012   0.002026   0.012745   0.000008
     4  C   -0.008642   0.002386  -0.062037   0.314991  -0.024644   0.001401
     5  C    0.000266   0.003719  -0.003788  -0.042623   0.375197  -0.025721
     6  N   -0.049390  -0.005417   0.001815  -0.000170  -0.032709   0.329878
     7  C    0.323769  -0.040731  -0.059624  -0.001444   0.001401  -0.029642
     8  H   -0.037128  -0.000897   0.003903  -0.000044  -0.000030  -0.003495
     9  C   -0.053873   0.003825  -0.012830  -0.000567  -0.000063   0.000909
    10  C   -0.001124  -0.000389   0.001372  -0.000054   0.000001  -0.000116
    11  C   -0.047610   0.003959  -0.007903   0.000004   0.000000   0.000011
    12  C    0.368747  -0.040812  -0.075023   0.002225   0.000001  -0.000150
    13  C    5.017746   0.405196   0.243824  -0.067914  -0.000057   0.003950
    14  H    0.405196   0.516743  -0.035046  -0.005335   0.000034  -0.000000
    15  N    0.243824  -0.035046   6.949669   0.587466  -0.000046  -0.000122
    16  C   -0.067914  -0.005335   0.587466   4.696850   0.001584  -0.000194
    17  H   -0.000057   0.000034  -0.000046   0.001584   0.382121  -0.002312
    18  H    0.003950  -0.000000  -0.000122  -0.000194  -0.002312   0.326904
    19  H   -0.005944   0.000061   0.006744   0.002320   0.000011  -0.000128
    20  H    0.003924  -0.000051   0.000093  -0.000036  -0.000005   0.002411
    21  H   -0.000398   0.000009  -0.000035   0.000003  -0.000000   0.000000
    22  H    0.000302  -0.000042   0.000006  -0.000001   0.000000   0.000002
    23  H   -0.006054   0.000007   0.006923   0.000089   0.000000   0.000000
    24  H    0.004165  -0.000059   0.000038   0.000005   0.000000  -0.000000
    25  H   -0.034372  -0.002702   0.001112  -0.000065  -0.000000   0.000003
    26  H   -0.045141  -0.000848   0.004226  -0.000037   0.000000  -0.000001
    27  H    0.004785  -0.000159  -0.040415   0.403634  -0.000061   0.000001
              19         20         21         22         23         24
     1  O    0.000000   0.000000  -0.000000  -0.000000   0.000000   0.000000
     2  N   -0.000001  -0.000000  -0.000000   0.000000  -0.000000   0.000000
     3  O    0.000000   0.000000  -0.000000  -0.000000   0.000000   0.000000
     4  C   -0.000970  -0.000030   0.000001  -0.000000   0.000026   0.000000
     5  C    0.001074   0.000009   0.000001  -0.000002  -0.000001  -0.000000
     6  N    0.000125  -0.000993  -0.000062  -0.000093  -0.000024   0.000005
     7  C   -0.035040  -0.041818   0.004076  -0.004420   0.000480  -0.000143
     8  H    0.004055  -0.001851  -0.000081   0.003580   0.000033  -0.000103
     9  C    0.387215   0.396913  -0.035806  -0.045676  -0.002008   0.004410
    10  C   -0.032816  -0.037159   0.400009   0.395917  -0.040017  -0.038537
    11  C   -0.002180   0.004130  -0.035752  -0.045654   0.396577   0.400318
    12  C    0.000581  -0.000376   0.004224  -0.001185  -0.036400  -0.037918
    13  C   -0.005944   0.003924  -0.000398   0.000302  -0.006054   0.004165
    14  H    0.000061  -0.000051   0.000009  -0.000042   0.000007  -0.000059
    15  N    0.006744   0.000093  -0.000035   0.000006   0.006923   0.000038
    16  C    0.002320  -0.000036   0.000003  -0.000001   0.000089   0.000005
    17  H    0.000011  -0.000005  -0.000000   0.000000   0.000000   0.000000
    18  H   -0.000128   0.002411   0.000000   0.000002   0.000000  -0.000000
    19  H    0.505919  -0.023885  -0.002586   0.003750   0.001636  -0.000072
    20  H   -0.023885   0.548974  -0.002632  -0.002954  -0.000049  -0.000090
    21  H   -0.002586  -0.002632   0.525723  -0.024681  -0.002806  -0.002069
    22  H    0.003750  -0.002954  -0.024681   0.569541   0.004056  -0.003596
    23  H    0.001636  -0.000049  -0.002806   0.004056   0.508853  -0.024986
    24  H   -0.000072  -0.000090  -0.002069  -0.003596  -0.024986   0.541235
    25  H   -0.000027   0.000011  -0.000086  -0.000083  -0.002052  -0.002407
    26  H    0.000022  -0.000035  -0.000073   0.002454   0.003810  -0.002746
    27  H    0.000073   0.000000  -0.000000   0.000000  -0.000023  -0.000000
              25         26         27
     1  O    0.000000   0.000000   0.006062
     2  N   -0.000000  -0.000000  -0.000256
     3  O    0.000000   0.000000   0.000025
     4  C    0.000021   0.000004  -0.067690
     5  C   -0.000001  -0.000000   0.002024
     6  N   -0.000073  -0.000072   0.000006
     7  C    0.005096  -0.004401  -0.000395
     8  H   -0.000008   0.001475   0.000008
     9  C   -0.000380   0.001088  -0.000054
    10  C    0.004098  -0.002401   0.000004
    11  C   -0.033753  -0.042389   0.000006
    12  C    0.394994   0.394555  -0.000020
    13  C   -0.034372  -0.045141   0.004785
    14  H   -0.002702  -0.000848  -0.000159
    15  N    0.001112   0.004226  -0.040415
    16  C   -0.000065  -0.000037   0.403634
    17  H   -0.000000   0.000000  -0.000061
    18  H    0.000003  -0.000001   0.000001
    19  H   -0.000027   0.000022   0.000073
    20  H    0.000011  -0.000035   0.000000
    21  H   -0.000086  -0.000073  -0.000000
    22  H   -0.000083   0.002454   0.000000
    23  H   -0.002052   0.003810  -0.000023
    24  H   -0.002407  -0.002746  -0.000000
    25  H    0.510086  -0.023106  -0.000013
    26  H   -0.023106   0.562493   0.000001
    27  H   -0.000013   0.000001   0.448053
 Mulliken charges:
               1
     1  O   -0.457265
     2  N    0.507080
     3  O   -0.486913
     4  C   -0.028626
     5  C    0.196885
     6  N   -0.779395
     7  C    0.043496
     8  H    0.179636
     9  C   -0.308649
    10  C   -0.321460
    11  C   -0.316215
    12  C   -0.311875
    13  C   -0.019005
    14  H    0.196597
    15  N   -0.512200
    16  C    0.129233
    17  H    0.291167
    18  H    0.396437
    19  H    0.190063
    20  H    0.155498
    21  H    0.173023
    22  H    0.148779
    23  H    0.191928
    24  H    0.162550
    25  H    0.183705
    26  H    0.151122
    27  H    0.244402
 Sum of Mulliken charges =  -0.00000
 Mulliken charges with hydrogens summed into heavy atoms:
               1
     1  O   -0.457265
     2  N    0.507080
     3  O   -0.486913
     4  C   -0.028626
     5  C    0.488053
     6  N   -0.382958
     7  C    0.223132
     9  C    0.036912
    10  C    0.000342
    11  C    0.038263
    12  C    0.022953
    13  C    0.177592
    15  N   -0.512200
    16  C    0.373635
 Electronic spatial extent (au):  <R**2>=           3126.0380
 Charge=             -0.0000 electrons
 Dipole moment (field-independent basis, Debye):
    X=              5.4305    Y=              4.5373    Z=              0.8645  Tot=              7.1291
 Quadrupole moment (field-independent basis, Debye-Ang):
   XX=           -105.6042   YY=            -79.8204   ZZ=            -82.5259
   XY=             -1.2732   XZ=             -0.4021   YZ=              0.5406
 Traceless Quadrupole moment (field-independent basis, Debye-Ang):
   XX=            -16.2873   YY=              9.4964   ZZ=              6.7909
   XY=             -1.2732   XZ=             -0.4021   YZ=              0.5406
 Octapole moment (field-independent basis, Debye-Ang**2):
  XXX=            101.9067  YYY=             35.7298  ZZZ=             -2.8451  XYY=             -2.0441
  XXY=              9.9003  XXZ=              7.3489  XZZ=             -7.2477  YZZ=             -2.6763
  YYZ=              3.5855  XYZ=             -0.4780
 Hexadecapole moment (field-independent basis, Debye-Ang**3):
 XXXX=          -3554.2634 YYYY=           -617.0726 ZZZZ=           -305.8603 XXXY=            -23.8118
 XXXZ=            -35.9873 YYYX=             -6.8931 YYYZ=             17.8519 ZZZX=            -10.6515
 ZZZY=              7.3377 XXYY=           -655.1694 XXZZ=           -545.6826 YYZZ=           -165.6889
 XXYZ=              3.0080 YYXZ=             -0.7502 ZZXY=              5.3527
 N-N= 9.171741750046D+02 E-N=-3.380368706014D+03  KE= 6.588598348442D+02
 Calling FoFJK, ICntrl=  10002127 FMM=F ISym2X=0 I1Cent= 0 IOpClX= 0 NMat=1 NMatS=1 NMatT=0.
 -------------------------------------------------------------------
 Center     Atomic                   Forces (Hartrees/Bohr)
 Number     Number              X              Y              Z
 -------------------------------------------------------------------
      1        8           0.001857404   -0.019041536   -0.001526074
      2        7           0.040042334    0.012120784   -0.000216372
      3        8          -0.004701996    0.016414232    0.002464390
      4        6          -0.003392973    0.005495975    0.008203782
      5        6           0.003375556   -0.016367528   -0.000382114
      6        7           0.015512094   -0.004540520   -0.009832461
      7        6          -0.005371935    0.005852668    0.001005999
      8        1          -0.012084065   -0.002724725   -0.005676031
      9        6          -0.003977901    0.000528583   -0.002211043
     10        6           0.002607115   -0.001168765    0.000712284
     11        6          -0.000605487   -0.004445342   -0.002075081
     12        6           0.000355671   -0.009432227   -0.003119648
     13        6           0.010064025   -0.001201375    0.002818670
     14        1           0.001218930    0.003990456   -0.010271659
     15        7           0.000819999   -0.004030048    0.008953076
     16        6          -0.020990464    0.011992713   -0.002892643
     17        1           0.007472006   -0.007423522   -0.001962962
     18        1          -0.018220912   -0.002103485    0.002104729
     19        1           0.003252511    0.005662493    0.007536123
     20        1          -0.003105456   -0.007510220    0.002818279
     21        1          -0.003947059    0.002392062    0.009776096
     22        1          -0.004261021   -0.003946505   -0.007181572
     23        1           0.004127127    0.006099538    0.009181932
     24        1          -0.009464177    0.002519308   -0.001796055
     25        1          -0.000871840    0.010580413   -0.002437479
     26        1          -0.004840894   -0.004768537   -0.004179344
     27        1           0.005131406    0.005055110    0.000185177
 -------------------------------------------------------------------
 Cartesian Forces:  Max     0.040042334 RMS     0.008456136

 GradGradGradGradGradGradGradGradGradGradGradGradGradGradGradGradGradGrad
 Berny optimization.
 FormGI is forming the generalized inverse of G from B-inverse, IUseBI=4.
 Internal  Forces:  Max     0.038189461 RMS     0.006986574
 Search for a local minimum.
 Step number   1 out of a maximum of   20
 All quantities printed in internal units (Hartrees-Bohrs-Radians)
 Mixed Optimization -- RFO/linear search
 Second derivative matrix not updated -- first step.
 ITU=  0
     Eigenvalues ---    0.00230   0.00799   0.01064   0.01167   0.01279
     Eigenvalues ---    0.01492   0.01546   0.01920   0.02032   0.02099
     Eigenvalues ---    0.02654   0.03306   0.03839   0.04563   0.04756
     Eigenvalues ---    0.04875   0.05141   0.05286   0.05625   0.06224
     Eigenvalues ---    0.07214   0.07677   0.07702   0.07830   0.07989
     Eigenvalues ---    0.08022   0.08050   0.10439   0.11681   0.12181
     Eigenvalues ---    0.13023   0.14706   0.15201   0.15973   0.15992
     Eigenvalues ---    0.20030   0.22193   0.23296   0.24976   0.25000
     Eigenvalues ---    0.25000   0.25331   0.26261   0.26619   0.27938
     Eigenvalues ---    0.28073   0.28515   0.29415   0.31502   0.31953
     Eigenvalues ---    0.32069   0.32245   0.32295   0.32384   0.32390
     Eigenvalues ---    0.32402   0.32532   0.32535   0.32592   0.33374
     Eigenvalues ---    0.33404   0.33607   0.35446   0.43889   0.44265
     Eigenvalues ---    0.49687   0.67404   0.90378   0.911501000.00000
     Eigenvalues --- 1000.000001000.000001000.000001000.000001000.00000
     Eigenvalues --- 1000.000001000.000001000.000001000.000001000.00000
     Eigenvalues --- 1000.000001000.000001000.000001000.000001000.00000
     Eigenvalues --- 1000.000001000.000001000.000001000.000001000.00000
     Eigenvalues --- 1000.000001000.000001000.000001000.000001000.00000
     Eigenvalues --- 1000.000001000.000001000.000001000.000001000.00000
     Eigenvalues --- 1000.000001000.000001000.000001000.000001000.00000
     Eigenvalues --- 1000.000001000.000001000.000001000.000001000.00000
     Eigenvalues --- 1000.000001000.000001000.000001000.000001000.00000
     Eigenvalues --- 1000.000001000.000001000.000001000.000001000.00000
     Eigenvalues --- 1000.000001000.000001000.000001000.000001000.00000
     Eigenvalues --- 1000.000001000.000001000.000001000.000001000.00000
     Eigenvalues --- 1000.000001000.000001000.000001000.000001000.00000
     Eigenvalues --- 1000.000001000.000001000.000001000.000001000.00000
     Eigenvalues --- 1000.000001000.000001000.000001000.000001000.00000
     Eigenvalues --- 1000.000001000.000001000.000001000.000001000.00000
     Eigenvalues --- 1000.000001000.000001000.000001000.000001000.00000
     Eigenvalues --- 1000.000001000.000001000.000001000.000001000.00000
     Eigenvalues --- 1000.00000
 RFO step:  Lambda=-2.42190826D-02 EMin= 2.30470625D-03
 Linear search not attempted -- first point.
 Iteration  1 RMS(Cart)=  0.05935796 RMS(Int)=  0.00115786
 Iteration  2 RMS(Cart)=  0.00135791 RMS(Int)=  0.00024745
 Iteration  3 RMS(Cart)=  0.00000079 RMS(Int)=  0.00024745
 Iteration  1 RMS(Cart)=  0.00003261 RMS(Int)=  0.00003468
 Iteration  2 RMS(Cart)=  0.00001753 RMS(Int)=  0.00003841
 Iteration  3 RMS(Cart)=  0.00001098 RMS(Int)=  0.00004328
 Iteration  4 RMS(Cart)=  0.00000767 RMS(Int)=  0.00004693
 Iteration  5 RMS(Cart)=  0.00000565 RMS(Int)=  0.00004950
 Iteration  6 RMS(Cart)=  0.00000428 RMS(Int)=  0.00005131
 Iteration  7 RMS(Cart)=  0.00000331 RMS(Int)=  0.00005259
 Iteration  8 RMS(Cart)=  0.00000260 RMS(Int)=  0.00005352
 Iteration  9 RMS(Cart)=  0.00000208 RMS(Int)=  0.00005420
 Iteration 10 RMS(Cart)=  0.00000169 RMS(Int)=  0.00005470
 Iteration 11 RMS(Cart)=  0.00000139 RMS(Int)=  0.00005508
 Iteration 12 RMS(Cart)=  0.00000116 RMS(Int)=  0.00005538
 Iteration 13 RMS(Cart)=  0.00000097 RMS(Int)=  0.00005561
 Variable       Old X    -DE/DX   Delta X   Delta X   Delta X     New X
                                 (Linear)    (Quad)   (Total)
    R1        2.32408   0.01754   0.00000   0.01874   0.01874   2.34282
    R2        2.32759   0.01591   0.00000   0.01715   0.01715   2.34474
    R3        2.89146  -0.03819   0.00000  -0.11995  -0.11995   2.77150
    R4        2.64512  -0.03339   0.00000  -0.07214  -0.07187   2.57325
    R5        2.81181  -0.02378   0.00000  -0.06967  -0.06941   2.74240
    R6        2.58807  -0.02544   0.00000  -0.04807  -0.04796   2.54011
    R7        2.08348  -0.01066   0.00000  -0.02975  -0.02975   2.05373
    R8        2.82048  -0.01874   0.00000  -0.04989  -0.05005   2.77042
    R9        1.93288  -0.00638   0.00000  -0.01378  -0.01378   1.91910
   R10        2.11765  -0.01236   0.00000  -0.03644  -0.03644   2.08121
   R11        2.92980  -0.01287   0.00000  -0.04314  -0.04313   2.88667
   R12        2.89788  -0.00235   0.00000  -0.00276  -0.00283   2.89505
   R13        2.91173  -0.00430   0.00000  -0.01420  -0.01425   2.89748
   R14        2.09875  -0.00974   0.00000  -0.02787  -0.02787   2.07088
   R15        2.09882  -0.00818   0.00000  -0.02340  -0.02340   2.07542
   R16        2.90460  -0.00165   0.00000  -0.00699  -0.00704   2.89756
   R17        2.10137  -0.01055   0.00000  -0.03031  -0.03031   2.07106
   R18        2.10307  -0.00894   0.00000  -0.02576  -0.02576   2.07731
   R19        2.91777  -0.00920   0.00000  -0.02981  -0.02981   2.88796
   R20        2.10397  -0.01159   0.00000  -0.03344  -0.03344   2.07053
   R21        2.10115  -0.00993   0.00000  -0.02852  -0.02852   2.07263
   R22        2.93530  -0.01081   0.00000  -0.03613  -0.03608   2.89922
   R23        2.10147  -0.01075   0.00000  -0.03089  -0.03089   2.07058
   R24        2.09774  -0.00778   0.00000  -0.02223  -0.02223   2.07551
   R25        2.10717  -0.00982   0.00000  -0.02847  -0.02847   2.07870
   R26        2.76744  -0.00563   0.00000  -0.01138  -0.01170   2.75574
   R27        2.44160  -0.00378   0.00000  -0.00567  -0.00568   2.43593
   R28        2.07998  -0.00615   0.00000  -0.01708  -0.01708   2.06290
    A1        2.15621   0.01114   0.00000   0.04067   0.04060   2.19681
    A2        2.05478  -0.00696   0.00000  -0.02531  -0.02538   2.02940
    A3        2.07213  -0.00417   0.00000  -0.01514  -0.01521   2.05693
    A4        2.02653  -0.00885   0.00000  -0.02808  -0.02859   1.99794
    A5        2.03113  -0.00263   0.00000  -0.00544  -0.00598   2.02515
    A6        2.22451   0.01141   0.00000   0.03168   0.03189   2.25640
    A7        2.20475   0.00670   0.00000   0.02149   0.02196   2.22671
    A8        2.06266  -0.00365   0.00000  -0.01209  -0.01236   2.05030
    A9        2.01357  -0.00298   0.00000  -0.00854  -0.00883   2.00474
   A10        2.25945  -0.00715   0.00000  -0.02168  -0.02174   2.23771
   A11        2.10193  -0.01219   0.00000  -0.07339  -0.07384   2.02809
   A12        1.86252   0.01957   0.00000   0.10429   0.10454   1.96705
   A13        1.84275  -0.00266   0.00000  -0.02018  -0.01994   1.82281
   A14        2.00628  -0.00064   0.00000  -0.01559  -0.01574   1.99054
   A15        1.96021   0.00189   0.00000   0.00114   0.00054   1.96075
   A16        1.84086   0.00370   0.00000   0.02410   0.02377   1.86463
   A17        1.86774   0.00051   0.00000   0.02797   0.02790   1.89564
   A18        1.93405  -0.00256   0.00000  -0.01230  -0.01194   1.92211
   A19        1.90760   0.00032   0.00000  -0.00476  -0.00488   1.90272
   A20        1.92402  -0.00073   0.00000  -0.01402  -0.01401   1.91001
   A21        1.92236  -0.00183   0.00000  -0.00675  -0.00677   1.91559
   A22        1.91985  -0.00056   0.00000   0.00381   0.00372   1.92357
   A23        1.90580   0.00314   0.00000   0.02646   0.02648   1.93229
   A24        1.88406  -0.00031   0.00000  -0.00428  -0.00452   1.87954
   A25        1.94003  -0.00064   0.00000   0.00616   0.00603   1.94605
   A26        1.91883  -0.00079   0.00000  -0.00728  -0.00729   1.91154
   A27        1.90531   0.00024   0.00000  -0.00298  -0.00305   1.90225
   A28        1.91618   0.00061   0.00000   0.00668   0.00672   1.92290
   A29        1.89870   0.00178   0.00000   0.01143   0.01147   1.91017
   A30        1.88377  -0.00119   0.00000  -0.01448  -0.01457   1.86920
   A31        1.94470   0.00112   0.00000   0.00718   0.00732   1.95202
   A32        1.90267   0.00032   0.00000   0.00531   0.00529   1.90796
   A33        1.91692   0.00045   0.00000   0.00521   0.00516   1.92208
   A34        1.90771  -0.00139   0.00000  -0.01593  -0.01599   1.89173
   A35        1.91493  -0.00057   0.00000   0.00027   0.00017   1.91510
   A36        1.87553   0.00003   0.00000  -0.00250  -0.00253   1.87300
   A37        1.94435  -0.00357   0.00000  -0.02073  -0.02073   1.92361
   A38        1.90625   0.00247   0.00000   0.01556   0.01539   1.92165
   A39        1.91207   0.00171   0.00000   0.01472   0.01467   1.92675
   A40        1.90653   0.00067   0.00000  -0.00188  -0.00174   1.90479
   A41        1.91232  -0.00024   0.00000  -0.00371  -0.00362   1.90870
   A42        1.88119  -0.00094   0.00000  -0.00339  -0.00357   1.87763
   A43        1.84450   0.00553   0.00000   0.02513   0.02513   1.86963
   A44        1.93642  -0.00458   0.00000  -0.02648  -0.02693   1.90949
   A45        1.98831   0.00029   0.00000   0.00643   0.00668   1.99499
   A46        1.88527   0.00202   0.00000   0.02771   0.02795   1.91321
   A47        1.89148  -0.00454   0.00000  -0.03082  -0.03081   1.86066
   A48        1.91354   0.00148   0.00000   0.00013   0.00025   1.91379
   A49        2.10213  -0.00617   0.00000  -0.01046  -0.01085   2.09129
   A50        2.26410  -0.00559   0.00000  -0.02698  -0.02708   2.23702
   A51        1.97644   0.00449   0.00000   0.02160   0.02097   1.99741
   A52        2.04149   0.00104   0.00000   0.00293   0.00232   2.04380
    D1       -3.04219  -0.00022   0.00000  -0.03967  -0.03885  -3.08104
    D2        0.14415   0.00104   0.00000   0.00000  -0.00000   0.14415
    D3        0.11086  -0.00170   0.00000  -0.06015  -0.05974   0.05112
    D4       -2.98598  -0.00044   0.00000  -0.02048  -0.02089  -3.00687
    D5        3.02362   0.00215   0.00000   0.03772   0.03783   3.06146
    D6       -0.04313   0.00107   0.00000   0.02363   0.02361  -0.01952
    D7       -0.16848   0.00022   0.00000  -0.00842  -0.00875  -0.17722
    D8        3.04795  -0.00086   0.00000  -0.02251  -0.02297   3.02499
    D9       -2.86953  -0.00099   0.00000  -0.03421  -0.03474  -2.90427
   D10        0.32617   0.00046   0.00000   0.02252   0.02214   0.34830
   D11        0.32269   0.00109   0.00000   0.01260   0.01298   0.33567
   D12       -2.76480   0.00255   0.00000   0.06933   0.06986  -2.69495
   D13        0.12362  -0.00227   0.00000  -0.01603  -0.01576   0.10786
   D14        2.85121   0.00264   0.00000   0.03639   0.03532   2.88653
   D15       -3.09097  -0.00126   0.00000  -0.00246  -0.00203  -3.09301
   D16       -0.36339   0.00365   0.00000   0.04996   0.04905  -0.31434
   D17       -2.69915   0.00071   0.00000   0.00000   0.00000  -2.69914
   D18        1.56295  -0.00175   0.00000  -0.00805  -0.00798   1.55497
   D19       -0.66965   0.00070   0.00000   0.02205   0.02171  -0.64794
   D20        0.81303   0.00143   0.00000  -0.01743  -0.01804   0.79499
   D21       -1.20806  -0.00103   0.00000  -0.02549  -0.02602  -1.23407
   D22        2.84253   0.00143   0.00000   0.00461   0.00368   2.84620
   D23        2.95150   0.00211   0.00000   0.03158   0.03142   2.98292
   D24       -1.21953   0.00116   0.00000   0.02441   0.02426  -1.19527
   D25        0.85771  -0.00082   0.00000   0.00616   0.00608   0.86379
   D26        0.92932   0.00330   0.00000   0.04892   0.04901   0.97833
   D27        3.04148   0.00235   0.00000   0.04175   0.04185   3.08333
   D28       -1.16446   0.00037   0.00000   0.02350   0.02367  -1.14080
   D29       -1.08599   0.00191   0.00000   0.00870   0.00871  -1.07728
   D30        1.02617   0.00095   0.00000   0.00153   0.00155   1.02772
   D31        3.10341  -0.00103   0.00000  -0.01672  -0.01663   3.08678
   D32       -2.89925  -0.00039   0.00000  -0.01771  -0.01752  -2.91677
   D33       -0.86001   0.00283   0.00000   0.01603   0.01585  -0.84416
   D34        1.30940   0.00137   0.00000   0.00000  -0.00001   1.30939
   D35       -0.88484  -0.00229   0.00000  -0.02465  -0.02452  -0.90935
   D36        1.15440   0.00093   0.00000   0.00909   0.00886   1.16326
   D37       -2.95938  -0.00052   0.00000  -0.00695  -0.00700  -2.96638
   D38        1.11367   0.00108   0.00000   0.01323   0.01332   1.12699
   D39       -3.13028   0.00430   0.00000   0.04697   0.04670  -3.08358
   D40       -0.96087   0.00285   0.00000   0.03093   0.03084  -0.93003
   D41        0.95665   0.00089   0.00000   0.00000   0.00001   0.95666
   D42        3.08201   0.00070   0.00000   0.00758   0.00754   3.08955
   D43       -1.13786  -0.00107   0.00000  -0.01610  -0.01607  -1.15393
   D44       -1.15804   0.00194   0.00000   0.01797   0.01805  -1.13999
   D45        0.96731   0.00175   0.00000   0.02556   0.02558   0.99289
   D46        3.03063  -0.00002   0.00000   0.00187   0.00197   3.03260
   D47        3.06059   0.00076   0.00000   0.00503   0.00501   3.06560
   D48       -1.09724   0.00057   0.00000   0.01261   0.01254  -1.08471
   D49        0.96607  -0.00120   0.00000  -0.01107  -0.01107   0.95500
   D50       -0.92192  -0.00073   0.00000   0.00000   0.00001  -0.92191
   D51        1.18502  -0.00154   0.00000  -0.01180  -0.01181   1.17321
   D52       -3.04752  -0.00106   0.00000  -0.00871  -0.00875  -3.05627
   D53       -3.04882   0.00028   0.00000   0.00056   0.00058  -3.04824
   D54       -0.94188  -0.00054   0.00000  -0.01124  -0.01123  -0.95311
   D55        1.10877  -0.00006   0.00000  -0.00815  -0.00817   1.10059
   D56        1.17651   0.00032   0.00000   0.00750   0.00754   1.18405
   D57       -2.99974  -0.00050   0.00000  -0.00430  -0.00427  -3.00401
   D58       -0.94909  -0.00002   0.00000  -0.00121  -0.00121  -0.95030
   D59        0.99024  -0.00132   0.00000  -0.01219  -0.01221   0.97803
   D60        3.09785  -0.00112   0.00000  -0.01746  -0.01760   3.08025
   D61       -1.12854   0.00017   0.00000  -0.00388  -0.00384  -1.13238
   D62       -1.11374  -0.00151   0.00000  -0.01286  -0.01284  -1.12658
   D63        0.99387  -0.00132   0.00000  -0.01814  -0.01823   0.97564
   D64        3.05066  -0.00002   0.00000  -0.00456  -0.00447   3.04620
   D65        3.11699  -0.00040   0.00000  -0.00063  -0.00062   3.11636
   D66       -1.05858  -0.00020   0.00000  -0.00591  -0.00601  -1.06460
   D67        0.99821   0.00109   0.00000   0.00767   0.00775   1.00596
   D68       -1.06035   0.00004   0.00000  -0.00144  -0.00135  -1.06170
   D69       -3.13388   0.00147   0.00000   0.00234   0.00198  -3.13190
   D70        1.07738   0.00108   0.00000   0.00379   0.00372   1.08110
   D71        3.11539  -0.00120   0.00000  -0.00638  -0.00623   3.10916
   D72        1.04186   0.00022   0.00000  -0.00260  -0.00290   1.03896
   D73       -1.03007  -0.00016   0.00000  -0.00115  -0.00116  -1.03123
   D74        1.05829  -0.00031   0.00000   0.00098   0.00119   1.05947
   D75       -1.01525   0.00111   0.00000   0.00477   0.00452  -1.01073
   D76       -3.08718   0.00073   0.00000   0.00622   0.00626  -3.08092
   D77       -1.17216   0.00581   0.00000   0.00000  -0.00000  -1.17217
   D78        3.06344   0.00177   0.00000  -0.01458  -0.01456   3.04888
   D79        1.00949   0.00113   0.00000  -0.03016  -0.03043   0.97906
   D80        0.27388  -0.00203   0.00000  -0.00254  -0.00268   0.27121
   D81       -2.92349  -0.00345   0.00000  -0.06060  -0.06040  -2.98389
         Item               Value     Threshold  Converged?
 Maximum Force            0.038189     0.000450     NO 
 RMS     Force            0.007025     0.000300     NO 
 Maximum Displacement     0.309700     0.001800     NO 
 RMS     Displacement     0.059392     0.001200     NO 
 Predicted change in Energy=-1.349800D-02
 GradGradGradGradGradGradGradGradGradGradGradGradGradGradGradGradGradGrad

                          Input orientation:                          
 ---------------------------------------------------------------------
 Center     Atomic      Atomic             Coordinates (Angstroms)
 Number     Number       Type             X           Y           Z
 ---------------------------------------------------------------------
      1          8           0       -3.499151   -1.376481   -0.357305
      2          7           0       -3.120648   -0.210511   -0.172185
      3          8           0       -3.854024    0.786281   -0.082162
      4          6           0       -1.673887   -0.011166   -0.037629
      5          6           0       -1.304215    1.270039    0.238224
      6          7           0       -0.067530    1.728810    0.496924
      7          6           0        1.202877    1.000444    0.427379
      8          1           0        1.865753    1.537367    1.123969
      9          6           0        1.872532    1.046466   -0.944801
     10          6           0        3.282108    0.453555   -0.832993
     11          6           0        3.252367   -0.957387   -0.233463
     12          6           0        2.489954   -0.996683    1.090433
     13          6           0        1.068912   -0.450576    0.900244
     14          1           0        0.532636   -0.474045    1.860380
     15          7           0        0.407056   -1.333786   -0.052885
     16          6           0       -0.842702   -1.166582   -0.320778
     17          1           0       -2.092624    2.014288    0.313078
     18          1           0        0.055223    2.735981    0.453766
     19          1           0        1.275522    0.471145   -1.661388
     20          1           0        1.914800    2.083943   -1.302622
     21          1           0        3.750659    0.433530   -1.823541
     22          1           0        3.896169    1.108036   -0.198190
     23          1           0        2.760532   -1.639409   -0.935928
     24          1           0        4.274651   -1.325148   -0.083014
     25          1           0        2.432503   -2.026035    1.461510
     26          1           0        3.011146   -0.398784    1.850149
     27          1           0       -1.330620   -1.938294   -0.919171
 ---------------------------------------------------------------------
                    Distance matrix (angstroms):
                    1          2          3          4          5
     1  O    0.000000
     2  N    1.239766   0.000000
     3  O    2.208886   1.240782   0.000000
     4  C    2.301710   1.466616   2.321832   0.000000
     5  C    3.489480   2.379053   2.614995   1.361704   0.000000
     6  N    4.706226   3.678342   3.944773   2.427683   1.344167
     7  C    5.326779   4.529764   5.087018   3.084698   2.528630
     8  H    6.282268   5.440523   5.893618   4.034392   3.302227
     9  C    5.922061   5.206608   5.797006   3.810332   3.397241
    10  C    7.039943   6.470931   7.183233   5.040879   4.780011
    11  C    6.765647   6.416924   7.318748   5.020126   5.093757
    12  C    6.173295   5.804406   6.693280   4.425080   4.501111
    13  C    4.827622   4.331299   5.170129   2.931831   3.005081
    14  H    4.689119   4.188945   4.960311   2.947107   3.007863
    15  N    3.918284   3.704143   4.759448   2.465742   3.129392
    16  C    2.664979   2.474912   3.597037   1.451217   2.542164
    17  H    3.731628   2.498409   2.183288   2.097808   1.086785
    18  H    5.495795   4.377190   4.401223   3.283003   2.010850
    19  H    5.283168   4.691343   5.376384   3.401210   3.301787
    20  H    6.494539   5.647845   6.037614   4.343773   3.660424
    21  H    7.614837   7.096241   7.809484   5.728258   5.522895
    22  H    7.803134   7.139675   7.757736   5.683653   5.221177
    23  H    6.291865   6.100273   7.096847   4.808553   5.134752
    24  H    7.778810   7.479360   8.398422   6.092103   6.161326
    25  H    6.238151   6.066512   7.057794   4.813476   5.130652
    26  H    6.943538   6.459426   7.229714   5.065914   4.899552
    27  H    2.309514   2.597580   3.806765   2.146805   3.410815
                    6          7          8          9         10
     6  N    0.000000
     7  C    1.466045   0.000000
     8  H    2.041426   1.101330   0.000000
     9  C    2.511574   1.527558   2.126227   0.000000
    10  C    3.822961   2.492153   2.647718   1.533281   0.000000
    11  C    4.332533   2.910365   3.160557   2.534833   1.533323
    12  C    3.784348   2.466723   2.610011   2.949211   2.535798
    13  C    2.490761   1.531994   2.153352   2.508212   2.952931
    14  H    2.659283   2.162599   2.522950   3.460681   3.959078
    15  N    3.147542   2.512492   3.428747   2.934064   3.474059
    16  C    3.106900   3.072481   4.090766   3.558017   4.461084
    17  H    2.053364   3.449823   4.068630   4.270996   5.712891
    18  H    1.015542   2.080840   2.272414   2.848344   4.156682
    19  H    2.836163   2.156011   3.040299   1.095861   2.170930
    20  H    2.700763   2.161876   2.487870   1.098263   2.179048
    21  H    4.651976   3.446625   3.668670   2.162229   1.095959
    22  H    4.071787   2.767080   2.460694   2.157852   1.099268
    23  H    4.625570   3.354656   3.890464   2.828877   2.159430
    24  H    5.340181   3.886474   3.931106   3.483878   2.170575
    25  H    4.612966   3.426511   3.623944   3.942608   3.483524
    26  H    3.979463   2.692944   2.363883   3.346183   2.828278
    27  H    4.128968   4.107066   5.145041   4.378313   5.196695
                   11         12         13         14         15
    11  C    0.000000
    12  C    1.528241   0.000000
    13  C    2.511897   1.534199   0.000000
    14  H    3.466228   2.167270   1.100002   0.000000
    15  N    2.875775   2.399850   1.458276   2.101311   0.000000
    16  C    4.101339   3.623117   2.378619   2.669947   1.289038
    17  H    6.139911   5.538073   4.051620   3.934201   4.194274
    18  H    4.933051   4.501782   3.373582   3.537054   4.116247
    19  H    2.826233   3.346922   2.730241   3.721306   2.568909
    20  H    3.490255   3.943067   3.462937   4.296308   3.939037
    21  H    2.170552   3.482260   3.923317   4.975001   4.175921
    22  H    2.163723   2.840393   3.410162   4.249004   4.261163
    23  H    1.095679   2.143000   2.765218   3.760442   2.532196
    24  H    1.096789   2.161022   3.465320   4.301608   3.867722
    25  H    2.164976   1.095702   2.157886   2.485410   2.622029
    26  H    2.170637   1.098314   2.162701   2.479673   3.358133
    27  H    4.736681   4.418363   3.358769   3.652623   2.033568
                   16         17         18         19         20
    16  C    0.000000
    17  H    3.475920   0.000000
    18  H    4.078749   2.270217   0.000000
    19  H    2.994372   4.198121   3.330539   0.000000
    20  H    4.374215   4.321434   2.639712   1.771583   0.000000
    21  H    5.090936   6.419338   4.913619   2.480728   2.523014
    22  H    5.257928   6.078514   4.222335   3.068284   2.469410
    23  H    3.685820   6.201826   5.328601   2.680669   3.835763
    24  H    5.125327   7.200759   5.880857   3.835715   4.321834
    25  H    3.826510   6.174130   5.416992   4.162572   4.979996
    26  H    4.489386   5.850981   4.529251   4.012488   4.160033
    27  H    1.091639   4.209750   5.065014   3.626053   5.182488
                   21         22         23         24         25
    21  H    0.000000
    22  H    1.765756   0.000000
    23  H    2.462780   3.063067   0.000000
    24  H    2.529219   2.465136   1.766006   0.000000
    25  H    4.310285   3.836576   2.450467   2.504059   0.000000
    26  H    3.838701   2.692483   3.060095   2.488316   1.770259
    27  H    5.680038   6.092558   4.102090   5.700366   4.453812
                   26         27
    26  H    0.000000
    27  H    5.374957   0.000000
 Symmetry turned off by external request.
 Stoichiometry    C9H13N3O2
 Framework group  C1[X(C9H13N3O2)]
 Deg. of freedom    75
 Full point group                 C1      NOp   1
 Rotational constants (GHZ):           1.6682179           0.4224855           0.3739776
 Standard basis: 6-31G(d) (6D, 7F)
   236 basis functions,   444 primitive gaussians,   236 cartesian basis functions
    52 alpha electrons       52 beta electrons
       nuclear repulsion energy       932.2260869677 Hartrees.
 NAtoms=   27 NActive=   27 NUniq=   27 SFac= 1.00D+00 NAtFMM=   60 NAOKFM=F Big=F
 Integral buffers will be    131072 words long.
 Raffenetti 1 integral format.
 Two-electron integral symmetry is turned off.
 One-electron integrals computed using PRISM.
 NBasis=   236 RedAO= T EigKep=  1.02D-03  NBF=   236
 NBsUse=   236 1.00D-06 EigRej= -1.00D+00 NBFU=   236
 Initial guess from the checkpoint file:  "/home/alexey/tmp/Gau-1519294.chk"
 B after Tr=     0.059011    0.005638    0.001808
         Rot=    0.999998   -0.001622    0.000887    0.000972 Ang=  -0.24 deg.
 ExpMin= 1.61D-01 ExpMax= 5.48D+03 ExpMxC= 8.25D+02 IAcc=3 IRadAn=         5 AccDes= 0.00D+00
 Harris functional with IExCor=  205 and IRadAn=       5 diagonalized for initial guess.
 HarFok:  IExCor=  205 AccDes= 0.00D+00 IRadAn=         5 IDoV= 1 UseB2=F ITyADJ=14
 ICtDFT=  3500011 ScaDFX=  1.000000  1.000000  1.000000  1.000000
 FoFCou: FMM=F IPFlag=           0 FMFlag=      100000 FMFlg1=           0
         NFxFlg=           0 DoJE=T BraDBF=F KetDBF=T FulRan=T
         wScrn=  0.000000 ICntrl=       500 IOpCl=  0 I1Cent=   200000004 NGrid=           0
         NMat0=    1 NMatS0=      1 NMatT0=    0 NMatD0=    1 NMtDS0=    0 NMtDT0=    0
 Symmetry not used in FoFCou.
 Keep R1 ints in memory in canonical form, NReq=397720213.
 Requested convergence on RMS density matrix=1.00D-08 within 128 cycles.
 Requested convergence on MAX density matrix=1.00D-06.
 Requested convergence on             energy=1.00D-06.
 No special actions if energy rises.
 SCF Done:  E(RHF) =  -661.298701308     A.U. after   14 cycles
            NFock= 14  Conv=0.96D-08     -V/T= 2.0024
 ExpMin= 1.61D-01 ExpMax= 5.48D+03 ExpMxC= 8.25D+02 IAcc=3 IRadAn=         5 AccDes= 0.00D+00
 HarFok:  IExCor=  205 AccDes= 0.00D+00 IRadAn=         5 IDoV=-2 UseB2=F ITyADJ=14
 ICtDFT= 12500011 ScaDFX=  1.000000  1.000000  1.000000  1.000000
 Range of M.O.s used for correlation:    15   236
 NBasis=   236 NAE=    52 NBE=    52 NFC=    14 NFV=     0
 NROrb=    222 NOA=    38 NOB=    38 NVA=   184 NVB=   184
 Fully direct method using O(ONN) memory.
 JobTyp=1 Pass  1:  I=  15 to  52 NPSUse=  4 ParTrn=T ParDer=T DoDerP=T.
 Spin components of T(2) and E(2):
     alpha-alpha T2 =       0.9134195543D-01 E2=     -0.2724628163D+00
     alpha-beta  T2 =       0.4912069316D+00 E2=     -0.1487979728D+01
     beta-beta   T2 =       0.9134195543D-01 E2=     -0.2724628163D+00
 ANorm=    0.1293789335D+01
 E2 =    -0.2032905360D+01 EUMP2 =    -0.66333160666865D+03
          IDoAtm=111111111111111111111111111
          Differentiating once with respect to electric field.
                with respect to dipole field.
          Differentiating once with respect to nuclear coordinates.
 Keep R1 ints in memory in canonical form, NReq=397723379.
          There are     1 degrees of freedom in the 1st order CPHF.  IDoFFX=0 NUNeed=     1.
 LinEq1:  Iter=  0 NonCon=     1 RMS=4.59D-03 Max=1.08D-01 NDo=     1
 AX will form     1 AO Fock derivatives at one time.
 LinEq1:  Iter=  1 NonCon=     1 RMS=1.54D-03 Max=2.90D-02 NDo=     1
 LinEq1:  Iter=  2 NonCon=     1 RMS=6.46D-04 Max=1.83D-02 NDo=     1
 LinEq1:  Iter=  3 NonCon=     1 RMS=2.81D-04 Max=8.46D-03 NDo=     1
 LinEq1:  Iter=  4 NonCon=     1 RMS=8.83D-05 Max=2.06D-03 NDo=     1
 LinEq1:  Iter=  5 NonCon=     1 RMS=3.69D-05 Max=1.76D-03 NDo=     1
 LinEq1:  Iter=  6 NonCon=     1 RMS=1.44D-05 Max=5.28D-04 NDo=     1
[...]
    27  H    4.691657   4.411087   3.364326   3.666596   2.027149
                   16         17         18         19         20
    16  C    0.000000
    17  H    3.462684   0.000000
    18  H    4.092919   2.232255   0.000000
    19  H    2.956621   4.189997   3.478731   0.000000
    20  H    4.358070   4.349556   2.851628   1.768982   0.000000
    21  H    5.062260   6.430055   5.069083   2.498858   2.522222
    22  H    5.235727   6.075103   4.313641   3.070210   2.460585
    23  H    3.662210   6.193886   5.410759   2.707771   3.845391
    24  H    5.115050   7.191053   5.937490   3.851173   4.316836
    25  H    3.831140   6.142662   5.382567   4.175389   4.986069
    26  H    4.507267   5.843032   4.503449   4.036848   4.179958
    27  H    1.089804   4.214360   5.092115   3.559641   5.139419
                   21         22         23         24         25
    21  H    0.000000
    22  H    1.758733   0.000000
    23  H    2.470169   3.062298   0.000000
    24  H    2.516342   2.458482   1.764476   0.000000
    25  H    4.311879   3.839123   2.443223   2.519645   0.000000
    26  H    3.847215   2.704337   3.060868   2.494282   1.768818
    27  H    5.612294   6.040960   4.043743   5.658985   4.446319
                   26         27
    26  H    0.000000
    27  H    5.377567   0.000000
 Symmetry turned off by external request.
 Stoichiometry    C9H13N3O2
 Framework group  C1[X(C9H13N3O2)]
 Deg. of freedom    75
 Full point group                 C1      NOp   1
 Rotational constants (GHZ):           1.6656348           0.4204659           0.3739300

 **********************************************************************

            Population analysis using the SCF Density.

 **********************************************************************

 Alpha  occ. eigenvalues --  -20.59240 -20.58906 -15.84731 -15.64172 -15.55967
 Alpha  occ. eigenvalues --  -11.35021 -11.29619 -11.29575 -11.28640 -11.27137
 Alpha  occ. eigenvalues --  -11.23754 -11.23214 -11.22652 -11.22043  -1.57128
 Alpha  occ. eigenvalues --   -1.36715  -1.30987  -1.22964  -1.14719  -1.09788
 Alpha  occ. eigenvalues --   -1.02802  -1.01311  -0.94482  -0.89708  -0.85553
 Alpha  occ. eigenvalues --   -0.82437  -0.78655  -0.77397  -0.75138  -0.72005
 Alpha  occ. eigenvalues --   -0.69755  -0.69456  -0.67873  -0.64841  -0.63933
 Alpha  occ. eigenvalues --   -0.62332  -0.60186  -0.57814  -0.56881  -0.55070
 Alpha  occ. eigenvalues --   -0.54608  -0.50729  -0.50183  -0.48690  -0.48132
 Alpha  occ. eigenvalues --   -0.47361  -0.46157  -0.45994  -0.43691  -0.41730
 Alpha  occ. eigenvalues --   -0.39553  -0.33753
 Alpha virt. eigenvalues --    0.07446   0.11711   0.17284   0.21911   0.24210
 Alpha virt. eigenvalues --    0.25801   0.27156   0.28735   0.29136   0.29539
 Alpha virt. eigenvalues --    0.30719   0.31865   0.32063   0.32814   0.33828
 Alpha virt. eigenvalues --    0.34424   0.35865   0.37482   0.38469   0.40326
 Alpha virt. eigenvalues --    0.41343   0.42274   0.44800   0.45993   0.46672
 Alpha virt. eigenvalues --    0.47377   0.49011   0.54000   0.57449   0.59426
 Alpha virt. eigenvalues --    0.63942   0.69465   0.69612   0.73061   0.74183
 Alpha virt. eigenvalues --    0.74977   0.75683   0.76521   0.78765   0.79306
 Alpha virt. eigenvalues --    0.81537   0.84482   0.85536   0.85812   0.88433
 Alpha virt. eigenvalues --    0.88943   0.91549   0.91737   0.92902   0.94439
 Alpha virt. eigenvalues --    0.95522   0.97969   0.99767   1.01597   1.02394
 Alpha virt. eigenvalues --    1.03207   1.05879   1.07033   1.08010   1.09048
 Alpha virt. eigenvalues --    1.10371   1.11863   1.11893   1.12480   1.13932
 Alpha virt. eigenvalues --    1.14722   1.14967   1.16028   1.17060   1.18619
 Alpha virt. eigenvalues --    1.18875   1.21583   1.22895   1.23861   1.24743
 Alpha virt. eigenvalues --    1.25051   1.26050   1.26906   1.27724   1.29747
 Alpha virt. eigenvalues --    1.30209   1.32949   1.36054   1.37428   1.40828
 Alpha virt. eigenvalues --    1.42027   1.45738   1.48818   1.52270   1.54773
 Alpha virt. eigenvalues --    1.57531   1.59050   1.60087   1.63384   1.65875
 Alpha virt. eigenvalues --    1.68100   1.68632   1.72569   1.75488   1.78241
 Alpha virt. eigenvalues --    1.81491   1.84436   1.87565   1.90499   1.92331
 Alpha virt. eigenvalues --    1.95493   1.96762   1.99726   2.01656   2.02457
 Alpha virt. eigenvalues --    2.04877   2.05678   2.09069   2.09824   2.12356
 Alpha virt. eigenvalues --    2.12760   2.15586   2.19241   2.19818   2.21974
 Alpha virt. eigenvalues --    2.22854   2.24851   2.25218   2.28041   2.29348
 Alpha virt. eigenvalues --    2.31253   2.33681   2.34384   2.36349   2.38362
 Alpha virt. eigenvalues --    2.41065   2.42005   2.43849   2.44939   2.47881
 Alpha virt. eigenvalues --    2.50540   2.52116   2.53157   2.55191   2.60800
 Alpha virt. eigenvalues --    2.62601   2.65650   2.67359   2.69968   2.70489
 Alpha virt. eigenvalues --    2.71716   2.72060   2.76351   2.78338   2.84018
 Alpha virt. eigenvalues --    2.88313   2.89104   2.92814   2.93207   2.95831
 Alpha virt. eigenvalues --    2.99178   3.01300   3.04336   3.06528   3.07751
 Alpha virt. eigenvalues --    3.09607   3.15878   3.20825   3.25296   3.27481
 Alpha virt. eigenvalues --    3.33725   3.38056   3.38758   3.52103   3.66226
 Alpha virt. eigenvalues --    4.13907   4.28055   4.34547   4.39202   4.46736
 Alpha virt. eigenvalues --    4.56108   4.61983   4.62476   4.73283   4.80399
 Alpha virt. eigenvalues --    4.99433   5.00970   5.05601   5.10932
          Condensed to atoms (all electrons):
               1          2          3          4          5          6
     1  O    8.316337   0.306235  -0.082559  -0.085016   0.004616  -0.000015
     2  N    0.306235   5.721901   0.301632   0.263104  -0.054179   0.000958
     3  O   -0.082559   0.301632   8.353405  -0.092609   0.003310   0.000795
     4  C   -0.085016   0.263104  -0.092609   5.232313   0.559978  -0.047944
     5  C    0.004616  -0.054179   0.003310   0.559978   4.710179   0.318753
     6  N   -0.000015   0.000958   0.000795  -0.047944   0.318753   7.190642
     7  C    0.000003  -0.000132   0.000002   0.005422  -0.029928   0.174519
     8  H   -0.000000   0.000002  -0.000000  -0.000288   0.003398  -0.048817
     9  C   -0.000000  -0.000006  -0.000000   0.000831   0.000073  -0.063921
    10  C   -0.000000   0.000000   0.000000  -0.000042  -0.000038   0.003875
    11  C   -0.000000  -0.000000  -0.000000  -0.000024   0.000021  -0.000180
    12  C   -0.000000   0.000002  -0.000000  -0.000196  -0.000174   0.003748
    13  C   -0.000021  -0.000014  -0.000003  -0.009674  -0.000598  -0.051537
    14  H   -0.000002  -0.000088   0.000001   0.002236   0.004942  -0.006434
    15  N    0.000462   0.002309  -0.000016  -0.064637  -0.006096   0.001459
    16  C    0.000675  -0.026242   0.002589   0.325229  -0.051141  -0.001327
    17  H    0.000226  -0.007217   0.017587  -0.022980   0.374599  -0.034069
    18  H    0.000001  -0.000051   0.000012   0.001554  -0.031678   0.338542
    19  H    0.000001  -0.000007   0.000000  -0.001438   0.001701  -0.000703
    20  H    0.000000  -0.000000   0.000000  -0.000073   0.000091  -0.000085
    21  H   -0.000000   0.000000  -0.000000   0.000001   0.000001  -0.000082
    22  H   -0.000000   0.000000  -0.000000  -0.000000  -0.000003  -0.000107
    23  H    0.000000  -0.000000   0.000000   0.000045  -0.000000  -0.000030
    24  H    0.000000   0.000000   0.000000   0.000000  -0.000000   0.000006
    25  H    0.000000  -0.000000   0.000000   0.000025  -0.000001  -0.000088
    26  H    0.000000  -0.000000   0.000000   0.000005  -0.000000  -0.000065
    27  H    0.006349  -0.000796   0.000024  -0.065232   0.002135   0.000007
               7          8          9         10         11         12
     1  O    0.000003  -0.000000  -0.000000  -0.000000  -0.000000  -0.000000
     2  N   -0.000132   0.000002  -0.000006   0.000000  -0.000000   0.000002
     3  O    0.000002  -0.000000  -0.000000   0.000000  -0.000000  -0.000000
     4  C    0.005422  -0.000288   0.000831  -0.000042  -0.000024  -0.000196
     5  C   -0.029928   0.003398   0.000073  -0.000038   0.000021  -0.000174
     6  N    0.174519  -0.048817  -0.063921   0.003875  -0.000180   0.003748
     7  C    5.020820   0.416554   0.354475  -0.055275  -0.009224  -0.061627
     8  H    0.416554   0.533510  -0.057113   0.000710  -0.000226  -0.002023
     9  C    0.354475  -0.057113   5.163712   0.325306  -0.050514  -0.005214
    10  C   -0.055275   0.000710   0.325306   5.117976   0.337356  -0.061171
    11  C   -0.009224  -0.000226  -0.050514   0.337356   5.121561   0.335834
    12  C   -0.061627  -0.002023  -0.005214  -0.061171   0.335834   5.118343
    13  C    0.333503  -0.033518  -0.062134   0.000112  -0.050376   0.372400
    14  H   -0.045729  -0.000786   0.004378  -0.000405   0.004205  -0.036340
    15  N   -0.057999   0.003704  -0.015900   0.001543  -0.014352  -0.082651
    16  C   -0.001366  -0.000015  -0.001178  -0.000048   0.000025   0.002371
    17  H    0.001560  -0.000041  -0.000066   0.000001   0.000000   0.000000
    18  H   -0.021759  -0.004332   0.001273  -0.000083   0.000004  -0.000112
    19  H   -0.036448   0.004393   0.390545  -0.031986  -0.002158   0.000707
    20  H   -0.042906  -0.002216   0.398748  -0.035096   0.003930  -0.000431
    21  H    0.004600  -0.000092  -0.036252   0.402261  -0.034855   0.004361
    22  H   -0.004843   0.003667  -0.047127   0.397802  -0.045457  -0.000959
    23  H    0.000662   0.000031  -0.001980  -0.038812   0.399106  -0.037610
    24  H   -0.000134  -0.000099   0.004407  -0.038532   0.402290  -0.038747
    25  H    0.005155  -0.000024  -0.000418   0.004190  -0.033453   0.398093
    26  H   -0.003602   0.001556   0.000979  -0.002195  -0.041418   0.396901
    27  H   -0.000410   0.000008  -0.000056   0.000006   0.000015  -0.000032
              13         14         15         16         17         18
     1  O   -0.000021  -0.000002   0.000462   0.000675   0.000226   0.000001
     2  N   -0.000014  -0.000088   0.002309  -0.026242  -0.007217  -0.000051
     3  O   -0.000003   0.000001  -0.000016   0.002589   0.017587   0.000012
     4  C   -0.009674   0.002236  -0.064637   0.325229  -0.022980   0.001554
     5  C   -0.000598   0.004942  -0.006096  -0.051141   0.374599  -0.031678
     6  N   -0.051537  -0.006434   0.001459  -0.001327  -0.034069   0.338542
     7  C    0.333503  -0.045729  -0.057999  -0.001366   0.001560  -0.021759
     8  H   -0.033518  -0.000786   0.003704  -0.000015  -0.000041  -0.004332
     9  C   -0.062134   0.004378  -0.015900  -0.001178  -0.000066   0.001273
    10  C    0.000112  -0.000405   0.001543  -0.000048   0.000001  -0.000083
    11  C   -0.050376   0.004205  -0.014352   0.000025   0.000000   0.000004
    12  C    0.372400  -0.036340  -0.082651   0.002371   0.000000  -0.000112
    13  C    5.035615   0.404738   0.243969  -0.068770  -0.000048   0.003168
    14  H    0.404738   0.521561  -0.036588  -0.004368   0.000064  -0.000084
    15  N    0.243969  -0.036588   6.976415   0.586235  -0.000058  -0.000140
    16  C   -0.068770  -0.004368   0.586235   4.706287   0.002003  -0.000202
    17  H   -0.000048   0.000064  -0.000058   0.002003   0.375947  -0.002960
    18  H    0.003168  -0.000084  -0.000140  -0.000202  -0.002960   0.311558
    19  H   -0.007488   0.000090   0.007473   0.002923   0.000019  -0.000148
    20  H    0.004459  -0.000065   0.000159  -0.000042  -0.000002   0.000993
    21  H   -0.000441   0.000010  -0.000051   0.000004  -0.000000   0.000001
    22  H   -0.000052  -0.000054   0.000027  -0.000002   0.000000   0.000001
    23  H   -0.007925   0.000001   0.008897   0.000134   0.000000   0.000000
    24  H    0.004729  -0.000057   0.000156   0.000007   0.000000  -0.000000
    25  H   -0.035503  -0.002879   0.000686  -0.000043  -0.000000   0.000002
    26  H   -0.047816  -0.000946   0.004945  -0.000045   0.000000  -0.000001
    27  H    0.004934  -0.000167  -0.040785   0.405180  -0.000079   0.000001
              19         20         21         22         23         24
     1  O    0.000001   0.000000  -0.000000  -0.000000   0.000000   0.000000
     2  N   -0.000007  -0.000000   0.000000   0.000000  -0.000000   0.000000
     3  O    0.000000   0.000000  -0.000000  -0.000000   0.000000   0.000000
     4  C   -0.001438  -0.000073   0.000001  -0.000000   0.000045   0.000000
     5  C    0.001701   0.000091   0.000001  -0.000003  -0.000000  -0.000000
     6  N   -0.000703  -0.000085  -0.000082  -0.000107  -0.000030   0.000006
     7  C   -0.036448  -0.042906   0.004600  -0.004843   0.000662  -0.000134
     8  H    0.004393  -0.002216  -0.000092   0.003667   0.000031  -0.000099
     9  C    0.390545   0.398748  -0.036252  -0.047127  -0.001980   0.004407
    10  C   -0.031986  -0.035096   0.402261   0.397802  -0.038812  -0.038532
    11  C   -0.002158   0.003930  -0.034855  -0.045457   0.399106   0.402290
    12  C    0.000707  -0.000431   0.004361  -0.000959  -0.037610  -0.038747
    13  C   -0.007488   0.004459  -0.000441  -0.000052  -0.007925   0.004729
    14  H    0.000090  -0.000065   0.000010  -0.000054   0.000001  -0.000057
    15  N    0.007473   0.000159  -0.000051   0.000027   0.008897   0.000156
    16  C    0.002923  -0.000042   0.000004  -0.000002   0.000134   0.000007
    17  H    0.000019  -0.000002  -0.000000   0.000000   0.000000   0.000000
    18  H   -0.000148   0.000993   0.000001   0.000001   0.000000  -0.000000
    19  H    0.504627  -0.024921  -0.002816   0.003962   0.001482  -0.000068
    20  H   -0.024921   0.543637  -0.002694  -0.003027  -0.000044  -0.000084
    21  H   -0.002816  -0.002694   0.524107  -0.027462  -0.002882  -0.002257
    22  H    0.003962  -0.003027  -0.027462   0.571854   0.004129  -0.003673
    23  H    0.001482  -0.000044  -0.002882   0.004129   0.497519  -0.025452
    24  H   -0.000068  -0.000084  -0.002257  -0.003673  -0.025452   0.538556
    25  H   -0.000028   0.000012  -0.000086  -0.000081  -0.002278  -0.002306
    26  H    0.000020  -0.000030  -0.000081   0.002382   0.004049  -0.002999
    27  H    0.000083   0.000000  -0.000000   0.000000  -0.000041  -0.000000
              25         26         27
     1  O    0.000000   0.000000   0.006349
     2  N   -0.000000  -0.000000  -0.000796
     3  O    0.000000   0.000000   0.000024
     4  C    0.000025   0.000005  -0.065232
     5  C   -0.000001  -0.000000   0.002135
     6  N   -0.000088  -0.000065   0.000007
     7  C    0.005155  -0.003602  -0.000410
     8  H   -0.000024   0.001556   0.000008
     9  C   -0.000418   0.000979  -0.000056
    10  C    0.004190  -0.002195   0.000006
    11  C   -0.033453  -0.041418   0.000015
    12  C    0.398093   0.396901  -0.000032
    13  C   -0.035503  -0.047816   0.004934
    14  H   -0.002879  -0.000946  -0.000167
    15  N    0.000686   0.004945  -0.040785
    16  C   -0.000043  -0.000045   0.405180
    17  H   -0.000000   0.000000  -0.000079
    18  H    0.000002  -0.000001   0.000001
    19  H   -0.000028   0.000020   0.000083
    20  H    0.000012  -0.000030   0.000000
    21  H   -0.000086  -0.000081  -0.000000
    22  H   -0.000081   0.002382   0.000000
    23  H   -0.002278   0.004049  -0.000041
    24  H   -0.002306  -0.002999  -0.000000
    25  H    0.506510  -0.024022  -0.000014
    26  H   -0.024022   0.561888   0.000001
    27  H   -0.000014   0.000001   0.438673
 Mulliken charges:
               1
     1  O   -0.467293
     2  N    0.492590
     3  O   -0.504170
     4  C   -0.000592
     5  C    0.190037
     6  N   -0.777899
     7  C    0.054106
     8  H    0.182059
     9  C   -0.302851
    10  C   -0.327456
    11  C   -0.322110
    12  C   -0.305473
    13  C   -0.031711
    14  H    0.192766
    15  N   -0.519166
    16  C    0.121125
    17  H    0.295512
    18  H    0.404441
    19  H    0.190181
    20  H    0.159687
    21  H    0.174704
    22  H    0.149022
    23  H    0.200999
    24  H    0.164255
    25  H    0.186550
    26  H    0.150495
    27  H    0.250195
 Sum of Mulliken charges =  -0.00000
 Mulliken charges with hydrogens summed into heavy atoms:
               1
     1  O   -0.467293
     2  N    0.492590
     3  O   -0.504170
     4  C   -0.000592
     5  C    0.485549
     6  N   -0.373459
     7  C    0.236164
     9  C    0.047017
    10  C   -0.003729
    11  C    0.043144
    12  C    0.031572
    13  C    0.161055
    15  N   -0.519166
    16  C    0.371319
 Electronic spatial extent (au):  <R**2>=           2998.1726
 Charge=              0.0000 electrons
 Dipole moment (field-independent basis, Debye):
    X=              5.4185    Y=              4.7575    Z=              1.3640  Tot=              7.3385
 Quadrupole moment (field-independent basis, Debye-Ang):
   XX=           -106.0520   YY=            -78.9825   ZZ=            -81.7492
   XY=             -1.4265   XZ=             -0.9977   YZ=              1.6376
 Traceless Quadrupole moment (field-independent basis, Debye-Ang):
   XX=            -17.1241   YY=              9.9454   ZZ=              7.1787
   XY=             -1.4265   XZ=             -0.9977   YZ=              1.6376
 Octapole moment (field-independent basis, Debye-Ang**2):
  XXX=             90.9502  YYY=             35.5812  ZZZ=             -0.8418  XYY=             -4.8003
  XXY=              8.4772  XXZ=              9.6928  XZZ=             -9.2805  YZZ=             -0.6540
  YYZ=              7.9604  XYZ=              0.6637
 Hexadecapole moment (field-independent basis, Debye-Ang**3):
 XXXX=          -3359.5697 YYYY=           -599.0881 ZZZZ=           -311.7071 XXXY=             -9.3746
 XXXZ=            -52.3618 YYYX=             -0.5939 YYYZ=             23.5324 ZZZX=            -19.2835
 ZZZY=              4.8992 XXYY=           -624.6099 XXZZ=           -524.4472 YYZZ=           -159.3243
 XXYZ=             -3.8484 YYXZ=             -6.0723 ZZXY=              6.2425
 N-N= 9.315227357452D+02 E-N=-3.409768931487D+03  KE= 6.596283442241D+02
 Unable to Open any file for archive entry.
 1\1\GINC-LOTUS\FOpt\RMP2-FC\6-31G(d)\C9H13N3O2\ALEXEY\02-Jul-2023\0\\#
 MP2/6-31G* SCF=Tight Opt=(ModRedun, MaxCycle=20 ) NoSymm\\MolName:\\0,
 1\O,-3.5053713829,-1.3658388059,-0.4548898163\N,-3.1128566488,-0.21032
 54377,-0.2016595116\O,-3.8785661854,0.7663631278,-0.0867433851\C,-1.68
 23142668,-0.0226679815,-0.0188771324\C,-1.2931364606,1.2633610397,0.25
 62204899\N,-0.0560327261,1.7314926003,0.4788293631\C,1.2135258385,1.02
 05387752,0.4157019145\H,1.8874491342,1.5795595609,1.0811915862\C,1.868
 749365,1.0347648161,-0.9679740591\C,3.2720561237,0.4274499951,-0.85286
 61019\C,3.2466403296,-0.9695935006,-0.2270063112\C,2.4978667493,-0.983
 2556695,1.106997592\C,1.0806865074,-0.4315072157,0.9123114082\H,0.5247
 212532,-0.4266537784,1.8621349759\N,0.4175627193,-1.3137664838,-0.0432
 670382\C,-0.8341680129,-1.1555272958,-0.329541138\H,-2.0850718311,2.00
 16622854,0.3469011857\H,0.0028570847,2.7270495844,0.6588778702\H,1.250
 811902,0.4597678444,-1.6656888516\H,1.9221284155,2.0643699371,-1.34337
 95318\H,3.7424924642,0.3913127534,-1.8421338734\H,3.8932814987,1.09289
 40529,-0.2364606842\H,2.7460742482,-1.6662135432,-0.9064676112\H,4.272
 0578302,-1.3315848268,-0.0862398615\H,2.4272438677,-2.0058562739,1.491
 9333077\H,3.0302208824,-0.3838376426,1.8582541468\H,-1.2889086994,-1.9
 289579173,-0.9481589326\\Version=ES64L-G16RevC.02\HF=-661.2993592\MP2=
 -663.3338523\RMSD=4.877e-09\RMSF=1.355e-03\Dipole=1.9835614,1.6799058,
 0.5019611\PG=C01 [X(C9H13N3O2)]\\@
 The archive entry for this job was punched.


 ART, GLORY, FREEDOM FAIL, BUT NATURE STILL IS FAIR.

                                           -- BYRON
 Job cpu time:       0 days  0 hours 59 minutes 56.3 seconds.
 Elapsed time:       0 days  0 hours 18 minutes  3.0 seconds.
 File lengths (MBytes):  RWF=     36 Int=      0 D2E=      0 Chk=      7 Scr=      1
 Normal termination of Gaussian 16 at Sun Jul  2 13:54:57 2023.
