 Entering Gaussian System, Link 0=g16
 Initial command:
 /home/alexey/programs//g16/l1.exe "/home/alexey/tmp/Gau-1512129.inp" -scrdir="/home/alexey/tmp/"
 Entering Link 1 = /home/alexey/programs//g16/l1.exe PID=   1512131.
  
 Copyright (c) 1988-2021, Gaussian, Inc.  All Rights Reserved.
  
 This is part of the Gaussian(R) 16 program.  It is based on
 the Gaussian(R) 09 system (copyright 2009, Gaussian, Inc.),
 the Gaussian(R) 03 system (copyright 2003, Gaussian, Inc.),
 the Gaussian(R) 98 system (copyright 1998, Gaussian, Inc.),
 the Gaussian(R) 94 system (copyright 1995, Gaussian, Inc.),
 the Gaussian 92(TM) system (copyright 1992, Gaussian, Inc.),
 the Gaussian 90(TM) system (copyright 1990, Gaussian, Inc.),
 the Gaussian 88(TM) system (copyright 1988, Gaussian, Inc.),
 the Gaussian 86(TM) system (copyright 1986, Carnegie Mellon
 University), and the Gaussian 82(TM) system (copyright 1983,
 Carnegie Mellon University). Gaussian is a federally registered
 trademark of Gaussian, Inc.
  
 This software contains proprietary and confidential information,
 including trade secrets, belonging to Gaussian, Inc.
  
 This software is provided under written license and may be
 used, copied, transmitted, or stored only in accord with that
 written license.
  
 The following legend is applicable only to US Government
 contracts under FAR:
  
                    RESTRICTED RIGHTS LEGEND
  
 Use, reproduction and disclosure by the US Government is
 subject to restrictions as set forth in subparagraphs (a)
 and (c) of the Commercial Computer Software - Restricted
 Rights clause in FAR 52.227-19.
  
 Gaussian, Inc.
 340 Quinnipiac St., Bldg. 40, Wallingford CT 06492
  
  
 ---------------------------------------------------------------
 Warning -- This program may not be used in any manner that
 competes with the business of Gaussian, Inc. or will provide
 assistance to any competitor of Gaussian, Inc.  The licensee
 of this program is prohibited from giving any competitor of
 Gaussian, Inc. access to this program.  By using this program,
 the user acknowledges that Gaussian, Inc. is engaged in the
 business of creating and licensing software in the field of
 computational chemistry and represents and warrants to the
 licensee that it is not a competitor of Gaussian, Inc. and that
 it will not use this program in any manner prohibited above.
 ---------------------------------------------------------------
  

 Cite this work as:
 Gaussian 16, Revision C.02,
 M. J. Frisch, G. W. Trucks, H. B. Schlegel, G. E. Scuseria, 
 M. A. Robb, J. R. Cheeseman, G. Scalmani, V. Barone, 
 G. A. Petersson, H. Nakatsuji, X. Li, M. Caricato, A. V. Marenich, 
 J. Bloino, B. G. Janesko, R. Gomperts, B. Mennucci, H. P. Hratchian, 
 J. V. Ortiz, A. F. Izmaylov, J. L. Sonnenberg, D. Williams-Young, 
 F. Ding, F. Lipparini, F. Egidi, J. Goings, B. Peng, A. Petrone, 
 T. Henderson, D. Ranasinghe, V. G. Zakrzewski, J. Gao, N. Rega, 
 G. Zheng, W. Liang, M. Hada, M. Ehara, K. Toyota, R. Fukuda, 
 J. Hasegawa, M. Ishida, T. Nakajima, Y. Honda, O. Kitao, H. Nakai, 
 T. Vreven, K. Throssell, J. A. Montgomery, Jr., J. E. Peralta, 
 F. Ogliaro, M. J. Bearpark, J. J. Heyd, E. N. Brothers, K. N. Kudin, 
 V. N. Staroverov, T. A. Keith, R. Kobayashi, J. Normand, 
 K. Raghavachari, A. P. Rendell, J. C. Burant, S. S. Iyengar, 
 J. Tomasi, M. Cossi, J. M. Millam, M. Klene, C. Adamo, R. Cammi, 
 J. W. Ochterski, R. L. Martin, K. Morokuma, O. Farkas, 
 J. B. Foresman, and D. J. Fox, Gaussian, Inc., Wallingford CT, 2019.
 
 ******************************************
 Gaussian 16:  ES64L-G16RevC.02  7-Dec-2021
                 2-Jul-2023 
 ******************************************
 %mem=8GB
 %NPROCS=4
 Will use up to    4 processors via shared memory.
 %NoSave
 ---------------------------------------------------------
 #MP2/6-31G* SCF=Tight Opt=(ModRedun, MaxCycle=20 ) NoSymm
 ---------------------------------------------------------
 1/6=20,18=120,19=15,38=1/1,3;
 2/9=110,12=2,15=1,17=6,18=5,40=1/2;
 3/5=1,6=6,7=1,11=9,25=1,30=1,71=1/1,2,3;
 4//1;
 5/5=2,32=2,38=5/2;
 8/6=4,10=2/1;
 9/15=2,16=-3/6;
 10/5=1,31=1/2;
 6/7=2,8=2,9=2,10=2/1;
 7/12=2,30=1/1,2,3,16;
 1/6=20,18=20,19=15/3(2);
 2/9=110,15=1/2;
 99//99;
 2/9=110,15=1/2;
 3/5=1,6=6,7=1,11=9,25=1,30=1,71=1/1,2,3;
 4/5=5,16=3,69=1/1;
 5/5=2,32=2,38=5/2;
 8/6=4,10=2/1;
 9/15=2,16=-3/6;
 10/5=1,31=1/2;
 7/12=2,30=1/1,2,3,16;
 1/6=20,18=20,19=15/3(-8);
 2/9=110,15=1/2;
 6/7=2,8=2,9=2,10=2/1;
 99/9=10/99;
 --------
 MolName:
 --------
 Symbolic Z-matrix:
 Charge =  0 Multiplicity = 1
 8                    0    -3.62242  -1.43944  -0.19932 
 7                    0    -3.25899  -0.27539  -0.04004 
 8                    0    -4.03662   0.66858   0.10513 
 6                    0    -1.75705   0.00605  -0.04297 
 6                    0    -1.36817   1.31444   0.26673 
 7                    0    -0.0809    1.76492   0.40486 
 6                    0     1.19906   0.99436   0.3689 
 1                    0     1.8672    1.49355   1.11783 
 6                    0     1.95662   1.04795  -0.98159 
 6                    0     3.36973   0.46161  -0.79979 
 6                    0     3.31093  -0.95524  -0.20717 
 6                    0     2.4688   -0.99091   1.08642 
 6                    0     1.03065  -0.45542   0.84625 
 1                    0     0.48476  -0.49646   1.8179 
 7                    0     0.37145  -1.3235   -0.13217 
 6                    0    -0.87098  -1.12426  -0.42717 
 1                    0    -2.15617   2.05842   0.47007 
 1                    0     0.15276   2.74938   0.2549 
 1                    0     1.40359   0.47256  -1.75415 
 1                    0     2.04084   2.09858  -1.33193 
 1                    0     3.89975   0.43917  -1.7771 
 1                    0     3.95      1.11457  -0.11018 
 1                    0     2.86061  -1.64366  -0.95752 
 1                    0     4.34003  -1.31902   0.0046 
 1                    0     2.4124   -2.03774   1.45748 
 1                    0     2.96608  -0.38057   1.86913 
 1                    0    -1.37296  -1.87952  -1.05108 
 
 The following ModRedundant input section has been read:
 D       5       6       7       8 F                                           
 D       1       2       4      16 F                                           
 D       7      13      15      16 F                                           
 D       7       9      10      11 F                                           
 D       9      10      11      12 F                                           
 D       6       7      13      15 F                                           
 

 GradGradGradGradGradGradGradGradGradGradGradGradGradGradGradGradGradGrad
 Berny optimization.
 Initialization pass.
                           ----------------------------
                           !    Initial Parameters    !
                           ! (Angstroms and Degrees)  !
 --------------------------                            --------------------------
 ! Name  Definition              Value          Derivative Info.                !
 --------------------------------------------------------------------------------
 ! R1    R(1,2)                  1.2298         estimate D2E/DX2                !
 ! R2    R(2,3)                  1.2316         estimate D2E/DX2                !
 ! R3    R(2,4)                  1.5281         estimate D2E/DX2                !
 ! R4    R(4,5)                  1.3997         estimate D2E/DX2                !
 ! R5    R(4,16)                 1.4867         estimate D2E/DX2                !
 ! R6    R(5,6)                  1.3708         estimate D2E/DX2                !
 ! R7    R(5,17)                 1.1026         estimate D2E/DX2                !
 ! R8    R(6,7)                  1.4944         estimate D2E/DX2                !
 ! R9    R(6,18)                 1.0229         estimate D2E/DX2                !
 ! R10   R(7,8)                  1.1209         estimate D2E/DX2                !
 ! R11   R(7,9)                  1.5494         estimate D2E/DX2                !
 ! R12   R(7,13)                 1.5356         estimate D2E/DX2                !
 ! R13   R(9,10)                 1.5407         estimate D2E/DX2                !
 ! R14   R(9,19)                 1.1107         estimate D2E/DX2                !
 ! R15   R(9,20)                 1.1107         estimate D2E/DX2                !
 ! R16   R(10,11)                1.5369         estimate D2E/DX2                !
 ! R17   R(10,21)                1.112          estimate D2E/DX2                !
 ! R18   R(10,22)                1.1129         estimate D2E/DX2                !
 ! R19   R(11,12)                1.544          estimate D2E/DX2                !
 ! R20   R(11,23)                1.1134         estimate D2E/DX2                !
 ! R21   R(11,24)                1.1119         estimate D2E/DX2                !
 ! R22   R(12,13)                1.5533         estimate D2E/DX2                !
 ! R23   R(12,25)                1.1121         estimate D2E/DX2                !
 ! R24   R(12,26)                1.1102         estimate D2E/DX2                !
 ! R25   R(13,14)                1.1153         estimate D2E/DX2                !
 ! R26   R(13,15)                1.4647         estimate D2E/DX2                !
 ! R27   R(15,16)                1.2924         estimate D2E/DX2                !
 ! R28   R(16,27)                1.1008         estimate D2E/DX2                !
 ! A1    A(1,2,3)              123.6516         estimate D2E/DX2                !
 ! A2    A(1,2,4)              117.6803         estimate D2E/DX2                !
 ! A3    A(3,2,4)              118.6627         estimate D2E/DX2                !
 ! A4    A(2,4,5)              116.4126         estimate D2E/DX2                !
 ! A5    A(2,4,16)             116.5042         estimate D2E/DX2                !
 ! A6    A(5,4,16)             127.0341         estimate D2E/DX2                !
 ! A7    A(4,5,6)              126.1859         estimate D2E/DX2                !
 ! A8    A(4,5,17)             118.228          estimate D2E/DX2                !
 ! A9    A(6,5,17)             115.5178         estimate D2E/DX2                !
 ! A10   A(5,6,7)              129.2292         estimate D2E/DX2                !
 ! A11   A(5,6,18)             121.0666         estimate D2E/DX2                !
 ! A12   A(7,6,18)             107.2823         estimate D2E/DX2                !
 ! A13   A(6,7,8)              105.3558         estimate D2E/DX2                !
 ! A14   A(6,7,9)              114.9552         estimate D2E/DX2                !
 ! A15   A(6,7,13)             112.6679         estimate D2E/DX2                !
 ! A16   A(8,7,9)              105.9931         estimate D2E/DX2                !
 ! A17   A(8,7,13)             106.1481         estimate D2E/DX2                !
 ! A18   A(9,7,13)             110.93           estimate D2E/DX2                !
 ! A19   A(7,9,10)             109.4169         estimate D2E/DX2                !
 ! A20   A(7,9,19)             110.175          estimate D2E/DX2                !
 ! A21   A(7,9,20)             110.1649         estimate D2E/DX2                !
 ! A22   A(10,9,19)            109.9738         estimate D2E/DX2                !
 ! A23   A(10,9,20)            109.1268         estimate D2E/DX2                !
 ! A24   A(19,9,20)            107.961          estimate D2E/DX2                !
 ! A25   A(9,10,11)            111.1768         estimate D2E/DX2                !
 ! A26   A(9,10,21)            109.9463         estimate D2E/DX2                !
 ! A27   A(9,10,22)            109.1503         estimate D2E/DX2                !
 ! A28   A(11,10,21)           109.7864         estimate D2E/DX2                !
 ! A29   A(11,10,22)           108.7772         estimate D2E/DX2                !
 ! A30   A(21,10,22)           107.933          estimate D2E/DX2                !
 ! A31   A(10,11,12)           111.4215         estimate D2E/DX2                !
 ! A32   A(10,11,23)           109.0022         estimate D2E/DX2                !
 ! A33   A(10,11,24)           109.8557         estimate D2E/DX2                !
 ! A34   A(12,11,23)           109.2531         estimate D2E/DX2                !
 ! A35   A(12,11,24)           109.7367         estimate D2E/DX2                !
 ! A36   A(23,11,24)           107.4818         estimate D2E/DX2                !
 ! A37   A(11,12,13)           111.561          estimate D2E/DX2                !
 ! A38   A(11,12,25)           109.2059         estimate D2E/DX2                !
 ! A39   A(11,12,26)           109.493          estimate D2E/DX2                !
 ! A40   A(13,12,25)           109.2174         estimate D2E/DX2                !
 ! A41   A(13,12,26)           109.5248         estimate D2E/DX2                !
 ! A42   A(25,12,26)           107.7577         estimate D2E/DX2                !
 ! A43   A(7,13,12)            105.7834         estimate D2E/DX2                !
 ! A44   A(7,13,14)            111.0542         estimate D2E/DX2                !
 ! A45   A(7,13,15)            113.6559         estimate D2E/DX2                !
 ! A46   A(12,13,14)           107.8061         estimate D2E/DX2                !
 ! A47   A(12,13,15)           108.4006         estimate D2E/DX2                !
 ! A48   A(14,13,15)           109.8696         estimate D2E/DX2                !
 ! A49   A(13,15,16)           119.5873         estimate D2E/DX2                !
 ! A50   A(4,16,15)            129.1354         estimate D2E/DX2                !
 ! A51   A(4,16,27)            113.3488         estimate D2E/DX2                !
 ! A52   A(15,16,27)           117.5158         estimate D2E/DX2                !
 ! D1    D(1,2,4,5)           -174.1082         estimate D2E/DX2                !
 ! D2    D(1,2,4,16)             8.2591         Frozen                          !
 ! D3    D(3,2,4,5)              6.7005         estimate D2E/DX2                !
 ! D4    D(3,2,4,16)          -170.9322         estimate D2E/DX2                !
 ! D5    D(2,4,5,6)            175.5779         estimate D2E/DX2                !
 ! D6    D(2,4,5,17)            -1.2711         estimate D2E/DX2                !
 ! D7    D(16,4,5,6)            -7.0762         estimate D2E/DX2                !
 ! D8    D(16,4,5,17)          176.0748         estimate D2E/DX2                !
 ! D9    D(2,4,16,15)         -156.0518         estimate D2E/DX2                !
 ! D10   D(2,4,16,27)           24.0353         estimate D2E/DX2                !
 ! D11   D(5,4,16,15)           26.6044         estimate D2E/DX2                !
 ! D12   D(5,4,16,27)         -153.3085         estimate D2E/DX2                !
 ! D13   D(4,5,6,7)             -5.0818         estimate D2E/DX2                !
 ! D14   D(4,5,6,18)           154.9006         estimate D2E/DX2                !
 ! D15   D(17,5,6,7)           171.8419         estimate D2E/DX2                !
 ! D16   D(17,5,6,18)          -28.1757         estimate D2E/DX2                !
 ! D17   D(5,6,7,8)           -144.2129         Frozen                          !
 ! D18   D(5,6,7,9)             99.4956         estimate D2E/DX2                !
 ! D19   D(5,6,7,13)           -28.9194         estimate D2E/DX2                !
 ! D20   D(18,6,7,8)            53.6701         estimate D2E/DX2                !
 ! D21   D(18,6,7,9)           -62.6214         estimate D2E/DX2                !
 ! D22   D(18,6,7,13)          168.9636         estimate D2E/DX2                !
 ! D23   D(6,7,9,10)           168.7656         estimate D2E/DX2                !
 ! D24   D(6,7,9,19)           -70.2115         estimate D2E/DX2                !
 ! D25   D(6,7,9,20)            48.7953         estimate D2E/DX2                !
 ! D26   D(8,7,9,10)            52.839          estimate D2E/DX2                !
 ! D27   D(8,7,9,19)           173.8619         estimate D2E/DX2                !
 ! D28   D(8,7,9,20)           -67.1313         estimate D2E/DX2                !
 ! D29   D(13,7,9,10)          -61.9563         estimate D2E/DX2                !
 ! D30   D(13,7,9,19)           59.0666         estimate D2E/DX2                !
 ! D31   D(13,7,9,20)          178.0734         estimate D2E/DX2                !
 ! D32   D(6,7,13,12)         -166.1654         estimate D2E/DX2                !
 ! D33   D(6,7,13,14)          -49.4653         estimate D2E/DX2                !
 ! D34   D(6,7,13,15)           75.0226         Frozen                          !
 ! D35   D(8,7,13,12)          -51.35           estimate D2E/DX2                !
 ! D36   D(8,7,13,14)           65.3501         estimate D2E/DX2                !
 ! D37   D(8,7,13,15)         -170.162          estimate D2E/DX2                !
 ! D38   D(9,7,13,12)           63.3484         estimate D2E/DX2                !
 ! D39   D(9,7,13,14)         -179.9515         estimate D2E/DX2                !
 ! D40   D(9,7,13,15)          -55.4636         estimate D2E/DX2                !
 ! D41   D(7,9,10,11)           54.8126         Frozen                          !
 ! D42   D(7,9,10,21)          176.6016         estimate D2E/DX2                !
 ! D43   D(7,9,10,22)          -65.1844         estimate D2E/DX2                !
 ! D44   D(19,9,10,11)         -66.3323         estimate D2E/DX2                !
 ! D45   D(19,9,10,21)          55.4567         estimate D2E/DX2                !
 ! D46   D(19,9,10,22)         173.6707         estimate D2E/DX2                !
 ! D47   D(20,9,10,11)         175.4175         estimate D2E/DX2                !
 ! D48   D(20,9,10,21)         -62.7936         estimate D2E/DX2                !
 ! D49   D(20,9,10,22)          55.4204         estimate D2E/DX2                !
 ! D50   D(9,10,11,12)         -52.8229         Frozen                          !
 ! D51   D(9,10,11,23)          67.8232         estimate D2E/DX2                !
 ! D52   D(9,10,11,24)        -174.6504         estimate D2E/DX2                !
 ! D53   D(21,10,11,12)       -174.7049         estimate D2E/DX2                !
 ! D54   D(21,10,11,23)        -54.0588         estimate D2E/DX2                !
 ! D55   D(21,10,11,24)         63.4676         estimate D2E/DX2                !
 ! D56   D(22,10,11,12)         67.3952         estimate D2E/DX2                !
 ! D57   D(22,10,11,23)       -171.9587         estimate D2E/DX2                !
 ! D58   D(22,10,11,24)        -54.4323         estimate D2E/DX2                !
 ! D59   D(10,11,12,13)         56.6291         estimate D2E/DX2                !
 ! D60   D(10,11,12,25)        177.4546         estimate D2E/DX2                !
 ! D61   D(10,11,12,26)        -64.7759         estimate D2E/DX2                !
 ! D62   D(23,11,12,13)        -63.8697         estimate D2E/DX2                !
 ! D63   D(23,11,12,25)         56.9558         estimate D2E/DX2                !
 ! D64   D(23,11,12,26)        174.7254         estimate D2E/DX2                !
 ! D65   D(24,11,12,13)        178.5255         estimate D2E/DX2                !
 ! D66   D(24,11,12,25)        -60.649          estimate D2E/DX2                !
 ! D67   D(24,11,12,26)         57.1206         estimate D2E/DX2                !
 ! D68   D(11,12,13,7)         -60.402          estimate D2E/DX2                !
 ! D69   D(11,12,13,14)       -179.2767         estimate D2E/DX2                !
 ! D70   D(11,12,13,15)         61.8377         estimate D2E/DX2                !
 ! D71   D(25,12,13,7)         178.7792         estimate D2E/DX2                !
 ! D72   D(25,12,13,14)         59.9045         estimate D2E/DX2                !
 ! D73   D(25,12,13,15)        -58.9811         estimate D2E/DX2                !
 ! D74   D(26,12,13,7)          60.9845         estimate D2E/DX2                !
 ! D75   D(26,12,13,14)        -57.8902         estimate D2E/DX2                !
 ! D76   D(26,12,13,15)       -176.7758         estimate D2E/DX2                !
 ! D77   D(7,13,15,16)         -67.1598         Frozen                          !
 ! D78   D(12,13,15,16)        175.5382         estimate D2E/DX2                !
 ! D79   D(14,13,15,16)         57.9639         estimate D2E/DX2                !
 ! D80   D(13,15,16,4)           8.7795         estimate D2E/DX2                !
 ! D81   D(13,15,16,27)       -171.3107         estimate D2E/DX2                !
 --------------------------------------------------------------------------------
 Trust Radius=3.00D-01 FncErr=1.00D-07 GrdErr=1.00D-07 EigMax=2.50D+02 EigMin=1.00D-04
 Number of steps in this run=     20 maximum allowed number of steps=    162.
 GradGradGradGradGradGradGradGradGradGradGradGradGradGradGradGradGradGrad

                          Input orientation:                          
 ---------------------------------------------------------------------
 Center     Atomic      Atomic             Coordinates (Angstroms)
 Number     Number       Type             X           Y           Z
 ---------------------------------------------------------------------
      1          8           0       -3.622420   -1.439440   -0.199320
      2          7           0       -3.258990   -0.275390   -0.040040
      3          8           0       -4.036620    0.668580    0.105130
      4          6           0       -1.757050    0.006050   -0.042970
      5          6           0       -1.368170    1.314440    0.266730
      6          7           0       -0.080900    1.764920    0.404860
      7          6           0        1.199060    0.994360    0.368900
      8          1           0        1.867200    1.493550    1.117830
      9          6           0        1.956620    1.047950   -0.981590
     10          6           0        3.369730    0.461610   -0.799790
     11          6           0        3.310930   -0.955240   -0.207170
     12          6           0        2.468800   -0.990910    1.086420
     13          6           0        1.030650   -0.455420    0.846250
     14          1           0        0.484760   -0.496460    1.817900
     15          7           0        0.371450   -1.323500   -0.132170
     16          6           0       -0.870980   -1.124260   -0.427170
     17          1           0       -2.156170    2.058420    0.470070
     18          1           0        0.152760    2.749380    0.254900
     19          1           0        1.403590    0.472560   -1.754150
     20          1           0        2.040840    2.098580   -1.331930
     21          1           0        3.899750    0.439170   -1.777100
     22          1           0        3.950000    1.114570   -0.110180
     23          1           0        2.860610   -1.643660   -0.957520
     24          1           0        4.340030   -1.319020    0.004600
     25          1           0        2.412400   -2.037740    1.457480
     26          1           0        2.966080   -0.380570    1.869130
     27          1           0       -1.372960   -1.879520   -1.051080
 ---------------------------------------------------------------------
                    Distance matrix (angstroms):
                    1          2          3          4          5
     1  O    0.000000
     2  N    1.229823   0.000000
     3  O    2.169793   1.231610   0.000000
     4  C    2.365056   1.528084   2.378512   0.000000
     5  C    3.589248   2.489351   2.750250   1.399652   0.000000
     6  N    4.814075   3.802770   4.115765   2.470557   1.370794
     7  C    5.430739   4.653354   5.252433   3.144039   2.589123
     8  H    6.361858   5.545055   6.046588   4.085988   3.350234
     9  C    6.158307   5.462631   6.102770   3.969623   3.561397
    10  C    7.270813   6.712698   7.464297   5.202325   4.930769
    11  C    6.950241   6.607116   7.531322   5.160955   5.222069
    12  C    6.241576   5.881195   6.785081   4.486341   4.550700
    13  C    4.869556   4.383940   5.243077   2.962252   3.036871
    14  H    4.671971   4.185269   4.973306   2.956529   3.019741
    15  N    3.996117   3.779830   4.843116   2.511209   3.184985
    16  C    2.778790   2.563794   3.676805   1.486718   2.583787
    17  H    3.851363   2.631177   2.366628   2.152842   1.102632
    18  H    5.657253   4.569055   4.680071   3.355884   2.091033
    19  H    5.597680   5.023669   5.752498   3.624281   3.532049
    20  H    6.772954   5.949194   6.406681   4.523723   3.846029
    21  H    7.912118   7.401049   8.159742   5.932469   5.717895
    22  H    7.992025   7.342101   8.001960   5.814100   5.335255
    23  H    6.530410   6.337463   7.351698   4.988059   5.303935
    24  H    7.965971   7.670480   8.609816   6.239588   6.291850
    25  H    6.286653   6.124795   7.123404   4.879830   5.191118
    26  H    6.986274   6.512103   7.297275   5.110143   4.922039
    27  H    2.445248   2.674424   3.863252   2.172369   3.455145
                    6          7          8          9         10
     6  N    0.000000
     7  C    1.494441   0.000000
     8  H    2.092143   1.120936   0.000000
     9  C    2.566667   1.549384   2.148050   0.000000
    10  C    3.880289   2.522195   2.645707   1.540690   0.000000
    11  C    4.390713   2.931346   3.136328   2.539026   1.536919
    12  C    3.815769   2.463407   2.556453   2.948889   2.545442
    13  C    2.521959   1.535606   2.138237   2.541366   3.003612
    14  H    2.725893   2.198265   2.522177   3.519761   4.011639
    15  N    3.167232   2.511670   3.425717   2.976248   3.552748
    16  C    3.108675   3.067139   4.091159   3.608490   4.542846
    17  H    2.096936   3.521367   4.114144   4.476986   5.890494
    18  H    1.022862   2.046420   2.293700   2.770863   4.085971
    19  H    2.921511   2.195780   3.083119   1.110750   2.185550
    20  H    2.762164   2.195613   2.529335   1.110700   2.174579
    21  H    4.729074   3.493892   3.691016   2.186139   1.112007
    22  H    4.115383   2.794931   2.447384   2.176547   1.112938
    23  H    4.703932   3.388110   3.890505   2.839462   2.171691
    24  H    5.405138   3.917925   3.907009   3.500823   2.181552
    25  H    4.667417   3.442504   3.589236   3.959581   3.501214
    26  H    4.003911   2.695085   2.298764   3.344590   2.827602
    27  H    4.131722   4.109844   5.155619   4.434074   5.295011
                   11         12         13         14         15
    11  C    0.000000
    12  C    1.543966   0.000000
    13  C    2.561092   1.553289   0.000000
    14  H    3.506939   2.171626   1.115251   0.000000
    15  N    2.963407   2.448358   1.464723   2.121228   0.000000
    16  C    4.191102   3.669178   2.384354   2.696758   1.292422
    17  H    6.279330   5.573926   4.076362   3.913894   4.264849
    18  H    4.889965   4.477191   3.375075   3.617827   4.097072
    19  H    2.840723   3.368272   2.786092   3.813501   2.630962
    20  H    3.493427   3.946709   3.505406   4.367728   3.992107
    21  H    2.180772   3.506065   3.989234   5.045947   4.273371
    22  H    2.168394   2.838812   3.449961   4.280280   4.330207
    23  H    1.113434   2.181121   2.830946   3.829319   2.641898
    24  H    1.111858   2.186205   3.522240   4.339098   3.970939
    25  H    2.179500   1.112079   2.187824   2.494242   2.683767
    26  H    2.181786   1.110152   2.190382   2.484553   3.409754
    27  H    4.848227   4.485271   3.377168   3.687143   2.048541
                   16         17         18         19         20
    16  C    0.000000
    17  H    3.547704   0.000000
    18  H    4.064277   2.419686   0.000000
    19  H    3.079672   4.487092   3.284017   0.000000
    20  H    4.436664   4.567681   2.550768   1.796747   0.000000
    21  H    5.198701   6.659273   4.848302   2.496489   2.531277
    22  H    5.324912   6.205873   4.150291   3.098228   2.471000
    23  H    3.804709   6.396209   5.301058   2.689965   3.849229
    24  H    5.232493   7.336510   5.843608   3.863372   4.330425
    25  H    3.894475   6.214929   5.428507   4.199270   5.002800
    26  H    4.533111   5.843243   4.507449   4.036999   4.153196
    27  H    1.100757   4.293563   5.045802   3.706186   5.249589
                   21         22         23         24         25
    21  H    0.000000
    22  H    1.799253   0.000000
    23  H    2.467733   3.084248   0.000000
    24  H    2.541561   2.467318   1.794366   0.000000
    25  H    4.337027   3.841722   2.487653   2.518566   0.000000
    26  H    3.852104   2.668560   3.097817   2.498980   1.795057
    27  H    5.805592   6.179302   4.241167   5.836684   4.543881
                   26         27
    26  H    0.000000
    27  H    5.440749   0.000000
 Symmetry turned off by external request.
 Stoichiometry    C9H13N3O2
 Framework group  C1[X(C9H13N3O2)]
 Deg. of freedom    75
 Full point group                 C1      NOp   1
 Rotational constants (GHZ):           1.6740187           0.4000158           0.3551106
 Standard basis: 6-31G(d) (6D, 7F)
   236 basis functions,   444 primitive gaussians,   236 cartesian basis functions
    52 alpha electrons       52 beta electrons
       nuclear repulsion energy       917.3708800135 Hartrees.
 NAtoms=   27 NActive=   27 NUniq=   27 SFac= 1.00D+00 NAtFMM=   60 NAOKFM=F Big=F
 Integral buffers will be    131072 words long.
 Raffenetti 1 integral format.
 Two-electron integral symmetry is turned off.
 One-electron integrals computed using PRISM.
 NBasis=   236 RedAO= T EigKep=  1.27D-03  NBF=   236
 NBsUse=   236 1.00D-06 EigRej= -1.00D+00 NBFU=   236
 ExpMin= 1.61D-01 ExpMax= 5.48D+03 ExpMxC= 8.25D+02 IAcc=3 IRadAn=         5 AccDes= 0.00D+00
 Harris functional with IExCor=  205 and IRadAn=       5 diagonalized for initial guess.
 HarFok:  IExCor=  205 AccDes= 0.00D+00 IRadAn=         5 IDoV= 1 UseB2=F ITyADJ=14
 ICtDFT=  3500011 ScaDFX=  1.000000  1.000000  1.000000  1.000000
 FoFCou: FMM=F IPFlag=           0 FMFlag=      100000 FMFlg1=           0
         NFxFlg=           0 DoJE=T BraDBF=F KetDBF=T FulRan=T
         wScrn=  0.000000 ICntrl=       500 IOpCl=  0 I1Cent=   200000004 NGrid=           0
         NMat0=    1 NMatS0=      1 NMatT0=    0 NMatD0=    1 NMtDS0=    0 NMtDT0=    0
 Symmetry not used in FoFCou.
 Keep R1 ints in memory in canonical form, NReq=397720213.
 Requested convergence on RMS density matrix=1.00D-08 within 128 cycles.
 Requested convergence on MAX density matrix=1.00D-06.
 Requested convergence on             energy=1.00D-06.
 No special actions if energy rises.
 SCF Done:  E(RHF) =  -661.281404472     A.U. after   16 cycles
            NFock= 16  Conv=0.78D-08     -V/T= 2.0037
 ExpMin= 1.61D-01 ExpMax= 5.48D+03 ExpMxC= 8.25D+02 IAcc=3 IRadAn=         5 AccDes= 0.00D+00
 HarFok:  IExCor=  205 AccDes= 0.00D+00 IRadAn=         5 IDoV=-2 UseB2=F ITyADJ=14
 ICtDFT= 12500011 ScaDFX=  1.000000  1.000000  1.000000  1.000000
 Range of M.O.s used for correlation:    15   236
 NBasis=   236 NAE=    52 NBE=    52 NFC=    14 NFV=     0
 NROrb=    222 NOA=    38 NOB=    38 NVA=   184 NVB=   184
 Fully direct method using O(ONN) memory.
 JobTyp=1 Pass  1:  I=  15 to  52 NPSUse=  4 ParTrn=T ParDer=T DoDerP=T.
 Spin components of T(2) and E(2):
     alpha-alpha T2 =       0.9198138010D-01 E2=     -0.2717723499D+00
     alpha-beta  T2 =       0.4996311921D+00 E2=     -0.1493706391D+01
     beta-beta   T2 =       0.9198138010D-01 E2=     -0.2717723499D+00
 ANorm=    0.1297533796D+01
 E2 =    -0.2037251091D+01 EUMP2 =    -0.66331865556338D+03
          IDoAtm=111111111111111111111111111
          Differentiating once with respect to electric field.
                with respect to dipole field.
          Differentiating once with respect to nuclear coordinates.
 Keep R1 ints in memory in canonical form, NReq=397723379.
          There are     1 degrees of freedom in the 1st order CPHF.  IDoFFX=0 NUNeed=     1.
 LinEq1:  Iter=  0 NonCon=     1 RMS=4.61D-03 Max=1.12D-01 NDo=     1
 AX will form     1 AO Fock derivatives at one time.
 LinEq1:  Iter=  1 NonCon=     1 RMS=1.57D-03 Max=2.88D-02 NDo=     1
 LinEq1:  Iter=  2 NonCon=     1 RMS=6.41D-04 Max=1.80D-02 NDo=     1
 LinEq1:  Iter=  3 NonCon=     1 RMS=2.94D-04 Max=9.12D-03 NDo=     1
 LinEq1:  Iter=  4 NonCon=     1 RMS=9.03D-05 Max=2.11D-03 NDo=     1
 LinEq1:  Iter=  5 NonCon=     1 RMS=3.75D-05 Max=1.87D-03 NDo=     1
 LinEq1:  Iter=  6 NonCon=     1 RMS=1.54D-05 Max=5.82D-04 NDo=     1
 LinEq1:  Iter=  7 NonCon=     1 RMS=5.91D-06 Max=1.00D-04 NDo=     1
 LinEq1:  Iter=  8 NonCon=     1 RMS=2.36D-06 Max=5.93D-05 NDo=     1
 LinEq1:  Iter=  9 NonCon=     1 RMS=8.77D-07 Max=2.51D-05 NDo=     1
 LinEq1:  Iter= 10 NonCon=     1 RMS=4.31D-07 Max=1.50D-05 NDo=     1
 LinEq1:  Iter= 11 NonCon=     1 RMS=1.53D-07 Max=5.72D-06 NDo=     1
 LinEq1:  Iter= 12 NonCon=     1 RMS=5.39D-08 Max=7.74D-07 NDo=     1
 LinEq1:  Iter= 13 NonCon=     1 RMS=1.70D-08 Max=3.21D-07 NDo=     1
 LinEq1:  Iter= 14 NonCon=     1 RMS=5.34D-09 Max=1.37D-07 NDo=     1
 LinEq1:  Iter= 15 NonCon=     1 RMS=1.97D-09 Max=4.68D-08 NDo=     1
 LinEq1:  Iter= 16 NonCon=     1 RMS=7.44D-10 Max=1.30D-08 NDo=     1
 LinEq1:  Iter= 17 NonCon=     1 RMS=2.49D-10 Max=3.78D-09 NDo=     1
 LinEq1:  Iter= 18 NonCon=     1 RMS=8.65D-11 Max=1.06D-09 NDo=     1
 LinEq1:  Iter= 19 NonCon=     0 RMS=2.90D-11 Max=3.87D-10 NDo=     1
 Linear equations converged to 1.000D-10 1.000D-09 after    19 iterations.
 End of Minotr F.D. properties file   721 does not exist.
 End of Minotr F.D. properties file   722 does not exist.
 End of Minotr F.D. properties file   788 does not exist.

 **********************************************************************

            Population analysis using the SCF Density.

 **********************************************************************

 Alpha  occ. eigenvalues --  -20.59821 -20.59388 -15.85278 -15.63426 -15.56779
 Alpha  occ. eigenvalues --  -11.35893 -11.30462 -11.30094 -11.30073 -11.27682
 Alpha  occ. eigenvalues --  -11.24632 -11.23884 -11.23395 -11.22852  -1.58478
 Alpha  occ. eigenvalues --   -1.37979  -1.28628  -1.22711  -1.13285  -1.08375
 Alpha  occ. eigenvalues --   -1.01810  -1.00683  -0.93607  -0.88962  -0.84936
 Alpha  occ. eigenvalues --   -0.81541  -0.78014  -0.76979  -0.74335  -0.71139
 Alpha  occ. eigenvalues --   -0.70321  -0.69776  -0.67397  -0.64353  -0.63262
 Alpha  occ. eigenvalues --   -0.61669  -0.60314  -0.57425  -0.56487  -0.54886
 Alpha  occ. eigenvalues --   -0.53652  -0.50718  -0.49416  -0.48487  -0.47806
 Alpha  occ. eigenvalues --   -0.47694  -0.46163  -0.45680  -0.44009  -0.42095
 Alpha  occ. eigenvalues --   -0.39885  -0.33763
 Alpha virt. eigenvalues --    0.07397   0.11788   0.18073   0.21392   0.23435
 Alpha virt. eigenvalues --    0.24292   0.26305   0.27838   0.28553   0.28873
 Alpha virt. eigenvalues --    0.29910   0.31104   0.31842   0.32289   0.33333
 Alpha virt. eigenvalues --    0.33799   0.34250   0.35468   0.37578   0.38589
 Alpha virt. eigenvalues --    0.40595   0.41679   0.44362   0.45246   0.45634
 Alpha virt. eigenvalues --    0.46162   0.49731   0.53189   0.57567   0.59004
 Alpha virt. eigenvalues --    0.63303   0.69103   0.69205   0.72224   0.74035
 Alpha virt. eigenvalues --    0.74905   0.75671   0.75858   0.77832   0.79201
 Alpha virt. eigenvalues --    0.80563   0.83614   0.84945   0.85373   0.87964
 Alpha virt. eigenvalues --    0.89056   0.90217   0.90743   0.91862   0.93895
 Alpha virt. eigenvalues --    0.95110   0.97208   0.98918   1.00420   1.01960
 Alpha virt. eigenvalues --    1.02764   1.05078   1.06504   1.07017   1.08696
 Alpha virt. eigenvalues --    1.09599   1.10474   1.11405   1.11996   1.13253
 Alpha virt. eigenvalues --    1.13842   1.14141   1.15452   1.16341   1.17228
 Alpha virt. eigenvalues --    1.18005   1.20045   1.21288   1.22355   1.22995
 Alpha virt. eigenvalues --    1.23731   1.24292   1.25559   1.27022   1.27558
 Alpha virt. eigenvalues --    1.29375   1.31298   1.33075   1.36145   1.39633
 Alpha virt. eigenvalues --    1.42864   1.46361   1.47315   1.49553   1.52779
 Alpha virt. eigenvalues --    1.55035   1.55514   1.60280   1.61515   1.65962
 Alpha virt. eigenvalues --    1.68516   1.70324   1.72725   1.73455   1.76839
 Alpha virt. eigenvalues --    1.77808   1.80143   1.84389   1.89170   1.92471
 Alpha virt. eigenvalues --    1.93699   1.96101   1.97465   1.99015   2.00939
 Alpha virt. eigenvalues --    2.02932   2.03741   2.06005   2.08928   2.11894
 Alpha virt. eigenvalues --    2.12963   2.13501   2.17702   2.18831   2.19494
 Alpha virt. eigenvalues --    2.20674   2.22056   2.24066   2.25125   2.26305
 Alpha virt. eigenvalues --    2.29270   2.32203   2.33294   2.35482   2.36023
 Alpha virt. eigenvalues --    2.38692   2.39849   2.41698   2.43280   2.46396
 Alpha virt. eigenvalues --    2.48684   2.50378   2.50645   2.56721   2.57204
 Alpha virt. eigenvalues --    2.60730   2.62949   2.65855   2.68543   2.68859
 Alpha virt. eigenvalues --    2.69624   2.70052   2.74664   2.76989   2.80971
 Alpha virt. eigenvalues --    2.84744   2.86778   2.89959   2.91313   2.95161
 Alpha virt. eigenvalues --    2.97582   2.98416   3.02202   3.03747   3.05701
 Alpha virt. eigenvalues --    3.07084   3.12896   3.19086   3.22740   3.27188
 Alpha virt. eigenvalues --    3.30897   3.33826   3.37321   3.43351   3.60009
 Alpha virt. eigenvalues --    4.10078   4.23302   4.32031   4.36436   4.43211
 Alpha virt. eigenvalues --    4.52600   4.59621   4.60213   4.70830   4.77659
 Alpha virt. eigenvalues --    4.96525   4.99246   5.02909   5.09891
          Condensed to atoms (all electrons):
               1          2          3          4          5          6
     1  O    8.299951   0.313101  -0.089748  -0.079171   0.003525  -0.000013
     2  N    0.313101   5.682009   0.309240   0.265641  -0.046434   0.000835
     3  O   -0.089748   0.309240   8.331096  -0.087596   0.008019   0.000466
     4  C   -0.079171   0.265641  -0.087596   5.246192   0.566925  -0.047800
     5  C    0.003525  -0.046434   0.008019   0.566925   4.671801   0.307974
     6  N   -0.000013   0.000835   0.000466  -0.047800   0.307974   7.186444
     7  C    0.000003  -0.000093   0.000002   0.004314  -0.029152   0.198915
     8  H   -0.000000   0.000002  -0.000000  -0.000194   0.002393  -0.049420
     9  C   -0.000000  -0.000003   0.000000   0.000495   0.001543  -0.056569
    10  C   -0.000000   0.000000  -0.000000  -0.000020  -0.000060   0.003348
    11  C   -0.000000  -0.000000  -0.000000  -0.000014   0.000015  -0.000155
    12  C   -0.000000   0.000001  -0.000000  -0.000117  -0.000133   0.003614
    13  C   -0.000018  -0.000022  -0.000002  -0.010166   0.000454  -0.045015
    14  H   -0.000002  -0.000055   0.000000   0.002884   0.004640  -0.005550
    15  N    0.000199   0.001635  -0.000013  -0.061441  -0.003668   0.001855
    16  C    0.003326  -0.026489   0.001957   0.317885  -0.041418  -0.001110
    17  H    0.000129  -0.004188   0.012114  -0.026690   0.376927  -0.033740
    18  H    0.000000  -0.000035   0.000008   0.001007  -0.024590   0.328573
    19  H    0.000000  -0.000000   0.000000  -0.000804   0.000722   0.000567
    20  H    0.000000  -0.000000   0.000000  -0.000027   0.000027  -0.001605
    21  H   -0.000000  -0.000000   0.000000   0.000000   0.000001  -0.000059
    22  H   -0.000000   0.000000  -0.000000  -0.000000  -0.000002  -0.000097
    23  H    0.000000  -0.000000   0.000000   0.000025  -0.000000  -0.000024
    24  H    0.000000   0.000000   0.000000   0.000000  -0.000000   0.000004
    25  H    0.000000  -0.000000   0.000000   0.000019  -0.000001  -0.000071
    26  H    0.000000  -0.000000   0.000000   0.000006  -0.000001  -0.000067
    27  H    0.005439  -0.000256   0.000005  -0.066417   0.002125   0.000038
               7          8          9         10         11         12
     1  O    0.000003  -0.000000  -0.000000  -0.000000  -0.000000  -0.000000
     2  N   -0.000093   0.000002  -0.000003   0.000000  -0.000000   0.000001
     3  O    0.000002  -0.000000   0.000000  -0.000000  -0.000000  -0.000000
     4  C    0.004314  -0.000194   0.000495  -0.000020  -0.000014  -0.000117
     5  C   -0.029152   0.002393   0.001543  -0.000060   0.000015  -0.000133
     6  N    0.198915  -0.049420  -0.056569   0.003348  -0.000155   0.003614
     7  C    5.006884   0.416330   0.341119  -0.049413  -0.007740  -0.064327
     8  H    0.416330   0.546509  -0.060531   0.001427  -0.000318  -0.002858
     9  C    0.341119  -0.060531   5.181187   0.318031  -0.053084  -0.006149
    10  C   -0.049413   0.001427   0.318031   5.126819   0.332745  -0.060215
    11  C   -0.007740  -0.000318  -0.053084   0.332745   5.124150   0.330625
    12  C   -0.064327  -0.002858  -0.006149  -0.060215   0.330625   5.137228
    13  C    0.331104  -0.039756  -0.050996  -0.001628  -0.047879   0.368397
    14  H   -0.040322  -0.000937   0.003863  -0.000391   0.003956  -0.040728
    15  N   -0.058369   0.004017  -0.012917   0.001452  -0.007792  -0.074296
    16  C   -0.002179   0.000012  -0.000850  -0.000030   0.000004   0.002449
    17  H    0.001417  -0.000020  -0.000065   0.000001   0.000000   0.000001
    18  H   -0.028649  -0.002794   0.000850  -0.000120   0.000011  -0.000138
    19  H   -0.034989   0.004090   0.386143  -0.032587  -0.002250   0.000622
    20  H   -0.041679  -0.001849   0.397178  -0.037344   0.004137  -0.000364
    21  H    0.004048  -0.000081  -0.035824   0.400117  -0.035825   0.004213
    22  H   -0.004250   0.003521  -0.045691   0.395969  -0.045632  -0.001219
    23  H    0.000437   0.000033  -0.002003  -0.040069   0.396679  -0.036568
    24  H   -0.000141  -0.000099   0.004398  -0.038493   0.400298  -0.037888
    25  H    0.004997  -0.000005  -0.000371   0.004097  -0.033895   0.395373
    26  H   -0.004446   0.001581   0.001049  -0.002402  -0.042319   0.394677
    27  H   -0.000401   0.000009  -0.000059   0.000005   0.000005  -0.000019
              13         14         15         16         17         18
     1  O   -0.000018  -0.000002   0.000199   0.003326   0.000129   0.000000
     2  N   -0.000022  -0.000055   0.001635  -0.026489  -0.004188  -0.000035
     3  O   -0.000002   0.000000  -0.000013   0.001957   0.012114   0.000008
     4  C   -0.010166   0.002884  -0.061441   0.317885  -0.026690   0.001007
     5  C    0.000454   0.004640  -0.003668  -0.041418   0.376927  -0.024590
     6  N   -0.045015  -0.005550   0.001855  -0.001110  -0.033740   0.328573
     7  C    0.331104  -0.040322  -0.058369  -0.002179   0.001417  -0.028649
     8  H   -0.039756  -0.000937   0.004017   0.000012  -0.000020  -0.002794
     9  C   -0.050996   0.003863  -0.012917  -0.000850  -0.000065   0.000850
    10  C   -0.001628  -0.000391   0.001452  -0.000030   0.000001  -0.000120
    11  C   -0.047879   0.003956  -0.007792   0.000004   0.000000   0.000011
    12  C    0.368397  -0.040728  -0.074296   0.002449   0.000001  -0.000138
    13  C    5.022727   0.402722   0.240394  -0.069480  -0.000043   0.003721
    14  H    0.402722   0.518888  -0.035739  -0.004860   0.000058   0.000008
    15  N    0.240394  -0.035739   6.938284   0.587881  -0.000056  -0.000119
    16  C   -0.069480  -0.004860   0.587881   4.698822   0.001650  -0.000210
    17  H   -0.000043   0.000058  -0.000056   0.001650   0.385443  -0.001938
    18  H    0.003721   0.000008  -0.000119  -0.000210  -0.001938   0.324896
    19  H   -0.006219   0.000064   0.006932   0.002512   0.000011  -0.000128
    20  H    0.003872  -0.000049   0.000082  -0.000031  -0.000002   0.002807
    21  H   -0.000380   0.000009  -0.000030   0.000002  -0.000000  -0.000000
    22  H    0.000315  -0.000044   0.000003  -0.000001   0.000000   0.000002
    23  H   -0.005899   0.000008   0.006799   0.000067   0.000000   0.000000
    24  H    0.004147  -0.000058   0.000044   0.000005   0.000000  -0.000000
    25  H   -0.034449  -0.002665   0.000817  -0.000062  -0.000000   0.000002
    26  H   -0.044868  -0.000893   0.004193  -0.000052   0.000000  -0.000001
    27  H    0.004867  -0.000172  -0.039886   0.402563  -0.000059   0.000002
              19         20         21         22         23         24
     1  O    0.000000   0.000000  -0.000000  -0.000000   0.000000   0.000000
     2  N   -0.000000  -0.000000  -0.000000   0.000000  -0.000000   0.000000
     3  O    0.000000   0.000000   0.000000  -0.000000   0.000000   0.000000
     4  C   -0.000804  -0.000027   0.000000  -0.000000   0.000025   0.000000
     5  C    0.000722   0.000027   0.000001  -0.000002  -0.000000  -0.000000
     6  N    0.000567  -0.001605  -0.000059  -0.000097  -0.000024   0.000004
     7  C   -0.034989  -0.041679   0.004048  -0.004250   0.000437  -0.000141
     8  H    0.004090  -0.001849  -0.000081   0.003521   0.000033  -0.000099
     9  C    0.386143   0.397178  -0.035824  -0.045691  -0.002003   0.004398
    10  C   -0.032587  -0.037344   0.400117   0.395969  -0.040069  -0.038493
    11  C   -0.002250   0.004137  -0.035825  -0.045632   0.396679   0.400298
    12  C    0.000622  -0.000364   0.004213  -0.001219  -0.036568  -0.037888
    13  C   -0.006219   0.003872  -0.000380   0.000315  -0.005899   0.004147
    14  H    0.000064  -0.000049   0.000009  -0.000044   0.000008  -0.000058
    15  N    0.006932   0.000082  -0.000030   0.000003   0.006799   0.000044
    16  C    0.002512  -0.000031   0.000002  -0.000001   0.000067   0.000005
    17  H    0.000011  -0.000002  -0.000000   0.000000   0.000000   0.000000
    18  H   -0.000128   0.002807  -0.000000   0.000002   0.000000  -0.000000
    19  H    0.506620  -0.024000  -0.002593   0.003755   0.001638  -0.000070
    20  H   -0.024000   0.550046  -0.002618  -0.002965  -0.000049  -0.000090
    21  H   -0.002593  -0.002618   0.526020  -0.024692  -0.002811  -0.002062
    22  H    0.003755  -0.002965  -0.024692   0.568973   0.004059  -0.003598
    23  H    0.001638  -0.000049  -0.002811   0.004059   0.509410  -0.024992
    24  H   -0.000070  -0.000090  -0.002062  -0.003598  -0.024992   0.541092
    25  H   -0.000027   0.000011  -0.000086  -0.000082  -0.002085  -0.002384
    26  H    0.000022  -0.000035  -0.000074   0.002463   0.003817  -0.002762
    27  H    0.000076   0.000000  -0.000000   0.000000  -0.000022  -0.000000
              25         26         27
     1  O    0.000000   0.000000   0.005439
     2  N   -0.000000  -0.000000  -0.000256
     3  O    0.000000   0.000000   0.000005
     4  C    0.000019   0.000006  -0.066417
     5  C   -0.000001  -0.000001   0.002125
     6  N   -0.000071  -0.000067   0.000038
     7  C    0.004997  -0.004446  -0.000401
     8  H   -0.000005   0.001581   0.000009
     9  C   -0.000371   0.001049  -0.000059
    10  C    0.004097  -0.002402   0.000005
    11  C   -0.033895  -0.042319   0.000005
    12  C    0.395373   0.394677  -0.000019
    13  C   -0.034449  -0.044868   0.004867
    14  H   -0.002665  -0.000893  -0.000172
    15  N    0.000817   0.004193  -0.039886
    16  C   -0.000062  -0.000052   0.402563
    17  H   -0.000000   0.000000  -0.000059
    18  H    0.000002  -0.000001   0.000002
    19  H   -0.000027   0.000022   0.000076
    20  H    0.000011  -0.000035   0.000000
    21  H   -0.000086  -0.000074  -0.000000
    22  H   -0.000082   0.002463   0.000000
    23  H   -0.002085   0.003817  -0.000022
    24  H   -0.002384  -0.002762  -0.000000
    25  H    0.510290  -0.023096  -0.000011
    26  H   -0.023096   0.561140   0.000001
    27  H   -0.000011   0.000001   0.451771
 Mulliken charges:
               1
     1  O   -0.456721
     2  N    0.505110
     3  O   -0.485548
     4  C   -0.024935
     5  C    0.198368
     6  N   -0.791340
     7  C    0.056580
     8  H    0.178937
     9  C   -0.310745
    10  C   -0.321241
    11  C   -0.315724
    12  C   -0.312182
    13  C   -0.025901
    14  H    0.195364
    15  N   -0.500260
    16  C    0.127634
    17  H    0.289051
    18  H    0.396833
    19  H    0.189893
    20  H    0.154548
    21  H    0.172724
    22  H    0.149212
    23  H    0.191548
    24  H    0.162649
    25  H    0.183682
    26  H    0.152066
    27  H    0.240397
 Sum of Mulliken charges =  -0.00000
 Mulliken charges with hydrogens summed into heavy atoms:
               1
     1  O   -0.456721
     2  N    0.505110
     3  O   -0.485548
     4  C   -0.024935
     5  C    0.487418
     6  N   -0.394507
     7  C    0.235517
     9  C    0.033696
    10  C    0.000695
    11  C    0.038473
    12  C    0.023566
    13  C    0.169464
    15  N   -0.500260
    16  C    0.368031
 Electronic spatial extent (au):  <R**2>=           3126.8261
 Charge=             -0.0000 electrons
 Dipole moment (field-independent basis, Debye):
    X=              5.3744    Y=              4.5124    Z=              0.5470  Tot=              7.0388
 Quadrupole moment (field-independent basis, Debye-Ang):
   XX=           -105.4980   YY=            -80.1727   ZZ=            -82.3029
   XY=             -1.7892   XZ=              0.7634   YZ=              0.1133
 Traceless Quadrupole moment (field-independent basis, Debye-Ang):
   XX=            -16.1735   YY=              9.1518   ZZ=              7.0217
   XY=             -1.7892   XZ=              0.7634   YZ=              0.1133
 Octapole moment (field-independent basis, Debye-Ang**2):
  XXX=            101.6819  YYY=             36.7182  ZZZ=             -5.0168  XYY=             -1.4701
  XXY=             11.5428  XXZ=              0.5373  XZZ=             -8.1665  YZZ=             -2.8807
  YYZ=              1.1307  XYZ=             -1.2671
 Hexadecapole moment (field-independent basis, Debye-Ang**3):
 XXXX=          -3562.1800 YYYY=           -619.2887 ZZZZ=           -299.4970 XXXY=            -39.0130
 XXXZ=             18.5998 YYYX=            -18.9927 YYYZ=             12.2401 ZZZX=             17.2552
 ZZZY=              8.4314 XXYY=           -656.9181 XXZZ=           -543.8186 YYZZ=           -164.7081
 XXYZ=              2.3345 YYXZ=              8.9060 ZZXY=              2.7636
 N-N= 9.173708800135D+02 E-N=-3.380752517356D+03  KE= 6.588555012876D+02
 Calling FoFJK, ICntrl=  10002127 FMM=F ISym2X=0 I1Cent= 0 IOpClX= 0 NMat=1 NMatS=1 NMatT=0.
 -------------------------------------------------------------------
 Center     Atomic                   Forces (Hartrees/Bohr)
 Number     Number              X              Y              Z
 -------------------------------------------------------------------
      1        8           0.002331722   -0.019224276   -0.002888330
      2        7           0.039412630    0.013627275   -0.001682059
      3        8          -0.005191482    0.015906870    0.003478967
      4        6          -0.003113531    0.008149590    0.009197706
      5        6           0.003397225   -0.016476628   -0.004221001
      6        7           0.014687714   -0.009418539   -0.007015747
      7        6          -0.004793028    0.005336966    0.002383288
      8        1          -0.010460879   -0.001887720   -0.007317061
      9        6          -0.003912195    0.000240181   -0.002129902
     10        6           0.002797742   -0.000922329    0.000926439
     11        6          -0.000937423   -0.004588131   -0.002356875
     12        6           0.000717703   -0.008867441   -0.002940740
     13        6           0.008899637   -0.001824241    0.004500642
     14        1           0.000952385    0.004389143   -0.009880391
     15        7           0.000367849    0.000190164    0.002372052
     16        6          -0.021078176    0.008124672    0.002783902
     17        1           0.007285838   -0.006199646   -0.005643757
     18        1          -0.017724241   -0.001759076    0.005589694
     19        1           0.003128619    0.005842218    0.007677085
     20        1          -0.003227494   -0.007369161    0.002635843
     21        1          -0.004297452    0.002403020    0.009642010
     22        1          -0.004029691   -0.003969381   -0.007368990
     23        1           0.003997032    0.006132142    0.009292413
     24        1          -0.009390555    0.002610231   -0.002082487
     25        1          -0.000788723    0.010594021   -0.002413292
     26        1          -0.004783439   -0.004798268   -0.004340191
     27        1           0.005752210    0.003758346    0.001800781
 -------------------------------------------------------------------
 Cartesian Forces:  Max     0.039412630 RMS     0.008365398

 GradGradGradGradGradGradGradGradGradGradGradGradGradGradGradGradGradGrad
 Berny optimization.
 FormGI is forming the generalized inverse of G from B-inverse, IUseBI=4.
 Internal  Forces:  Max     0.037828434 RMS     0.006903416
 Search for a local minimum.
 Step number   1 out of a maximum of   20
 All quantities printed in internal units (Hartrees-Bohrs-Radians)
 Mixed Optimization -- RFO/linear search
 Second derivative matrix not updated -- first step.
 ITU=  0
     Eigenvalues ---    0.00231   0.00794   0.01058   0.01165   0.01240
     Eigenvalues ---    0.01518   0.01545   0.01941   0.02018   0.02089
     Eigenvalues ---    0.02658   0.03321   0.03836   0.04558   0.04759
     Eigenvalues ---    0.04874   0.05138   0.05286   0.05637   0.06227
     Eigenvalues ---    0.07217   0.07696   0.07720   0.07857   0.07993
     Eigenvalues ---    0.08048   0.08050   0.10456   0.11719   0.12236
     Eigenvalues ---    0.13354   0.15098   0.15435   0.15985   0.16000
     Eigenvalues ---    0.20043   0.21976   0.23185   0.24979   0.25000
     Eigenvalues ---    0.25000   0.25336   0.26197   0.26644   0.27971
     Eigenvalues ---    0.28081   0.28476   0.29601   0.31469   0.31687
     Eigenvalues ---    0.32050   0.32239   0.32291   0.32381   0.32388
     Eigenvalues ---    0.32404   0.32521   0.32526   0.32584   0.33351
     Eigenvalues ---    0.33393   0.33599   0.35379   0.43885   0.44234
     Eigenvalues ---    0.49206   0.67094   0.90419   0.911601000.00000
     Eigenvalues --- 1000.000001000.000001000.000001000.000001000.00000
     Eigenvalues --- 1000.000001000.000001000.000001000.000001000.00000
     Eigenvalues --- 1000.000001000.000001000.000001000.000001000.00000
     Eigenvalues --- 1000.000001000.000001000.000001000.000001000.00000
     Eigenvalues --- 1000.000001000.000001000.000001000.000001000.00000
     Eigenvalues --- 1000.000001000.000001000.000001000.000001000.00000
     Eigenvalues --- 1000.000001000.000001000.000001000.000001000.00000
     Eigenvalues --- 1000.000001000.000001000.000001000.000001000.00000
     Eigenvalues --- 1000.000001000.000001000.000001000.000001000.00000
     Eigenvalues --- 1000.000001000.000001000.000001000.000001000.00000
     Eigenvalues --- 1000.000001000.000001000.000001000.000001000.00000
     Eigenvalues --- 1000.000001000.000001000.000001000.000001000.00000
     Eigenvalues --- 1000.000001000.000001000.000001000.000001000.00000
     Eigenvalues --- 1000.000001000.000001000.000001000.000001000.00000
     Eigenvalues --- 1000.000001000.000001000.000001000.000001000.00000
     Eigenvalues --- 1000.000001000.000001000.000001000.000001000.00000
     Eigenvalues --- 1000.000001000.000001000.000001000.000001000.00000
     Eigenvalues --- 1000.000001000.000001000.000001000.000001000.00000
     Eigenvalues --- 1000.00000
 RFO step:  Lambda=-2.38231088D-02 EMin= 2.30716672D-03
 Linear search not attempted -- first point.
 Iteration  1 RMS(Cart)=  0.05520558 RMS(Int)=  0.00106672
 Iteration  2 RMS(Cart)=  0.00114947 RMS(Int)=  0.00026651
 Iteration  3 RMS(Cart)=  0.00000072 RMS(Int)=  0.00026651
 Iteration  1 RMS(Cart)=  0.00003056 RMS(Int)=  0.00003459
 Iteration  2 RMS(Cart)=  0.00001796 RMS(Int)=  0.00003829
 Iteration  3 RMS(Cart)=  0.00001170 RMS(Int)=  0.00004347
 Iteration  4 RMS(Cart)=  0.00000806 RMS(Int)=  0.00004755
 Iteration  5 RMS(Cart)=  0.00000570 RMS(Int)=  0.00005047
 Iteration  6 RMS(Cart)=  0.00000410 RMS(Int)=  0.00005252
 Iteration  7 RMS(Cart)=  0.00000299 RMS(Int)=  0.00005394
 Iteration  8 RMS(Cart)=  0.00000222 RMS(Int)=  0.00005494
 Iteration  9 RMS(Cart)=  0.00000167 RMS(Int)=  0.00005563
 Iteration 10 RMS(Cart)=  0.00000129 RMS(Int)=  0.00005612
 Iteration 11 RMS(Cart)=  0.00000101 RMS(Int)=  0.00005646
 Iteration 12 RMS(Cart)=  0.00000080 RMS(Int)=  0.00005671
 Variable       Old X    -DE/DX   Delta X   Delta X   Delta X     New X
                                 (Linear)    (Quad)   (Total)
    R1        2.32403   0.01788   0.00000   0.01912   0.01912   2.34314
    R2        2.32740   0.01588   0.00000   0.01711   0.01711   2.34452
    R3        2.88766  -0.03783   0.00000  -0.11828  -0.11828   2.76939
    R4        2.64496  -0.03452   0.00000  -0.07458  -0.07431   2.57065
    R5        2.80949  -0.02207   0.00000  -0.06321  -0.06296   2.74653
    R6        2.59043  -0.02488   0.00000  -0.04814  -0.04803   2.54240
    R7        2.08367  -0.01043   0.00000  -0.02916  -0.02916   2.05452
    R8        2.82408  -0.01938   0.00000  -0.05370  -0.05381   2.77028
    R9        1.93293  -0.00656   0.00000  -0.01418  -0.01418   1.91875
   R10        2.11826  -0.01196   0.00000  -0.03534  -0.03534   2.08292
   R11        2.92791  -0.01295   0.00000  -0.04417  -0.04420   2.88371
   R12        2.90188  -0.00410   0.00000  -0.00744  -0.00749   2.89439
   R13        2.91148  -0.00458   0.00000  -0.01431  -0.01433   2.89715
   R14        2.09901  -0.00992   0.00000  -0.02843  -0.02843   2.07058
   R15        2.09892  -0.00805   0.00000  -0.02305  -0.02305   2.07587
   R16        2.90436  -0.00180   0.00000  -0.00712  -0.00716   2.89720
   R17        2.10139  -0.01057   0.00000  -0.03040  -0.03040   2.07099
   R18        2.10315  -0.00900   0.00000  -0.02594  -0.02594   2.07720
   R19        2.91767  -0.00909   0.00000  -0.02878  -0.02875   2.88892
   R20        2.10409  -0.01167   0.00000  -0.03371  -0.03371   2.07038
   R21        2.10111  -0.00994   0.00000  -0.02858  -0.02858   2.07253
   R22        2.93529  -0.01060   0.00000  -0.03638  -0.03636   2.89893
   R23        2.10152  -0.01074   0.00000  -0.03089  -0.03089   2.07064
   R24        2.09788  -0.00784   0.00000  -0.02242  -0.02242   2.07546
   R25        2.10752  -0.00924   0.00000  -0.02682  -0.02682   2.08070
   R26        2.76793  -0.00534   0.00000  -0.01136  -0.01173   2.75620
   R27        2.44232  -0.00541   0.00000  -0.00738  -0.00744   2.43488
   R28        2.08013  -0.00622   0.00000  -0.01729  -0.01729   2.06283
    A1        2.15813   0.01099   0.00000   0.04025   0.04012   2.19825
    A2        2.05391  -0.00755   0.00000  -0.02745  -0.02758   2.02633
    A3        2.07106  -0.00343   0.00000  -0.01243  -0.01255   2.05850
    A4        2.03178  -0.00773   0.00000  -0.02560  -0.02602   2.00577
    A5        2.03338  -0.00297   0.00000  -0.00816  -0.00862   2.02476
    A6        2.21716   0.01064   0.00000   0.03232   0.03257   2.24974
    A7        2.20236   0.00620   0.00000   0.01886   0.01923   2.22159
    A8        2.06347  -0.00332   0.00000  -0.01022  -0.01052   2.05294
    A9        2.01617  -0.00283   0.00000  -0.00754  -0.00787   2.00830
   A10        2.25547  -0.00579   0.00000  -0.02004  -0.02012   2.23536
   A11        2.11301  -0.01246   0.00000  -0.07052  -0.07111   2.04190
   A12        1.87243   0.01846   0.00000   0.10042   0.10056   1.97299
   A13        1.83880  -0.00182   0.00000  -0.01879  -0.01860   1.82021
   A14        2.00635  -0.00099   0.00000  -0.01173  -0.01176   1.99459
   A15        1.96643   0.00116   0.00000   0.00160   0.00117   1.96759
   A16        1.84993   0.00285   0.00000   0.02844   0.02815   1.87808
   A17        1.85263   0.00076   0.00000   0.01382   0.01375   1.86638
   A18        1.93609  -0.00166   0.00000  -0.00937  -0.00904   1.92706
   A19        1.90969   0.00018   0.00000  -0.00452  -0.00466   1.90503
   A20        1.92292  -0.00074   0.00000  -0.01314  -0.01311   1.90980
   A21        1.92274  -0.00168   0.00000  -0.00711  -0.00711   1.91563
   A22        1.91940  -0.00042   0.00000   0.00566   0.00562   1.92502
   A23        1.90462   0.00306   0.00000   0.02438   0.02440   1.92902
   A24        1.88428  -0.00037   0.00000  -0.00484  -0.00509   1.87918
   A25        1.94040  -0.00083   0.00000   0.00592   0.00581   1.94621
   A26        1.91892  -0.00071   0.00000  -0.00695  -0.00696   1.91196
   A27        1.90503   0.00029   0.00000  -0.00303  -0.00310   1.90194
   A28        1.91613   0.00076   0.00000   0.00703   0.00707   1.92321
   A29        1.89852   0.00172   0.00000   0.01108   0.01111   1.90963
   A30        1.88379  -0.00122   0.00000  -0.01454  -0.01463   1.86916
   A31        1.94467   0.00071   0.00000   0.00501   0.00511   1.94978
   A32        1.90245   0.00058   0.00000   0.00595   0.00591   1.90836
   A33        1.91734   0.00039   0.00000   0.00531   0.00528   1.92262
   A34        1.90683  -0.00118   0.00000  -0.01437  -0.01441   1.89242
   A35        1.91527  -0.00048   0.00000   0.00025   0.00017   1.91544
   A36        1.87591  -0.00005   0.00000  -0.00251  -0.00255   1.87336
   A37        1.94711  -0.00304   0.00000  -0.01781  -0.01781   1.92930
   A38        1.90600   0.00252   0.00000   0.01690   0.01677   1.92277
   A39        1.91101   0.00143   0.00000   0.01291   0.01285   1.92387
   A40        1.90620   0.00026   0.00000  -0.00283  -0.00269   1.90351
   A41        1.91157  -0.00022   0.00000  -0.00484  -0.00478   1.90679
   A42        1.88073  -0.00088   0.00000  -0.00385  -0.00403   1.87670
   A43        1.84627   0.00469   0.00000   0.02382   0.02383   1.87010
   A44        1.93826  -0.00436   0.00000  -0.03075  -0.03117   1.90709
   A45        1.98367   0.00077   0.00000   0.01185   0.01211   1.99579
   A46        1.88157   0.00219   0.00000   0.02951   0.02981   1.91138
   A47        1.89195  -0.00403   0.00000  -0.02856  -0.02864   1.86331
   A48        1.91759   0.00094   0.00000  -0.00360  -0.00348   1.91410
   A49        2.08719  -0.00634   0.00000  -0.01600  -0.01641   2.07079
   A50        2.25384  -0.00512   0.00000  -0.02209  -0.02204   2.23180
   A51        1.97831   0.00547   0.00000   0.02687   0.02641   2.00471
   A52        2.05104  -0.00036   0.00000  -0.00484  -0.00530   2.04574
    D1       -3.03876  -0.00066   0.00000  -0.03395  -0.03329  -3.07205
    D2        0.14415   0.00049   0.00000   0.00000  -0.00000   0.14415
    D3        0.11695  -0.00176   0.00000  -0.06237  -0.06204   0.05491
    D4       -2.98333  -0.00061   0.00000  -0.02842  -0.02875  -3.01208
    D5        3.06441   0.00088   0.00000   0.02347   0.02350   3.08791
    D6       -0.02219  -0.00017   0.00000  -0.00137  -0.00146  -0.02365
    D7       -0.12350  -0.00085   0.00000  -0.01592  -0.01636  -0.13986
    D8        3.07309  -0.00191   0.00000  -0.04076  -0.04132   3.03176
    D9       -2.72362  -0.00189   0.00000  -0.04045  -0.04104  -2.76465
   D10        0.41950   0.00041   0.00000   0.00591   0.00562   0.42511
   D11        0.46433  -0.00005   0.00000  -0.00063  -0.00043   0.46391
   D12       -2.67574   0.00225   0.00000   0.04573   0.04623  -2.62951
   D13       -0.08869  -0.00047   0.00000   0.00683   0.00720  -0.08149
   D14        2.70353   0.00363   0.00000   0.06399   0.06261   2.76614
   D15        2.99921   0.00054   0.00000   0.03097   0.03151   3.03072
   D16       -0.49176   0.00464   0.00000   0.08813   0.08692  -0.40483
   D17       -2.51699  -0.00046   0.00000   0.00000   0.00000  -2.51699
   D18        1.73653  -0.00224   0.00000  -0.01628  -0.01612   1.72041
   D19       -0.50474  -0.00005   0.00000   0.00618   0.00598  -0.49875
   D20        0.93672   0.00018   0.00000  -0.02683  -0.02772   0.90900
   D21       -1.09295  -0.00160   0.00000  -0.04311  -0.04384  -1.13679
   D22        2.94897   0.00059   0.00000  -0.02065  -0.02174   2.92723
   D23        2.94551   0.00227   0.00000   0.02560   0.02546   2.97097
   D24       -1.22542   0.00140   0.00000   0.02141   0.02127  -1.20415
   D25        0.85164  -0.00057   0.00000   0.00280   0.00274   0.85438
   D26        0.92221   0.00317   0.00000   0.03644   0.03651   0.95872
   D27        3.03446   0.00230   0.00000   0.03225   0.03232   3.06679
   D28       -1.17166   0.00033   0.00000   0.01364   0.01379  -1.15787
   D29       -1.08134   0.00152   0.00000   0.00903   0.00900  -1.07234
   D30        1.03091   0.00064   0.00000   0.00483   0.00482   1.03572
   D31        3.10797  -0.00132   0.00000  -0.01378  -0.01371   3.09425
   D32       -2.90013  -0.00088   0.00000  -0.01280  -0.01257  -2.91270
   D33       -0.86333   0.00219   0.00000   0.02019   0.02003  -0.84330
   D34        1.30939   0.00057   0.00000   0.00000  -0.00001   1.30938
   D35       -0.89623  -0.00201   0.00000  -0.02629  -0.02612  -0.92235
   D36        1.14057   0.00105   0.00000   0.00670   0.00648   1.14705
   D37       -2.96989  -0.00057   0.00000  -0.01349  -0.01356  -2.98345
   D38        1.10564   0.00095   0.00000   0.01026   0.01035   1.11598
   D39       -3.14075   0.00402   0.00000   0.04325   0.04295  -3.09780
   D40       -0.96802   0.00239   0.00000   0.02306   0.02291  -0.94512
   D41        0.95666   0.00068   0.00000   0.00000   0.00000   0.95667
   D42        3.08228   0.00061   0.00000   0.00810   0.00805   3.09033
   D43       -1.13768  -0.00112   0.00000  -0.01549  -0.01546  -1.15314
   D44       -1.15772   0.00175   0.00000   0.01557   0.01564  -1.14207
   D45        0.96790   0.00168   0.00000   0.02367   0.02369   0.99159
   D46        3.03113  -0.00005   0.00000   0.00008   0.00018   3.03130
   D47        3.06161   0.00062   0.00000   0.00352   0.00348   3.06510
   D48       -1.09596   0.00055   0.00000   0.01162   0.01153  -1.08442
   D49        0.96727  -0.00118   0.00000  -0.01197  -0.01198   0.95529
   D50       -0.92193  -0.00078   0.00000   0.00000   0.00000  -0.92193
   D51        1.18374  -0.00142   0.00000  -0.01082  -0.01083   1.17291
   D52       -3.04823  -0.00091   0.00000  -0.00731  -0.00734  -3.05556
   D53       -3.04918   0.00015   0.00000   0.00005   0.00007  -3.04911
   D54       -0.94350  -0.00049   0.00000  -0.01077  -0.01077  -0.95427
   D55        1.10772   0.00002   0.00000  -0.00726  -0.00728   1.10044
   D56        1.17627   0.00018   0.00000   0.00708   0.00711   1.18338
   D57       -3.00125  -0.00047   0.00000  -0.00374  -0.00373  -3.00497
   D58       -0.95002   0.00004   0.00000  -0.00023  -0.00024  -0.95026
   D59        0.98836  -0.00090   0.00000  -0.01192  -0.01196   0.97641
   D60        3.09717  -0.00085   0.00000  -0.01560  -0.01574   3.08143
   D61       -1.13055   0.00039   0.00000  -0.00291  -0.00288  -1.13343
   D62       -1.11474  -0.00130   0.00000  -0.01304  -0.01303  -1.12776
   D63        0.99407  -0.00124   0.00000  -0.01672  -0.01681   0.97726
   D64        3.04953  -0.00000   0.00000  -0.00403  -0.00395   3.04559
   D65        3.11586  -0.00026   0.00000  -0.00170  -0.00170   3.11416
   D66       -1.05852  -0.00021   0.00000  -0.00538  -0.00548  -1.06400
   D67        0.99694   0.00103   0.00000   0.00731   0.00738   1.00432
   D68       -1.05421   0.00005   0.00000   0.00026   0.00036  -1.05385
   D69       -3.12897   0.00157   0.00000   0.00883   0.00850  -3.12047
   D70        1.07927   0.00145   0.00000   0.01239   0.01235   1.09162
   D71        3.12029  -0.00134   0.00000  -0.00758  -0.00743   3.11286
   D72        1.04553   0.00019   0.00000   0.00099   0.00071   1.04624
   D73       -1.02941   0.00007   0.00000   0.00455   0.00456  -1.02486
   D74        1.06438  -0.00030   0.00000   0.00155   0.00173   1.06611
   D75       -1.01037   0.00123   0.00000   0.01011   0.00987  -1.00050
   D76       -3.08532   0.00111   0.00000   0.01368   0.01372  -3.07160
   D77       -1.17216   0.00405   0.00000   0.00000  -0.00000  -1.17216
   D78        3.06372   0.00042   0.00000  -0.01781  -0.01766   3.04606
   D79        1.01166  -0.00040   0.00000  -0.03470  -0.03492   0.97674
   D80        0.15323   0.00130   0.00000   0.01197   0.01179   0.16502
   D81       -2.98994  -0.00107   0.00000  -0.03600  -0.03579  -3.02572
         Item               Value     Threshold  Converged?
 Maximum Force            0.037828     0.000450     NO 
 RMS     Force            0.006996     0.000300     NO 
 Maximum Displacement     0.294421     0.001800     NO 
 RMS     Displacement     0.055306     0.001200     NO 
 Predicted change in Energy=-1.328072D-02
 GradGradGradGradGradGradGradGradGradGradGradGradGradGradGradGradGradGrad

                          Input orientation:                          
 ---------------------------------------------------------------------
 Center     Atomic      Atomic             Coordinates (Angstroms)
 Number     Number       Type             X           Y           Z
 ---------------------------------------------------------------------
      1          8           0       -3.484325   -1.418968   -0.238141
      2          7           0       -3.128272   -0.245743   -0.053166
      3          8           0       -3.880819    0.724009    0.127115
      4          6           0       -1.682583   -0.006729   -0.030094
      5          6           0       -1.317444    1.271505    0.258509
      6          7           0       -0.068057    1.749943    0.400549
      7          6           0        1.193990    1.004580    0.373521
      8          1           0        1.828593    1.517114    1.114807
      9          6           0        1.921312    1.050509   -0.967206
     10          6           0        3.322748    0.451853   -0.799884
     11          6           0        3.263504   -0.960569   -0.206550
     12          6           0        2.446825   -0.997593    1.085252
     13          6           0        1.036349   -0.443684    0.846404
     14          1           0        0.470766   -0.457960    1.790987
     15          7           0        0.396355   -1.326340   -0.122408
     16          6           0       -0.844432   -1.131674   -0.410064
     17          1           0       -2.110042    1.997614    0.421493
     18          1           0        0.058578    2.750362    0.281914
     19          1           0        1.351434    0.481973   -1.710559
     20          1           0        1.985660    2.089039   -1.319373
     21          1           0        3.831880    0.433489   -1.770186
     22          1           0        3.912306    1.101809   -0.137887
     23          1           0        2.798011   -1.638866   -0.930125
     24          1           0        4.277169   -1.332825   -0.014890
     25          1           0        2.369545   -2.026535    1.453953
     26          1           0        2.942064   -0.403229    1.864805
     27          1           0       -1.330113   -1.870073   -1.050754
 ---------------------------------------------------------------------
                    Distance matrix (angstroms):
                    1          2          3          4          5
     1  O    0.000000
     2  N    1.239938   0.000000
     3  O    2.209745   1.240665   0.000000
     4  C    2.298691   1.465495   2.321839   0.000000
     5  C    3.490083   2.382914   2.624482   1.360330   0.000000
     6  N    4.703276   3.681512   3.957835   2.424467   1.345379
     7  C    5.304182   4.519659   5.088528   3.075763   2.528196
     8  H    6.219175   5.389094   5.848242   3.995153   3.269728
     9  C    5.987551   5.292828   5.913448   3.870916   3.469979
    10  C    7.081792   6.531453   7.268065   5.084900   4.829431
    11  C    6.763455   6.433451   7.347822   5.040309   5.116983
    12  C    6.091590   5.739598   6.627294   4.390651   4.472363
    13  C    4.750148   4.265263   5.104843   2.889942   2.971167
    14  H    4.547927   4.049569   4.806434   2.856021   2.921854
    15  N    3.883510   3.687204   4.749780   2.464118   3.135442
    16  C    2.661039   2.475514   3.598856   1.453401   2.538897
    17  H    3.741230   2.508932   2.200994   2.098580   1.087203
    18  H    5.495993   4.386905   4.432710   3.275750   2.020149
    19  H    5.400571   4.831593   5.550865   3.502578   3.409325
    20  H    6.587557   5.762532   6.194449   4.417067   3.750809
    21  H    7.701014   7.200918   7.947948   5.799225   5.597625
    22  H    7.815019   7.168878   7.806776   5.704669   5.247496
    23  H    6.324156   6.150665   7.162940   4.852798   5.178811
    24  H    7.765182   7.484902   8.414481   6.105522   6.177133
    25  H    6.123733   5.972321   6.956510   4.764635   5.089208
    26  H    6.837585   6.368075   7.130355   5.013502   4.850600
    27  H    2.346159   2.620496   3.823969   2.153609   3.403504
                    6          7          8          9         10
     6  N    0.000000
     7  C    1.465967   0.000000
     8  H    2.040014   1.102233   0.000000
     9  C    2.513474   1.525994   2.135672   0.000000
    10  C    3.824087   2.492789   2.652041   1.533105   0.000000
    11  C    4.337596   2.912246   3.153389   2.534662   1.533131
    12  C    3.787137   2.466750   2.589756   2.946774   2.534142
    13  C    2.496096   1.531645   2.131764   2.510967   2.956328
    14  H    2.664298   2.161316   2.490348   3.462253   3.959063
    15  N    3.154786   2.513037   3.415734   2.947642   3.490662
    16  C    3.092502   3.054955   4.060342   3.566746   4.474920
    17  H    2.057057   3.450369   4.027954   4.367758   5.778958
    18  H    1.015357   2.084541   2.312481   2.814175   4.136211
    19  H    2.842443   2.154367   3.046619   1.095704   2.171708
    20  H    2.700161   2.160714   2.505394   1.098502   2.176707
    21  H    4.653456   3.446751   3.675675   2.162351   1.095919
    22  H    4.068573   2.767713   2.466492   2.157420   1.099209
    23  H    4.633473   3.355620   3.883520   2.828908   2.159496
    24  H    5.343879   3.888485   3.923505   3.483856   2.170763
    25  H    4.616638   3.425918   3.600707   3.940955   3.482928
    26  H    3.980078   2.694738   2.343081   3.342989   2.824297
    27  H    4.099217   4.082069   5.112740   4.371333   5.206092
                   11         12         13         14         15
    11  C    0.000000
    12  C    1.528753   0.000000
    13  C    2.517161   1.534050   0.000000
    14  H    3.470181   2.166582   1.101056   0.000000
    15  N    2.891611   2.402280   1.458517   2.102547   0.000000
    16  C    4.116532   3.617503   2.364187   2.651088   1.288485
    17  H    6.166059   5.493349   4.005029   3.816534   4.198395
    18  H    4.927592   4.516221   3.387716   3.569389   4.110605
    19  H    2.828247   3.347471   2.737550   3.730936   2.589285
    20  H    3.488749   3.939822   3.465035   4.296097   3.952648
    21  H    2.170578   3.481365   3.928228   4.977321   4.197023
    22  H    2.163114   2.837462   3.410060   4.242362   4.272945
    23  H    1.095597   2.143900   2.772719   3.770287   2.553044
    24  H    1.096734   2.161677   3.469195   4.302939   3.882309
    25  H    2.166267   1.095734   2.156837   2.485836   2.620814
    26  H    2.168977   1.098286   2.161140   2.473006   3.358837
    27  H    4.758276   4.425947   3.351706   3.648660   2.034247
                   16         17         18         19         20
    16  C    0.000000
    17  H    3.476449   0.000000
    18  H    4.045302   2.299788   0.000000
    19  H    3.019433   4.338736   3.284359   0.000000
    20  H    4.382837   4.451264   2.591353   1.771420   0.000000
    21  H    5.115424   6.523525   4.880248   2.481636   2.520438
    22  H    5.262042   6.114250   4.212503   3.068478   2.466273
    23  H    3.714176   6.256185   5.314025   2.683211   3.835194
    24  H    5.140761   7.216559   5.878523   3.837800   4.319937
    25  H    3.821647   6.109537   5.434426   4.164528   4.977615
    26  H    4.476965   5.776761   4.556882   4.012096   4.155129
    27  H    1.091605   4.211270   5.005286   3.627418   5.171177
                   21         22         23         24         25
    21  H    0.000000
    22  H    1.765650   0.000000
    23  H    2.463584   3.062776   0.000000
    24  H    2.529667   2.464893   1.766133   0.000000
    25  H    4.311057   3.834136   2.453100   2.505546   0.000000
    26  H    3.834714   2.686500   3.059278   2.485942   1.769660
    27  H    5.698259   6.094946   4.136353   5.727413   4.470515
                   26         27
    26  H    0.000000
    27  H    5.376207   0.000000
 Symmetry turned off by external request.
 Stoichiometry    C9H13N3O2
 Framework group  C1[X(C9H13N3O2)]
 Deg. of freedom    75
 Full point group                 C1      NOp   1
 Rotational constants (GHZ):           1.6858976           0.4215803           0.3722308
 Standard basis: 6-31G(d) (6D, 7F)
   236 basis functions,   444 primitive gaussians,   236 cartesian basis functions
    52 alpha electrons       52 beta electrons
       nuclear repulsion energy       932.0874531193 Hartrees.
 NAtoms=   27 NActive=   27 NUniq=   27 SFac= 1.00D+00 NAtFMM=   60 NAOKFM=F Big=F
 Integral buffers will be    131072 words long.
 Raffenetti 1 integral format.
 Two-electron integral symmetry is turned off.
 One-electron integrals computed using PRISM.
 NBasis=   236 RedAO= T EigKep=  1.01D-03  NBF=   236
 NBsUse=   236 1.00D-06 EigRej= -1.00D+00 NBFU=   236
 Initial guess from the checkpoint file:  "/home/alexey/tmp/Gau-1512131.chk"
 B after Tr=     0.055853    0.005387    0.000745
         Rot=    0.999999   -0.001030    0.000380    0.001114 Ang=  -0.18 deg.
 ExpMin= 1.61D-01 ExpMax= 5.48D+03 ExpMxC= 8.25D+02 IAcc=3 IRadAn=         5 AccDes= 0.00D+00
 Harris functional with IExCor=  205 and IRadAn=       5 diagonalized for initial guess.
 HarFok:  IExCor=  205 AccDes= 0.00D+00 IRadAn=         5 IDoV= 1 UseB2=F ITyADJ=14
 ICtDFT=  3500011 ScaDFX=  1.000000  1.000000  1.000000  1.000000
 FoFCou: FMM=F IPFlag=           0 FMFlag=      100000 FMFlg1=           0
         NFxFlg=           0 DoJE=T BraDBF=F KetDBF=T FulRan=T
         wScrn=  0.000000 ICntrl=       500 IOpCl=  0 I1Cent=   200000004 NGrid=           0
         NMat0=    1 NMatS0=      1 NMatT0=    0 NMatD0=    1 NMtDS0=    0 NMtDT0=    0
 Symmetry not used in FoFCou.
 Keep R1 ints in memory in canonical form, NReq=397720213.
 Requested convergence on RMS density matrix=1.00D-08 within 128 cycles.
 Requested convergence on MAX density matrix=1.00D-06.
 Requested convergence on             energy=1.00D-06.
 No special actions if energy rises.
 SCF Done:  E(RHF) =  -661.298579799     A.U. after   15 cycles
            NFock= 15  Conv=0.38D-08     -V/T= 2.0024
 ExpMin= 1.61D-01 ExpMax= 5.48D+03 ExpMxC= 8.25D+02 IAcc=3 IRadAn=         5 AccDes= 0.00D+00
 HarFok:  IExCor=  205 AccDes= 0.00D+00 IRadAn=         5 IDoV=-2 UseB2=F ITyADJ=14
 ICtDFT= 12500011 ScaDFX=  1.000000  1.000000  1.000000  1.000000
 Range of M.O.s used for correlation:    15   236
 NBasis=   236 NAE=    52 NBE=    52 NFC=    14 NFV=     0
 NROrb=    222 NOA=    38 NOB=    38 NVA=   184 NVB=   184
 Fully direct method using O(ONN) memory.
 JobTyp=1 Pass  1:  I=  15 to  52 NPSUse=  4 ParTrn=T ParDer=T DoDerP=T.
 Spin components of T(2) and E(2):
     alpha-alpha T2 =       0.9124985032D-01 E2=     -0.2723344219D+00
     alpha-beta  T2 =       0.4912124333D+00 E2=     -0.1487966657D+01
     beta-beta   T2 =       0.9124985032D-01 E2=     -0.2723344219D+00
 ANorm=    0.1293720269D+01
 E2 =    -0.2032635501D+01 EUMP2 =    -0.66333121529939D+03
          IDoAtm=111111111111111111111111111
          Differentiating once with respect to electric field.
                with respect to dipole field.
          Differentiating once with respect to nuclear coordinates.
 Keep R1 ints in memory in canonical form, NReq=397723379.
          There are     1 degrees of freedom in the 1st order CPHF.  IDoFFX=0 NUNeed=     1.
 LinEq1:  Iter=  0 NonCon=     1 RMS=4.57D-03 Max=1.05D-01 NDo=     1
 AX will form     1 AO Fock derivatives at one time.
 LinEq1:  Iter=  1 NonCon=     1 RMS=1.54D-03 Max=2.77D-02 NDo=     1
 LinEq1:  Iter=  2 NonCon=     1 RMS=6.42D-04 Max=1.78D-02 NDo=     1
 LinEq1:  Iter=  3 NonCon=     1 RMS=2.80D-04 Max=8.22D-03 NDo=     1
 LinEq1:  Iter=  4 NonCon=     1 RMS=8.71D-05 Max=1.95D-03 NDo=     1
 LinEq1:  Iter=  5 NonCon=     1 RMS=3.64D-05 Max=1.78D-03 NDo=     1
 LinEq1:  Iter=  6 NonCon=     1 RMS=1.41D-05 Max=5.32D-04 NDo=     1
 LinEq1:  Iter=  7 NonCon=     1 RMS=5.36D-06 Max=9.67D-05 NDo=     1
[...]
    27  H    4.723866   4.418734   3.356704   3.656863   2.029401
                   16         17         18         19         20
    16  C    0.000000
    17  H    3.463908   0.000000
    18  H    4.088103   2.236035   0.000000
    19  H    2.990648   4.303781   3.511968   0.000000
    20  H    4.374921   4.449462   2.881906   1.768520   0.000000
    21  H    5.096446   6.511473   5.086402   2.499099   2.521029
    22  H    5.248570   6.100699   4.313083   3.070191   2.461396
    23  H    3.695016   6.235283   5.421120   2.704252   3.842929
    24  H    5.133779   7.201042   5.936498   3.849633   4.317080
    25  H    3.821559   6.088395   5.369485   4.171633   4.985002
    26  H    4.495108   5.781248   4.484922   4.036025   4.182142
    27  H    1.089706   4.215104   5.078889   3.582685   5.147199
                   21         22         23         24         25
    21  H    0.000000
    22  H    1.758851   0.000000
    23  H    2.469444   3.062265   0.000000
    24  H    2.517365   2.459873   1.764574   0.000000
    25  H    4.312030   3.839485   2.444183   2.519680   0.000000
    26  H    3.846697   2.704327   3.060466   2.491742   1.767972
    27  H    5.652415   6.060047   4.090303   5.694663   4.454823
                   26         27
    26  H    0.000000
    27  H    5.378573   0.000000
 Symmetry turned off by external request.
 Stoichiometry    C9H13N3O2
 Framework group  C1[X(C9H13N3O2)]
 Deg. of freedom    75
 Full point group                 C1      NOp   1
 Rotational constants (GHZ):           1.6801233           0.4193397           0.3721478

 **********************************************************************

            Population analysis using the SCF Density.

 **********************************************************************

 Alpha  occ. eigenvalues --  -20.59236 -20.58902 -15.84722 -15.64136 -15.56112
 Alpha  occ. eigenvalues --  -11.35018 -11.29624 -11.29558 -11.28625 -11.27133
 Alpha  occ. eigenvalues --  -11.23728 -11.23208 -11.22692 -11.22089  -1.57121
 Alpha  occ. eigenvalues --   -1.36712  -1.30976  -1.23066  -1.14703  -1.09819
 Alpha  occ. eigenvalues --   -1.02805  -1.01309  -0.94481  -0.89684  -0.85566
 Alpha  occ. eigenvalues --   -0.82448  -0.78609  -0.77411  -0.75202  -0.72020
 Alpha  occ. eigenvalues --   -0.69773  -0.69440  -0.67821  -0.64893  -0.63778
 Alpha  occ. eigenvalues --   -0.62368  -0.60280  -0.57700  -0.57002  -0.55077
 Alpha  occ. eigenvalues --   -0.54582  -0.50762  -0.50109  -0.48656  -0.48103
 Alpha  occ. eigenvalues --   -0.47372  -0.46146  -0.46045  -0.43678  -0.41695
 Alpha  occ. eigenvalues --   -0.39849  -0.33830
 Alpha virt. eigenvalues --    0.07466   0.11802   0.17308   0.21848   0.24112
 Alpha virt. eigenvalues --    0.25663   0.27134   0.28694   0.29044   0.29637
 Alpha virt. eigenvalues --    0.30683   0.31799   0.32036   0.32767   0.33951
 Alpha virt. eigenvalues --    0.34386   0.35849   0.37313   0.38580   0.40292
 Alpha virt. eigenvalues --    0.41388   0.42445   0.45027   0.46117   0.46731
 Alpha virt. eigenvalues --    0.47077   0.49003   0.53997   0.57578   0.59405
 Alpha virt. eigenvalues --    0.63917   0.69543   0.69909   0.72861   0.74243
 Alpha virt. eigenvalues --    0.74870   0.75781   0.76679   0.78662   0.79439
 Alpha virt. eigenvalues --    0.81386   0.84697   0.85721   0.85808   0.88529
 Alpha virt. eigenvalues --    0.89425   0.91050   0.92114   0.92855   0.94527
 Alpha virt. eigenvalues --    0.95644   0.98038   0.99635   1.01675   1.02470
 Alpha virt. eigenvalues --    1.03153   1.05872   1.06969   1.07897   1.09011
 Alpha virt. eigenvalues --    1.10281   1.11418   1.11855   1.12443   1.13916
 Alpha virt. eigenvalues --    1.14766   1.14990   1.15833   1.16903   1.18725
 Alpha virt. eigenvalues --    1.19138   1.21337   1.22574   1.23913   1.24529
 Alpha virt. eigenvalues --    1.24834   1.26035   1.26911   1.27489   1.29558
 Alpha virt. eigenvalues --    1.30009   1.33126   1.36070   1.37181   1.40862
 Alpha virt. eigenvalues --    1.41841   1.46475   1.48738   1.51707   1.54285
 Alpha virt. eigenvalues --    1.56376   1.58772   1.59553   1.63466   1.65635
 Alpha virt. eigenvalues --    1.68034   1.68628   1.72995   1.75217   1.77377
 Alpha virt. eigenvalues --    1.81582   1.84599   1.87692   1.90650   1.93499
 Alpha virt. eigenvalues --    1.95816   1.96960   1.99721   2.01572   2.02521
 Alpha virt. eigenvalues --    2.05104   2.05609   2.08498   2.09562   2.12396
 Alpha virt. eigenvalues --    2.13264   2.15296   2.18826   2.20017   2.22454
 Alpha virt. eigenvalues --    2.22639   2.24496   2.25495   2.28215   2.29550
 Alpha virt. eigenvalues --    2.31993   2.33725   2.34699   2.36399   2.38466
 Alpha virt. eigenvalues --    2.40482   2.41925   2.43872   2.45136   2.47366
 Alpha virt. eigenvalues --    2.50724   2.51951   2.53116   2.55572   2.61514
 Alpha virt. eigenvalues --    2.62310   2.65193   2.67626   2.70318   2.70495
 Alpha virt. eigenvalues --    2.72271   2.72657   2.76985   2.78446   2.83815
 Alpha virt. eigenvalues --    2.88563   2.88951   2.92945   2.93140   2.96062
 Alpha virt. eigenvalues --    2.99439   3.01346   3.04318   3.05727   3.07678
 Alpha virt. eigenvalues --    3.09415   3.15047   3.21217   3.25220   3.27458
 Alpha virt. eigenvalues --    3.33455   3.37794   3.38791   3.52173   3.65795
 Alpha virt. eigenvalues --    4.13681   4.28080   4.34717   4.38923   4.46302
 Alpha virt. eigenvalues --    4.56310   4.61875   4.62354   4.73465   4.79746
 Alpha virt. eigenvalues --    4.99412   5.00899   5.05019   5.11169
          Condensed to atoms (all electrons):
               1          2          3          4          5          6
     1  O    8.316120   0.307010  -0.082551  -0.085491   0.004640  -0.000016
     2  N    0.307010   5.722190   0.301266   0.264199  -0.053622   0.000970
     3  O   -0.082551   0.301266   8.353676  -0.092679   0.003640   0.000785
     4  C   -0.085491   0.264199  -0.092679   5.225736   0.560323  -0.047292
     5  C    0.004640  -0.053622   0.003640   0.560323   4.709909   0.317413
     6  N   -0.000016   0.000970   0.000785  -0.047292   0.317413   7.195585
     7  C    0.000004  -0.000140   0.000002   0.004636  -0.030196   0.169294
     8  H   -0.000000   0.000002  -0.000000  -0.000262   0.003095  -0.050661
     9  C   -0.000000  -0.000004  -0.000000   0.000856   0.000625  -0.061651
    10  C    0.000000   0.000000   0.000000  -0.000038  -0.000052   0.003748
    11  C   -0.000000  -0.000000  -0.000000  -0.000028   0.000025  -0.000190
    12  C   -0.000000   0.000002  -0.000000  -0.000127  -0.000176   0.003873
    13  C   -0.000025  -0.000039  -0.000004  -0.011566  -0.000578  -0.047695
    14  H   -0.000004  -0.000105   0.000001   0.002647   0.006074  -0.006959
    15  N    0.000382   0.002361  -0.000016  -0.063514  -0.006386   0.001595
    16  C    0.000840  -0.027283   0.002548   0.328471  -0.050327  -0.001865
    17  H    0.000220  -0.007229   0.017385  -0.023147   0.374514  -0.034187
    18  H    0.000001  -0.000050   0.000012   0.001506  -0.031440   0.338677
    19  H    0.000001  -0.000004   0.000000  -0.001225   0.001232  -0.000351
    20  H    0.000000  -0.000000   0.000000  -0.000079   0.000153  -0.000429
    21  H   -0.000000   0.000000   0.000000   0.000001   0.000001  -0.000077
    22  H   -0.000000   0.000000  -0.000000  -0.000000  -0.000003  -0.000117
    23  H    0.000000  -0.000000   0.000000   0.000040  -0.000000  -0.000030
    24  H    0.000000   0.000000   0.000000   0.000000  -0.000000   0.000006
    25  H    0.000000  -0.000000   0.000000   0.000024   0.000000  -0.000090
    26  H    0.000000  -0.000000   0.000000   0.000006  -0.000002  -0.000060
    27  H    0.006124  -0.000880   0.000018  -0.063428   0.002215   0.000017
               7          8          9         10         11         12
     1  O    0.000004  -0.000000  -0.000000   0.000000  -0.000000  -0.000000
     2  N   -0.000140   0.000002  -0.000004   0.000000  -0.000000   0.000002
     3  O    0.000002  -0.000000  -0.000000   0.000000  -0.000000  -0.000000
     4  C    0.004636  -0.000262   0.000856  -0.000038  -0.000028  -0.000127
     5  C   -0.030196   0.003095   0.000625  -0.000052   0.000025  -0.000176
     6  N    0.169294  -0.050661  -0.061651   0.003748  -0.000190   0.003873
     7  C    5.017559   0.418411   0.350527  -0.054674  -0.009031  -0.061082
     8  H    0.418411   0.538082  -0.055052   0.000778  -0.000326  -0.002228
     9  C    0.350527  -0.055052   5.158240   0.324772  -0.050414  -0.005345
    10  C   -0.054674   0.000778   0.324772   5.119326   0.337002  -0.060992
    11  C   -0.009031  -0.000326  -0.050414   0.337002   5.119913   0.335979
    12  C   -0.061082  -0.002228  -0.005345  -0.060992   0.335979   5.118639
    13  C    0.338619  -0.037933  -0.060236  -0.000285  -0.050686   0.371979
    14  H   -0.046591  -0.000746   0.004423  -0.000405   0.004196  -0.036325
    15  N   -0.057957   0.003901  -0.014624   0.001561  -0.013057  -0.082052
    16  C   -0.001784   0.000010  -0.001274  -0.000029   0.000029   0.002609
    17  H    0.001616  -0.000045  -0.000070   0.000001   0.000000   0.000000
    18  H   -0.021221  -0.004473   0.001328  -0.000083   0.000004  -0.000114
    19  H   -0.036843   0.004360   0.390227  -0.032071  -0.002212   0.000689
    20  H   -0.042418  -0.002078   0.399487  -0.035306   0.003931  -0.000415
    21  H    0.004599  -0.000076  -0.036356   0.402433  -0.034894   0.004349
    22  H   -0.004846   0.003559  -0.046956   0.397754  -0.045405  -0.001021
    23  H    0.000577   0.000035  -0.001958  -0.039017   0.399176  -0.037858
    24  H   -0.000130  -0.000102   0.004388  -0.038437   0.402341  -0.038692
    25  H    0.005153  -0.000025  -0.000423   0.004190  -0.033397   0.398274
    26  H   -0.003908   0.001686   0.000969  -0.002232  -0.041480   0.396739
    27  H   -0.000408   0.000009  -0.000058   0.000007   0.000012  -0.000036
              13         14         15         16         17         18
     1  O   -0.000025  -0.000004   0.000382   0.000840   0.000220   0.000001
     2  N   -0.000039  -0.000105   0.002361  -0.027283  -0.007229  -0.000050
     3  O   -0.000004   0.000001  -0.000016   0.002548   0.017385   0.000012
     4  C   -0.011566   0.002647  -0.063514   0.328471  -0.023147   0.001506
     5  C   -0.000578   0.006074  -0.006386  -0.050327   0.374514  -0.031440
     6  N   -0.047695  -0.006959   0.001595  -0.001865  -0.034187   0.338677
     7  C    0.338619  -0.046591  -0.057957  -0.001784   0.001616  -0.021221
     8  H   -0.037933  -0.000746   0.003901   0.000010  -0.000045  -0.004473
     9  C   -0.060236   0.004423  -0.014624  -0.001274  -0.000070   0.001328
    10  C   -0.000285  -0.000405   0.001561  -0.000029   0.000001  -0.000083
    11  C   -0.050686   0.004196  -0.013057   0.000029   0.000000   0.000004
    12  C    0.371979  -0.036325  -0.082052   0.002609   0.000000  -0.000114
    13  C    5.040242   0.403076   0.244768  -0.071098  -0.000009   0.002971
    14  H    0.403076   0.526778  -0.037368  -0.004531   0.000093  -0.000108
    15  N    0.244768  -0.037368   6.965071   0.585216  -0.000080  -0.000132
    16  C   -0.071098  -0.004531   0.585216   4.709937   0.002015  -0.000197
    17  H   -0.000009   0.000093  -0.000080   0.002015   0.376511  -0.002818
    18  H    0.002971  -0.000108  -0.000132  -0.000197  -0.002818   0.310610
    19  H   -0.007544   0.000106   0.007692   0.003003   0.000016  -0.000149
    20  H    0.004340  -0.000066   0.000126  -0.000036   0.000002   0.000807
    21  H   -0.000433   0.000010  -0.000041   0.000004  -0.000000   0.000001
    22  H    0.000045  -0.000055   0.000019  -0.000002   0.000000   0.000001
    23  H   -0.007522   0.000003   0.008588   0.000105   0.000000   0.000000
    24  H    0.004700  -0.000057   0.000136   0.000007   0.000000  -0.000000
    25  H   -0.035564  -0.002818   0.000407  -0.000022  -0.000000   0.000002
    26  H   -0.047422  -0.001047   0.004900  -0.000061   0.000000  -0.000000
    27  H    0.005063  -0.000174  -0.040318   0.403684  -0.000079   0.000001
              19         20         21         22         23         24
     1  O    0.000001   0.000000  -0.000000  -0.000000   0.000000   0.000000
     2  N   -0.000004  -0.000000   0.000000   0.000000  -0.000000   0.000000
     3  O    0.000000   0.000000   0.000000  -0.000000   0.000000   0.000000
     4  C   -0.001225  -0.000079   0.000001  -0.000000   0.000040   0.000000
     5  C    0.001232   0.000153   0.000001  -0.000003  -0.000000  -0.000000
     6  N   -0.000351  -0.000429  -0.000077  -0.000117  -0.000030   0.000006
     7  C   -0.036843  -0.042418   0.004599  -0.004846   0.000577  -0.000130
     8  H    0.004360  -0.002078  -0.000076   0.003559   0.000035  -0.000102
     9  C    0.390227   0.399487  -0.036356  -0.046956  -0.001958   0.004388
    10  C   -0.032071  -0.035306   0.402433   0.397754  -0.039017  -0.038437
    11  C   -0.002212   0.003931  -0.034894  -0.045405   0.399176   0.402341
    12  C    0.000689  -0.000415   0.004349  -0.001021  -0.037858  -0.038692
    13  C   -0.007544   0.004340  -0.000433   0.000045  -0.007522   0.004700
    14  H    0.000106  -0.000066   0.000010  -0.000055   0.000003  -0.000057
    15  N    0.007692   0.000126  -0.000041   0.000019   0.008588   0.000136
    16  C    0.003003  -0.000036   0.000004  -0.000002   0.000105   0.000007
    17  H    0.000016   0.000002  -0.000000   0.000000   0.000000   0.000000
    18  H   -0.000149   0.000807   0.000001   0.000001   0.000000  -0.000000
    19  H    0.504914  -0.024737  -0.002788   0.003959   0.001514  -0.000066
    20  H   -0.024737   0.541168  -0.002692  -0.002991  -0.000045  -0.000083
    21  H   -0.002788  -0.002692   0.524019  -0.027402  -0.002898  -0.002241
    22  H    0.003959  -0.002991  -0.027402   0.571321   0.004137  -0.003656
    23  H    0.001514  -0.000045  -0.002898   0.004137   0.498947  -0.025451
    24  H   -0.000066  -0.000083  -0.002241  -0.003656  -0.025451   0.538124
    25  H   -0.000029   0.000012  -0.000087  -0.000080  -0.002317  -0.002292
    26  H    0.000019  -0.000030  -0.000081   0.002380   0.004066  -0.003034
    27  H    0.000083   0.000000  -0.000000   0.000000  -0.000035  -0.000000
              25         26         27
     1  O    0.000000   0.000000   0.006124
     2  N   -0.000000  -0.000000  -0.000880
     3  O    0.000000   0.000000   0.000018
     4  C    0.000024   0.000006  -0.063428
     5  C    0.000000  -0.000002   0.002215
     6  N   -0.000090  -0.000060   0.000017
     7  C    0.005153  -0.003908  -0.000408
     8  H   -0.000025   0.001686   0.000009
     9  C   -0.000423   0.000969  -0.000058
    10  C    0.004190  -0.002232   0.000007
    11  C   -0.033397  -0.041480   0.000012
    12  C    0.398274   0.396739  -0.000036
    13  C   -0.035564  -0.047422   0.005063
    14  H   -0.002818  -0.001047  -0.000174
    15  N    0.000407   0.004900  -0.040318
    16  C   -0.000022  -0.000061   0.403684
    17  H   -0.000000   0.000000  -0.000079
    18  H    0.000002  -0.000000   0.000001
    19  H   -0.000029   0.000019   0.000083
    20  H    0.000012  -0.000030   0.000000
    21  H   -0.000087  -0.000081  -0.000000
    22  H   -0.000080   0.002380   0.000000
    23  H   -0.002317   0.004066  -0.000035
    24  H   -0.002292  -0.003034  -0.000000
    25  H    0.506114  -0.024080  -0.000013
    26  H   -0.024080   0.562324   0.000001
    27  H   -0.000013   0.000001   0.439341
 Mulliken charges:
               1
     1  O   -0.467254
     2  N    0.491356
     3  O   -0.504083
     4  C    0.000430
     5  C    0.188925
     6  N   -0.780294
     7  C    0.060233
     8  H    0.180077
     9  C   -0.301420
    10  C   -0.327949
    11  C   -0.321486
    12  C   -0.306669
    13  C   -0.037163
    14  H    0.189951
    15  N   -0.511177
    16  C    0.120032
    17  H    0.295290
    18  H    0.404866
    19  H    0.190203
    20  H    0.161378
    21  H    0.174649
    22  H    0.149360
    23  H    0.199942
    24  H    0.164541
    25  H    0.187059
    26  H    0.150348
    27  H    0.248856
 Sum of Mulliken charges =  -0.00000
 Mulliken charges with hydrogens summed into heavy atoms:
               1
     1  O   -0.467254
     2  N    0.491356
     3  O   -0.504083
     4  C    0.000430
     5  C    0.484215
     6  N   -0.375428
     7  C    0.240310
     9  C    0.050162
    10  C   -0.003940
    11  C    0.042996
    12  C    0.030738
    13  C    0.152788
    15  N   -0.511177
    16  C    0.368888
 Electronic spatial extent (au):  <R**2>=           3005.3160
 Charge=              0.0000 electrons
 Dipole moment (field-independent basis, Debye):
    X=              5.4161    Y=              4.7962    Z=              1.2823  Tot=              7.3473
 Quadrupole moment (field-independent basis, Debye-Ang):
   XX=           -106.1389   YY=            -79.2270   ZZ=            -81.4997
   XY=             -1.7675   XZ=             -0.1345   YZ=              1.8555
 Traceless Quadrupole moment (field-independent basis, Debye-Ang):
   XX=            -17.1837   YY=              9.7282   ZZ=              7.4555
   XY=             -1.7675   XZ=             -0.1345   YZ=              1.8555
 Octapole moment (field-independent basis, Debye-Ang**2):
  XXX=             92.3938  YYY=             36.2898  ZZZ=             -1.4882  XYY=             -4.5744
  XXY=              9.5393  XXZ=              4.9375  XZZ=             -9.7571  YZZ=             -0.3883
  YYZ=              8.0053  XYZ=              0.2589
 Hexadecapole moment (field-independent basis, Debye-Ang**3):
 XXXX=          -3382.0338 YYYY=           -601.0292 ZZZZ=           -303.8331 XXXY=            -20.9170
 XXXZ=            -13.5642 YYYX=             -8.9906 YYYZ=             24.9776 ZZZX=              1.8396
 ZZZY=              7.0611 XXYY=           -627.7436 XXZZ=           -523.8150 YYZZ=           -157.3112
 XXYZ=             -4.3210 YYXZ=              1.6640 ZZXY=              4.6853
 N-N= 9.312436254794D+02 E-N=-3.409204139074D+03  KE= 6.596295318190D+02
 Unable to Open any file for archive entry.
 1\1\GINC-LOTUS\FOpt\RMP2-FC\6-31G(d)\C9H13N3O2\ALEXEY\02-Jul-2023\0\\#
 MP2/6-31G* SCF=Tight Opt=(ModRedun, MaxCycle=20 ) NoSymm\\MolName:\\0,
 1\O,-3.506618348,-1.3904563082,-0.3717041698\N,-3.1211095419,-0.232494
 9035,-0.118462812\O,-3.8954720994,0.728381351,0.0558260108\C,-1.686777
 0947,-0.02389974,-0.0093392827\C,-1.3015720051,1.2606247466,0.27549229
 07\N,-0.0573119328,1.7500864391,0.3863571077\C,1.2056063473,1.02390460
 07,0.3593511348\H,1.8533742406,1.5529429607,1.0746807673\C,1.909071593
 4,1.0350330835,-0.9965040008\C,3.3074760953,0.4284320821,-0.8324416234
 \C,3.2595090052,-0.9676825184,-0.2058618691\C,2.4644967218,-0.97826148
 39,1.1016125428\C,1.054816856,-0.4246584297,0.8651794339\H,0.478258521
 ,-0.4033684515,1.8035855914\N,0.4083146834,-1.3178553199,-0.0911914373
 \C,-0.8389688591,-1.1379296956,-0.3865636246\H,-2.0963369247,1.9875366
 553,0.4191292166\H,0.0018068301,2.7351768122,0.6157992941\H,1.31493775
 88,0.4576196331,-1.7127926482\H,1.975052023,2.0629940747,-1.3741399225
 \H,3.8114309999,0.3903645427,-1.8049650677\H,3.9072329843,1.0947374855
 ,-0.1961654673\H,2.781874494,-1.664467902,-0.9017307254\H,4.2786737801
 ,-1.3311552259,-0.0286816566\H,2.3791147221,-2.000147863,1.4855548433\
 H,2.9743876901,-0.3803089932,1.8696090439\H,-1.3002685406,-1.892137632
 6,-1.02361297\\Version=ES64L-G16RevC.02\HF=-661.300382\MP2=-663.334649
 3\RMSD=5.756e-09\RMSF=2.569e-05\Dipole=1.979361,1.6919463,0.471556\PG=
 C01 [X(C9H13N3O2)]\\@
 The archive entry for this job was punched.


 Discoveries are often made by not following instructions,
 by going off the main road, by trying the untried.
 -- Frank Tyger
 Job cpu time:       0 days  1 hours  5 minutes 15.2 seconds.
 Elapsed time:       0 days  0 hours 19 minutes 37.4 seconds.
 File lengths (MBytes):  RWF=     36 Int=      0 D2E=      0 Chk=      7 Scr=      1
 Normal termination of Gaussian 16 at Sun Jul  2 12:55:40 2023.
