 Entering Gaussian System, Link 0=g16
 Initial command:
 /home/alexey/programs//g16/l1.exe "/home/alexey/tmp/Gau-1514451.inp" -scrdir="/home/alexey/tmp/"
 Entering Link 1 = /home/alexey/programs//g16/l1.exe PID=   1514456.
  
 Copyright (c) 1988-2021, Gaussian, Inc.  All Rights Reserved.
  
 This is part of the Gaussian(R) 16 program.  It is based on
 the Gaussian(R) 09 system (copyright 2009, Gaussian, Inc.),
 the Gaussian(R) 03 system (copyright 2003, Gaussian, Inc.),
 the Gaussian(R) 98 system (copyright 1998, Gaussian, Inc.),
 the Gaussian(R) 94 system (copyright 1995, Gaussian, Inc.),
 the Gaussian 92(TM) system (copyright 1992, Gaussian, Inc.),
 the Gaussian 90(TM) system (copyright 1990, Gaussian, Inc.),
 the Gaussian 88(TM) system (copyright 1988, Gaussian, Inc.),
 the Gaussian 86(TM) system (copyright 1986, Carnegie Mellon
 University), and the Gaussian 82(TM) system (copyright 1983,
 Carnegie Mellon University). Gaussian is a federally registered
 trademark of Gaussian, Inc.
  
 This software contains proprietary and confidential information,
 including trade secrets, belonging to Gaussian, Inc.
  
 This software is provided under written license and may be
 used, copied, transmitted, or stored only in accord with that
 written license.
  
 The following legend is applicable only to US Government
 contracts under FAR:
  
                    RESTRICTED RIGHTS LEGEND
  
 Use, reproduction and disclosure by the US Government is
 subject to restrictions as set forth in subparagraphs (a)
 and (c) of the Commercial Computer Software - Restricted
 Rights clause in FAR 52.227-19.
  
 Gaussian, Inc.
 340 Quinnipiac St., Bldg. 40, Wallingford CT 06492
  
  
 ---------------------------------------------------------------
 Warning -- This program may not be used in any manner that
 competes with the business of Gaussian, Inc. or will provide
 assistance to any competitor of Gaussian, Inc.  The licensee
 of this program is prohibited from giving any competitor of
 Gaussian, Inc. access to this program.  By using this program,
 the user acknowledges that Gaussian, Inc. is engaged in the
 business of creating and licensing software in the field of
 computational chemistry and represents and warrants to the
 licensee that it is not a competitor of Gaussian, Inc. and that
 it will not use this program in any manner prohibited above.
 ---------------------------------------------------------------
  

 Cite this work as:
 Gaussian 16, Revision C.02,
 M. J. Frisch, G. W. Trucks, H. B. Schlegel, G. E. Scuseria, 
 M. A. Robb, J. R. Cheeseman, G. Scalmani, V. Barone, 
 G. A. Petersson, H. Nakatsuji, X. Li, M. Caricato, A. V. Marenich, 
 J. Bloino, B. G. Janesko, R. Gomperts, B. Mennucci, H. P. Hratchian, 
 J. V. Ortiz, A. F. Izmaylov, J. L. Sonnenberg, D. Williams-Young, 
 F. Ding, F. Lipparini, F. Egidi, J. Goings, B. Peng, A. Petrone, 
 T. Henderson, D. Ranasinghe, V. G. Zakrzewski, J. Gao, N. Rega, 
 G. Zheng, W. Liang, M. Hada, M. Ehara, K. Toyota, R. Fukuda, 
 J. Hasegawa, M. Ishida, T. Nakajima, Y. Honda, O. Kitao, H. Nakai, 
 T. Vreven, K. Throssell, J. A. Montgomery, Jr., J. E. Peralta, 
 F. Ogliaro, M. J. Bearpark, J. J. Heyd, E. N. Brothers, K. N. Kudin, 
 V. N. Staroverov, T. A. Keith, R. Kobayashi, J. Normand, 
 K. Raghavachari, A. P. Rendell, J. C. Burant, S. S. Iyengar, 
 J. Tomasi, M. Cossi, J. M. Millam, M. Klene, C. Adamo, R. Cammi, 
 J. W. Ochterski, R. L. Martin, K. Morokuma, O. Farkas, 
 J. B. Foresman, and D. J. Fox, Gaussian, Inc., Wallingford CT, 2019.
 
 ******************************************
 Gaussian 16:  ES64L-G16RevC.02  7-Dec-2021
                 2-Jul-2023 
 ******************************************
 %mem=8GB
 %NPROCS=4
 Will use up to    4 processors via shared memory.
 %NoSave
 ---------------------------------------------------------
 #MP2/6-31G* SCF=Tight Opt=(ModRedun, MaxCycle=20 ) NoSymm
 ---------------------------------------------------------
 1/6=20,18=120,19=15,38=1/1,3;
 2/9=110,12=2,15=1,17=6,18=5,40=1/2;
 3/5=1,6=6,7=1,11=9,25=1,30=1,71=1/1,2,3;
 4//1;
 5/5=2,32=2,38=5/2;
 8/6=4,10=2/1;
 9/15=2,16=-3/6;
 10/5=1,31=1/2;
 6/7=2,8=2,9=2,10=2/1;
 7/12=2,30=1/1,2,3,16;
 1/6=20,18=20,19=15/3(2);
 2/9=110,15=1/2;
 99//99;
 2/9=110,15=1/2;
 3/5=1,6=6,7=1,11=9,25=1,30=1,71=1/1,2,3;
 4/5=5,16=3,69=1/1;
 5/5=2,32=2,38=5/2;
 8/6=4,10=2/1;
 9/15=2,16=-3/6;
 10/5=1,31=1/2;
 7/12=2,30=1/1,2,3,16;
 1/6=20,18=20,19=15/3(-8);
 2/9=110,15=1/2;
 6/7=2,8=2,9=2,10=2/1;
 99/9=10/99;
 --------
 MolName:
 --------
 Symbolic Z-matrix:
 Charge =  0 Multiplicity = 1
 8                    0    -3.59786  -1.47276  -0.12171 
 7                    0    -3.25082  -0.30588   0.05217 
 8                    0    -4.03686   0.6167    0.27044 
 6                    0    -1.76029   0.00951  -0.03334 
 6                    0    -1.37313   1.31119   0.30729 
 7                    0    -0.0852    1.78161   0.31333 
 6                    0     1.19012   1.00122   0.31865 
 1                    0     1.82708   1.48703   1.10354 
 6                    0     1.99728   1.04964  -1.00094 
 6                    0     3.40043   0.45785  -0.76938 
 6                    0     3.3151   -0.95845  -0.17902 
 6                    0     2.42769  -0.99051   1.08418 
 6                    0     1.00034  -0.44626   0.80201 
 1                    0     0.43325  -0.48083   1.762 
 7                    0     0.36276  -1.31317  -0.1919 
 6                    0    -0.87171  -1.08635  -0.50668 
 1                    0    -2.15149   2.02748   0.61891 
 1                    0     0.13679   2.75223   0.07882 
 1                    0     1.46973   0.47462  -1.79176 
 1                    0     2.09884   2.09927  -1.34986 
 1                    0     3.96468   0.43301  -1.7273 
 1                    0     3.95843   1.10873  -0.05966 
 1                    0     2.88627  -1.64441  -0.94421 
 1                    0     4.33435  -1.32759   0.06789 
 1                    0     2.35366  -2.03733   1.45229 
 1                    0     2.90308  -0.38428   1.88372 
 1                    0    -1.37252  -1.79727  -1.18147 
 
 The following ModRedundant input section has been read:
 D       5       6       7       8 F                                           
 D       1       2       4      16 F                                           
 D       7      13      15      16 F                                           
 D       7       9      10      11 F                                           
 D       9      10      11      12 F                                           
 D       6       7      13      15 F                                           
 

 GradGradGradGradGradGradGradGradGradGradGradGradGradGradGradGradGradGrad
 Berny optimization.
 Initialization pass.
                           ----------------------------
                           !    Initial Parameters    !
                           ! (Angstroms and Degrees)  !
 --------------------------                            --------------------------
 ! Name  Definition              Value          Derivative Info.                !
 --------------------------------------------------------------------------------
 ! R1    R(1,2)                  1.2297         estimate D2E/DX2                !
 ! R2    R(2,3)                  1.2315         estimate D2E/DX2                !
 ! R3    R(2,4)                  1.5259         estimate D2E/DX2                !
 ! R4    R(4,5)                  1.4001         estimate D2E/DX2                !
 ! R5    R(4,16)                 1.4881         estimate D2E/DX2                !
 ! R6    R(5,6)                  1.3712         estimate D2E/DX2                !
 ! R7    R(5,17)                 1.1027         estimate D2E/DX2                !
 ! R8    R(6,7)                  1.4952         estimate D2E/DX2                !
 ! R9    R(6,18)                 1.0229         estimate D2E/DX2                !
 ! R10   R(7,8)                  1.1215         estimate D2E/DX2                !
 ! R11   R(7,9)                  1.5476         estimate D2E/DX2                !
 ! R12   R(7,13)                 1.5378         estimate D2E/DX2                !
 ! R13   R(9,10)                 1.5403         estimate D2E/DX2                !
 ! R14   R(9,19)                 1.111          estimate D2E/DX2                !
 ! R15   R(9,20)                 1.1108         estimate D2E/DX2                !
 ! R16   R(10,11)                1.5368         estimate D2E/DX2                !
 ! R17   R(10,21)                1.112          estimate D2E/DX2                !
 ! R18   R(10,22)                1.113          estimate D2E/DX2                !
 ! R19   R(11,12)                1.5441         estimate D2E/DX2                !
 ! R20   R(11,23)                1.1135         estimate D2E/DX2                !
 ! R21   R(11,24)                1.1118         estimate D2E/DX2                !
 ! R22   R(12,13)                1.5534         estimate D2E/DX2                !
 ! R23   R(12,25)                1.1121         estimate D2E/DX2                !
 ! R24   R(12,26)                1.1103         estimate D2E/DX2                !
 ! R25   R(13,14)                1.1155         estimate D2E/DX2                !
 ! R26   R(13,15)                1.4649         estimate D2E/DX2                !
 ! R27   R(15,16)                1.294          estimate D2E/DX2                !
 ! R28   R(16,27)                1.1007         estimate D2E/DX2                !
 ! A1    A(1,2,3)              123.7643         estimate D2E/DX2                !
 ! A2    A(1,2,4)              117.6361         estimate D2E/DX2                !
 ! A3    A(3,2,4)              118.591          estimate D2E/DX2                !
 ! A4    A(2,4,5)              116.6559         estimate D2E/DX2                !
 ! A5    A(2,4,16)             116.6718         estimate D2E/DX2                !
 ! A6    A(5,4,16)             126.6484         estimate D2E/DX2                !
 ! A7    A(4,5,6)              125.4344         estimate D2E/DX2                !
 ! A8    A(4,5,17)             118.5199         estimate D2E/DX2                !
 ! A9    A(6,5,17)             116.0339         estimate D2E/DX2                !
 ! A10   A(5,6,7)              128.4724         estimate D2E/DX2                !
 ! A11   A(5,6,18)             121.8953         estimate D2E/DX2                !
 ! A12   A(7,6,18)             108.1175         estimate D2E/DX2                !
 ! A13   A(6,7,8)              105.1199         estimate D2E/DX2                !
 ! A14   A(6,7,9)              115.1822         estimate D2E/DX2                !
 ! A15   A(6,7,13)             112.7768         estimate D2E/DX2                !
 ! A16   A(8,7,9)              106.6764         estimate D2E/DX2                !
 ! A17   A(8,7,13)             104.9423         estimate D2E/DX2                !
 ! A18   A(9,7,13)             111.2117         estimate D2E/DX2                !
 ! A19   A(7,9,10)             109.566          estimate D2E/DX2                !
 ! A20   A(7,9,19)             110.0643         estimate D2E/DX2                !
 ! A21   A(7,9,20)             110.1874         estimate D2E/DX2                !
 ! A22   A(10,9,19)            109.9198         estimate D2E/DX2                !
 ! A23   A(10,9,20)            109.0858         estimate D2E/DX2                !
 ! A24   A(19,9,20)            107.9929         estimate D2E/DX2                !
 ! A25   A(9,10,11)            111.1765         estimate D2E/DX2                !
 ! A26   A(9,10,21)            109.956          estimate D2E/DX2                !
 ! A27   A(9,10,22)            109.1405         estimate D2E/DX2                !
 ! A28   A(11,10,21)           109.7857         estimate D2E/DX2                !
 ! A29   A(11,10,22)           108.7738         estimate D2E/DX2                !
 ! A30   A(21,10,22)           107.9374         estimate D2E/DX2                !
 ! A31   A(10,11,12)           111.4271         estimate D2E/DX2                !
 ! A32   A(10,11,23)           108.9734         estimate D2E/DX2                !
 ! A33   A(10,11,24)           109.9012         estimate D2E/DX2                !
 ! A34   A(12,11,23)           109.1506         estimate D2E/DX2                !
 ! A35   A(12,11,24)           109.7732         estimate D2E/DX2                !
 ! A36   A(23,11,24)           107.5253         estimate D2E/DX2                !
 ! A37   A(11,12,13)           111.851          estimate D2E/DX2                !
 ! A38   A(11,12,25)           109.183          estimate D2E/DX2                !
 ! A39   A(11,12,26)           109.3723         estimate D2E/DX2                !
 ! A40   A(13,12,25)           109.1923         estimate D2E/DX2                !
 ! A41   A(13,12,26)           109.4461         estimate D2E/DX2                !
 ! A42   A(25,12,26)           107.7034         estimate D2E/DX2                !
 ! A43   A(7,13,12)            105.8711         estimate D2E/DX2                !
 ! A44   A(7,13,14)            111.2479         estimate D2E/DX2                !
 ! A45   A(7,13,15)            113.421          estimate D2E/DX2                !
 ! A46   A(12,13,14)           107.4534         estimate D2E/DX2                !
 ! A47   A(12,13,15)           108.4104         estimate D2E/DX2                !
 ! A48   A(14,13,15)           110.1386         estimate D2E/DX2                !
 ! A49   A(13,15,16)           118.4592         estimate D2E/DX2                !
 ! A50   A(4,16,15)            128.4143         estimate D2E/DX2                !
 ! A51   A(4,16,27)            113.512          estimate D2E/DX2                !
 ! A52   A(15,16,27)           118.0326         estimate D2E/DX2                !
 ! D1    D(1,2,4,5)           -173.4014         estimate D2E/DX2                !
 ! D2    D(1,2,4,16)             8.2582         Frozen                          !
 ! D3    D(3,2,4,5)              7.6276         estimate D2E/DX2                !
 ! D4    D(3,2,4,16)          -170.7128         estimate D2E/DX2                !
 ! D5    D(2,4,5,6)            178.9716         estimate D2E/DX2                !
 ! D6    D(2,4,5,17)             0.2759         estimate D2E/DX2                !
 ! D7    D(16,4,5,6)            -2.8769         estimate D2E/DX2                !
 ! D8    D(16,4,5,17)          178.4273         estimate D2E/DX2                !
 ! D9    D(2,4,16,15)         -149.4692         estimate D2E/DX2                !
 ! D10   D(2,4,16,27)           28.125          estimate D2E/DX2                !
 ! D11   D(5,4,16,15)           32.3796         estimate D2E/DX2                !
 ! D12   D(5,4,16,27)         -150.0262         estimate D2E/DX2                !
 ! D13   D(4,5,6,7)            -17.2451         estimate D2E/DX2                !
 ! D14   D(4,5,6,18)           146.9857         estimate D2E/DX2                !
 ! D15   D(17,5,6,7)           161.4795         estimate D2E/DX2                !
 ! D16   D(17,5,6,18)          -34.2897         estimate D2E/DX2                !
 ! D17   D(5,6,7,8)           -133.7754         Frozen                          !
 ! D18   D(5,6,7,9)            109.1266         estimate D2E/DX2                !
 ! D19   D(5,6,7,13)           -20.0013         estimate D2E/DX2                !
 ! D20   D(18,6,7,8)            60.2745         estimate D2E/DX2                !
 ! D21   D(18,6,7,9)           -56.8236         estimate D2E/DX2                !
 ! D22   D(18,6,7,13)          174.0486         estimate D2E/DX2                !
 ! D23   D(6,7,9,10)           168.4931         estimate D2E/DX2                !
 ! D24   D(6,7,9,19)           -70.5255         estimate D2E/DX2                !
 ! D25   D(6,7,9,20)            48.4658         estimate D2E/DX2                !
 ! D26   D(8,7,9,10)            52.2782         estimate D2E/DX2                !
 ! D27   D(8,7,9,19)           173.2596         estimate D2E/DX2                !
 ! D28   D(8,7,9,20)           -67.7492         estimate D2E/DX2                !
 ! D29   D(13,7,9,10)          -61.6124         estimate D2E/DX2                !
 ! D30   D(13,7,9,19)           59.369          estimate D2E/DX2                !
 ! D31   D(13,7,9,20)          178.3602         estimate D2E/DX2                !
 ! D32   D(6,7,13,12)         -166.2288         estimate D2E/DX2                !
 ! D33   D(6,7,13,14)          -49.7984         estimate D2E/DX2                !
 ! D34   D(6,7,13,15)           75.022          Frozen                          !
 ! D35   D(8,7,13,12)          -52.3468         estimate D2E/DX2                !
 ! D36   D(8,7,13,14)           64.0837         estimate D2E/DX2                !
 ! D37   D(8,7,13,15)         -171.0959         estimate D2E/DX2                !
 ! D38   D(9,7,13,12)           62.6248         estimate D2E/DX2                !
 ! D39   D(9,7,13,14)          179.0552         estimate D2E/DX2                !
 ! D40   D(9,7,13,15)          -56.1243         estimate D2E/DX2                !
 ! D41   D(7,9,10,11)           54.8122         Frozen                          !
 ! D42   D(7,9,10,21)          176.6065         estimate D2E/DX2                !
 ! D43   D(7,9,10,22)          -65.1742         estimate D2E/DX2                !
 ! D44   D(19,9,10,11)         -66.2567         estimate D2E/DX2                !
 ! D45   D(19,9,10,21)          55.5377         estimate D2E/DX2                !
 ! D46   D(19,9,10,22)         173.757          estimate D2E/DX2                !
 ! D47   D(20,9,10,11)         175.5105         estimate D2E/DX2                !
 ! D48   D(20,9,10,21)         -62.6951         estimate D2E/DX2                !
 ! D49   D(20,9,10,22)          55.5242         estimate D2E/DX2                !
 ! D50   D(9,10,11,12)         -52.8225         Frozen                          !
 ! D51   D(9,10,11,23)          67.6803         estimate D2E/DX2                !
 ! D52   D(9,10,11,24)        -174.7313         estimate D2E/DX2                !
 ! D53   D(21,10,11,12)       -174.7159         estimate D2E/DX2                !
 ! D54   D(21,10,11,23)        -54.2131         estimate D2E/DX2                !
 ! D55   D(21,10,11,24)         63.3753         estimate D2E/DX2                !
 ! D56   D(22,10,11,12)         67.3812         estimate D2E/DX2                !
 ! D57   D(22,10,11,23)       -172.116          estimate D2E/DX2                !
 ! D58   D(22,10,11,24)        -54.5276         estimate D2E/DX2                !
 ! D59   D(10,11,12,13)         56.4412         estimate D2E/DX2                !
 ! D60   D(10,11,12,25)        177.4067         estimate D2E/DX2                !
 ! D61   D(10,11,12,26)        -64.9725         estimate D2E/DX2                !
 ! D62   D(23,11,12,13)        -63.9574         estimate D2E/DX2                !
 ! D63   D(23,11,12,25)         57.008          estimate D2E/DX2                !
 ! D64   D(23,11,12,26)        174.6288         estimate D2E/DX2                !
 ! D65   D(24,11,12,13)        178.4241         estimate D2E/DX2                !
 ! D66   D(24,11,12,25)        -60.6104         estimate D2E/DX2                !
 ! D67   D(24,11,12,26)         57.0103         estimate D2E/DX2                !
 ! D68   D(11,12,13,7)         -59.7768         estimate D2E/DX2                !
 ! D69   D(11,12,13,14)       -178.746          estimate D2E/DX2                !
 ! D70   D(11,12,13,15)         62.2397         estimate D2E/DX2                !
 ! D71   D(25,12,13,7)         179.2632         estimate D2E/DX2                !
 ! D72   D(25,12,13,14)         60.294          estimate D2E/DX2                !
 ! D73   D(25,12,13,15)        -58.7204         estimate D2E/DX2                !
 ! D74   D(26,12,13,7)          61.5944         estimate D2E/DX2                !
 ! D75   D(26,12,13,14)        -57.3748         estimate D2E/DX2                !
 ! D76   D(26,12,13,15)       -176.3891         estimate D2E/DX2                !
 ! D77   D(7,13,15,16)         -67.1603         Frozen                          !
 ! D78   D(12,13,15,16)        175.5629         estimate D2E/DX2                !
 ! D79   D(14,13,15,16)         58.256          estimate D2E/DX2                !
 ! D80   D(13,15,16,4)           3.1513         estimate D2E/DX2                !
 ! D81   D(13,15,16,27)       -174.3494         estimate D2E/DX2                !
 --------------------------------------------------------------------------------
 Trust Radius=3.00D-01 FncErr=1.00D-07 GrdErr=1.00D-07 EigMax=2.50D+02 EigMin=1.00D-04
 Number of steps in this run=     20 maximum allowed number of steps=    162.
 GradGradGradGradGradGradGradGradGradGradGradGradGradGradGradGradGradGrad

                          Input orientation:                          
 ---------------------------------------------------------------------
 Center     Atomic      Atomic             Coordinates (Angstroms)
 Number     Number       Type             X           Y           Z
 ---------------------------------------------------------------------
      1          8           0       -3.597860   -1.472760   -0.121710
      2          7           0       -3.250820   -0.305880    0.052170
      3          8           0       -4.036860    0.616700    0.270440
      4          6           0       -1.760290    0.009510   -0.033340
      5          6           0       -1.373130    1.311190    0.307290
      6          7           0       -0.085200    1.781610    0.313330
      7          6           0        1.190120    1.001220    0.318650
      8          1           0        1.827080    1.487030    1.103540
      9          6           0        1.997280    1.049640   -1.000940
     10          6           0        3.400430    0.457850   -0.769380
     11          6           0        3.315100   -0.958450   -0.179020
     12          6           0        2.427690   -0.990510    1.084180
     13          6           0        1.000340   -0.446260    0.802010
     14          1           0        0.433250   -0.480830    1.762000
     15          7           0        0.362760   -1.313170   -0.191900
     16          6           0       -0.871710   -1.086350   -0.506680
     17          1           0       -2.151490    2.027480    0.618910
     18          1           0        0.136790    2.752230    0.078820
     19          1           0        1.469730    0.474620   -1.791760
     20          1           0        2.098840    2.099270   -1.349860
     21          1           0        3.964680    0.433010   -1.727300
     22          1           0        3.958430    1.108730   -0.059660
     23          1           0        2.886270   -1.644410   -0.944210
     24          1           0        4.334350   -1.327590    0.067890
     25          1           0        2.353660   -2.037330    1.452290
     26          1           0        2.903080   -0.384280    1.883720
     27          1           0       -1.372520   -1.797270   -1.181470
 ---------------------------------------------------------------------
                    Distance matrix (angstroms):
                    1          2          3          4          5
     1  O    0.000000
     2  N    1.229748   0.000000
     3  O    2.170794   1.231525   0.000000
     4  C    2.362540   1.525930   2.375654   0.000000
     5  C    3.589407   2.491129   2.753022   1.400104   0.000000
     6  N    4.808218   3.800917   4.120009   2.463015   1.371166
     7  C    5.407333   4.636968   5.241326   3.132460   2.581949
     8  H    6.300124   5.486800   5.986428   4.042868   3.302465
     9  C    6.200092   5.521687   6.181803   4.017145   3.624850
    10  C    7.288539   6.745173   7.511308   5.232188   4.967321
    11  C    6.932302   6.602318   7.532226   5.168922   5.231373
    12  C    6.163926   5.811991   6.710865   4.448378   4.510833
    13  C    4.801084   4.319066   5.175503   2.920037   2.994451
    14  H    4.558743   4.065280   4.838513   2.876682   2.930960
    15  N    3.964455   3.759277   4.826470   2.506385   3.185870
    16  C    2.780181   2.565465   3.677291   1.488131   2.581117
    17  H    3.859039   2.640888   2.380410   2.156541   1.102734
    18  H    5.642549   4.563841   4.692181   3.336766   2.099679
    19  H    5.679949   5.127655   5.881785   3.706939   3.631489
    20  H    6.835213   6.030696   6.516916   4.581834   3.927059
    21  H    7.962530   7.468327   8.249203   5.985327   5.779530
    22  H    7.985328   7.347579   8.017214   5.823464   5.348007
    23  H    6.538342   6.359899   7.383612   5.015541   5.333321
    24  H    7.935804   7.653688   8.596421   6.240410   6.292519
    25  H    6.181974   6.030626   7.019928   4.829206   5.139317
    26  H    6.889758   6.421153   7.194957   5.057392   4.862687
    27  H    2.486068   2.697058   3.877370   2.175551   3.446582
                    6          7          8          9         10
     6  N    0.000000
     7  C    1.495151   0.000000
     8  H    2.089982   1.121509   0.000000
     9  C    2.569009   1.547634   2.156180   0.000000
    10  C    3.882553   2.522802   2.653765   1.540346   0.000000
    11  C    4.394585   2.933176   3.136803   2.538627   1.536786
    12  C    3.820141   2.466699   2.549375   2.948761   2.545517
    13  C    2.525987   1.537807   2.124154   2.546023   3.007842
    14  H    2.736068   2.202858   2.499761   3.524538   4.011628
    15  N    3.167584   2.510296   3.415189   2.984807   3.563346
    16  C    3.084835   3.047993   4.061842   3.610796   4.550247
    17  H    2.103185   3.508521   4.044252   4.559866   5.934215
    18  H    1.022926   2.057440   2.346884   2.743377   4.078599
    19  H    2.925309   2.193016   3.087950   1.111015   2.184753
    20  H    2.763538   2.194405   2.543199   1.110758   2.173788
    21  H    4.731218   3.493846   3.700533   2.185977   1.112028
    22  H    4.116167   2.796107   2.457397   2.176145   1.112974
    23  H    4.706236   3.386901   3.888583   2.837504   2.171272
    24  H    5.409232   3.920768   3.909100   3.500788   2.181977
    25  H    4.672213   3.445541   3.580506   3.959132   3.501067
    26  H    4.010863   2.702459   2.295269   3.346321   2.827628
    27  H    4.086564   4.080322   5.123020   4.415092   5.294944
                   11         12         13         14         15
    11  C    0.000000
    12  C    1.544085   0.000000
    13  C    2.565711   1.553434   0.000000
    14  H    3.507241   2.167257   1.115512   0.000000
    15  N    2.973601   2.448760   1.464888   2.124967   0.000000
    16  C    4.201559   3.664159   2.372121   2.686351   1.294005
    17  H    6.279815   5.503965   4.010854   3.778777   4.258968
    18  H    4.892574   4.501897   3.391026   3.657002   4.080665
    19  H    2.839016   3.366797   2.792130   3.823138   2.642182
    20  H    3.492822   3.947079   3.509554   4.372045   3.999949
    21  H    2.180662   3.506161   3.994726   5.047902   4.287240
    22  H    2.168260   2.838722   3.451198   4.274581   4.337272
    23  H    1.113531   2.179965   2.835768   3.833379   2.654015
    24  H    1.111800   2.186737   3.525805   4.336542   3.980104
    25  H    2.179340   1.112123   2.187657   2.491302   2.681688
    26  H    2.180442   1.110304   2.189602   2.474712   3.409437
    27  H    4.866447   4.497291   3.374890   3.695651   2.055431
                   16         17         18         19         20
    16  C    0.000000
    17  H    3.549750   0.000000
    18  H    4.011805   2.460322   0.000000
    19  H    3.093606   4.619084   3.234703   0.000000
    20  H    4.436586   4.684711   2.513389   1.797371   0.000000
    21  H    5.214311   6.742001   4.826344   2.496129   2.529870
    22  H    5.324327   6.215761   4.162355   3.097724   2.470599
    23  H    3.824301   6.426908   5.285515   2.686115   3.847043
    24  H    5.243223   7.322994   5.853594   3.861646   4.330230
    25  H    3.891650   6.124833   5.453514   4.197033   5.002843
    26  H    4.522826   5.741516   4.554966   4.037494   4.155823
    27  H    1.100709   4.298474   4.956238   3.689488   5.221276
                   21         22         23         24         25
    21  H    0.000000
    22  H    1.799350   0.000000
    23  H    2.468172   3.084110   0.000000
    24  H    2.541471   2.468449   1.794897   0.000000
    25  H    4.336791   3.841741   2.486216   2.518616   0.000000
    26  H    3.851548   2.668252   3.096029   2.497120   1.794594
    27  H    5.810145   6.174328   4.268132   5.860876   4.569326
                   26         27
    26  H    0.000000
    27  H    5.447264   0.000000
 Symmetry turned off by external request.
 Stoichiometry    C9H13N3O2
 Framework group  C1[X(C9H13N3O2)]
 Deg. of freedom    75
 Full point group                 C1      NOp   1
 Rotational constants (GHZ):           1.6834357           0.4005925           0.3553950
 Standard basis: 6-31G(d) (6D, 7F)
   236 basis functions,   444 primitive gaussians,   236 cartesian basis functions
    52 alpha electrons       52 beta electrons
       nuclear repulsion energy       917.8051378817 Hartrees.
 NAtoms=   27 NActive=   27 NUniq=   27 SFac= 1.00D+00 NAtFMM=   60 NAOKFM=F Big=F
 Integral buffers will be    131072 words long.
 Raffenetti 1 integral format.
 Two-electron integral symmetry is turned off.
 One-electron integrals computed using PRISM.
 NBasis=   236 RedAO= T EigKep=  1.29D-03  NBF=   236
 NBsUse=   236 1.00D-06 EigRej= -1.00D+00 NBFU=   236
 ExpMin= 1.61D-01 ExpMax= 5.48D+03 ExpMxC= 8.25D+02 IAcc=3 IRadAn=         5 AccDes= 0.00D+00
 Harris functional with IExCor=  205 and IRadAn=       5 diagonalized for initial guess.
 HarFok:  IExCor=  205 AccDes= 0.00D+00 IRadAn=         5 IDoV= 1 UseB2=F ITyADJ=14
 ICtDFT=  3500011 ScaDFX=  1.000000  1.000000  1.000000  1.000000
 FoFCou: FMM=F IPFlag=           0 FMFlag=      100000 FMFlg1=           0
         NFxFlg=           0 DoJE=T BraDBF=F KetDBF=T FulRan=T
         wScrn=  0.000000 ICntrl=       500 IOpCl=  0 I1Cent=   200000004 NGrid=           0
         NMat0=    1 NMatS0=      1 NMatT0=    0 NMatD0=    1 NMtDS0=    0 NMtDT0=    0
 Symmetry not used in FoFCou.
 Keep R1 ints in memory in canonical form, NReq=397720213.
 Requested convergence on RMS density matrix=1.00D-08 within 128 cycles.
 Requested convergence on MAX density matrix=1.00D-06.
 Requested convergence on             energy=1.00D-06.
 No special actions if energy rises.
 SCF Done:  E(RHF) =  -661.278049725     A.U. after   16 cycles
            NFock= 16  Conv=0.86D-08     -V/T= 2.0037
 ExpMin= 1.61D-01 ExpMax= 5.48D+03 ExpMxC= 8.25D+02 IAcc=3 IRadAn=         5 AccDes= 0.00D+00
 HarFok:  IExCor=  205 AccDes= 0.00D+00 IRadAn=         5 IDoV=-2 UseB2=F ITyADJ=14
 ICtDFT= 12500011 ScaDFX=  1.000000  1.000000  1.000000  1.000000
 Range of M.O.s used for correlation:    15   236
 NBasis=   236 NAE=    52 NBE=    52 NFC=    14 NFV=     0
 NROrb=    222 NOA=    38 NOB=    38 NVA=   184 NVB=   184
 Fully direct method using O(ONN) memory.
 JobTyp=1 Pass  1:  I=  15 to  52 NPSUse=  4 ParTrn=T ParDer=T DoDerP=T.
 Spin components of T(2) and E(2):
     alpha-alpha T2 =       0.9194525120D-01 E2=     -0.2717249640D+00
     alpha-beta  T2 =       0.5000782527D+00 E2=     -0.1494106165D+01
     beta-beta   T2 =       0.9194525120D-01 E2=     -0.2717249640D+00
 ANorm=    0.1297678217D+01
 E2 =    -0.2037556093D+01 EUMP2 =    -0.66331560581842D+03
          IDoAtm=111111111111111111111111111
          Differentiating once with respect to electric field.
                with respect to dipole field.
          Differentiating once with respect to nuclear coordinates.
 Keep R1 ints in memory in canonical form, NReq=397723379.
          There are     1 degrees of freedom in the 1st order CPHF.  IDoFFX=0 NUNeed=     1.
 LinEq1:  Iter=  0 NonCon=     1 RMS=4.59D-03 Max=1.09D-01 NDo=     1
 AX will form     1 AO Fock derivatives at one time.
 LinEq1:  Iter=  1 NonCon=     1 RMS=1.56D-03 Max=3.20D-02 NDo=     1
 LinEq1:  Iter=  2 NonCon=     1 RMS=6.38D-04 Max=1.74D-02 NDo=     1
 LinEq1:  Iter=  3 NonCon=     1 RMS=2.94D-04 Max=9.05D-03 NDo=     1
 LinEq1:  Iter=  4 NonCon=     1 RMS=9.05D-05 Max=2.08D-03 NDo=     1
 LinEq1:  Iter=  5 NonCon=     1 RMS=3.80D-05 Max=1.94D-03 NDo=     1
 LinEq1:  Iter=  6 NonCon=     1 RMS=1.56D-05 Max=5.92D-04 NDo=     1
 LinEq1:  Iter=  7 NonCon=     1 RMS=6.06D-06 Max=1.07D-04 NDo=     1
 LinEq1:  Iter=  8 NonCon=     1 RMS=2.43D-06 Max=6.29D-05 NDo=     1
 LinEq1:  Iter=  9 NonCon=     1 RMS=9.19D-07 Max=2.62D-05 NDo=     1
 LinEq1:  Iter= 10 NonCon=     1 RMS=4.50D-07 Max=1.50D-05 NDo=     1
 LinEq1:  Iter= 11 NonCon=     1 RMS=1.58D-07 Max=5.78D-06 NDo=     1
 LinEq1:  Iter= 12 NonCon=     1 RMS=5.54D-08 Max=8.33D-07 NDo=     1
 LinEq1:  Iter= 13 NonCon=     1 RMS=1.77D-08 Max=3.92D-07 NDo=     1
 LinEq1:  Iter= 14 NonCon=     1 RMS=5.81D-09 Max=1.62D-07 NDo=     1
 LinEq1:  Iter= 15 NonCon=     1 RMS=2.20D-09 Max=5.13D-08 NDo=     1
 LinEq1:  Iter= 16 NonCon=     1 RMS=8.37D-10 Max=1.33D-08 NDo=     1
 LinEq1:  Iter= 17 NonCon=     1 RMS=2.74D-10 Max=4.19D-09 NDo=     1
 LinEq1:  Iter= 18 NonCon=     1 RMS=9.26D-11 Max=1.07D-09 NDo=     1
 LinEq1:  Iter= 19 NonCon=     0 RMS=3.02D-11 Max=4.24D-10 NDo=     1
 Linear equations converged to 1.000D-10 1.000D-09 after    19 iterations.
 End of Minotr F.D. properties file   721 does not exist.
 End of Minotr F.D. properties file   722 does not exist.
 End of Minotr F.D. properties file   788 does not exist.

 **********************************************************************

            Population analysis using the SCF Density.

 **********************************************************************

 Alpha  occ. eigenvalues --  -20.59902 -20.59441 -15.85324 -15.62889 -15.57149
 Alpha  occ. eigenvalues --  -11.35754 -11.30548 -11.30171 -11.30018 -11.27731
 Alpha  occ. eigenvalues --  -11.24622 -11.23867 -11.23423 -11.22868  -1.58544
 Alpha  occ. eigenvalues --   -1.38052  -1.28408  -1.22804  -1.13234  -1.08356
 Alpha  occ. eigenvalues --   -1.01814  -1.00617  -0.93511  -0.88970  -0.84933
 Alpha  occ. eigenvalues --   -0.81540  -0.78089  -0.76866  -0.74233  -0.71012
 Alpha  occ. eigenvalues --   -0.70388  -0.69816  -0.67433  -0.64414  -0.63301
 Alpha  occ. eigenvalues --   -0.61566  -0.60603  -0.57433  -0.56410  -0.54892
 Alpha  occ. eigenvalues --   -0.53369  -0.50748  -0.49142  -0.48474  -0.47730
 Alpha  occ. eigenvalues --   -0.47549  -0.46088  -0.45743  -0.44033  -0.42120
 Alpha  occ. eigenvalues --   -0.40273  -0.33840
 Alpha virt. eigenvalues --    0.07118   0.11717   0.18591   0.21371   0.23243
 Alpha virt. eigenvalues --    0.24089   0.26224   0.27615   0.28574   0.28860
 Alpha virt. eigenvalues --    0.29936   0.31001   0.31876   0.32218   0.33351
 Alpha virt. eigenvalues --    0.33715   0.34206   0.35542   0.37594   0.38535
 Alpha virt. eigenvalues --    0.40748   0.42028   0.44765   0.45397   0.45631
 Alpha virt. eigenvalues --    0.45823   0.49592   0.53100   0.57636   0.58871
 Alpha virt. eigenvalues --    0.63301   0.69085   0.69586   0.72108   0.73955
 Alpha virt. eigenvalues --    0.75043   0.75770   0.75822   0.77557   0.79547
 Alpha virt. eigenvalues --    0.80401   0.83637   0.85163   0.85399   0.88079
 Alpha virt. eigenvalues --    0.88860   0.90267   0.90972   0.91879   0.93905
 Alpha virt. eigenvalues --    0.95565   0.97181   0.98582   1.00207   1.01923
 Alpha virt. eigenvalues --    1.02710   1.05150   1.06214   1.06886   1.08491
 Alpha virt. eigenvalues --    1.09436   1.10446   1.11033   1.11782   1.13245
 Alpha virt. eigenvalues --    1.13759   1.14325   1.15134   1.16332   1.17354
 Alpha virt. eigenvalues --    1.17841   1.19746   1.20888   1.22116   1.23133
 Alpha virt. eigenvalues --    1.23413   1.24430   1.25905   1.27227   1.27388
 Alpha virt. eigenvalues --    1.29367   1.31357   1.32820   1.35431   1.40010
 Alpha virt. eigenvalues --    1.42713   1.45442   1.47103   1.48423   1.52026
 Alpha virt. eigenvalues --    1.53280   1.55168   1.61035   1.61390   1.66045
 Alpha virt. eigenvalues --    1.69197   1.70167   1.72415   1.73677   1.76621
 Alpha virt. eigenvalues --    1.78815   1.79404   1.84188   1.88678   1.92595
 Alpha virt. eigenvalues --    1.93753   1.96243   1.97813   1.99232   2.00227
 Alpha virt. eigenvalues --    2.03168   2.04146   2.05798   2.08667   2.11932
 Alpha virt. eigenvalues --    2.12538   2.14824   2.17864   2.18679   2.19088
 Alpha virt. eigenvalues --    2.21056   2.22175   2.24249   2.24962   2.26693
 Alpha virt. eigenvalues --    2.29097   2.32351   2.34084   2.35806   2.36212
 Alpha virt. eigenvalues --    2.38316   2.39784   2.41169   2.43043   2.46072
 Alpha virt. eigenvalues --    2.48430   2.50260   2.51617   2.56683   2.57238
 Alpha virt. eigenvalues --    2.60909   2.62678   2.66477   2.68300   2.68814
 Alpha virt. eigenvalues --    2.70048   2.70609   2.74986   2.77877   2.80818
 Alpha virt. eigenvalues --    2.84056   2.86656   2.90231   2.91716   2.95518
 Alpha virt. eigenvalues --    2.97788   2.98443   3.02297   3.02982   3.05686
 Alpha virt. eigenvalues --    3.06751   3.12015   3.19752   3.22488   3.27169
 Alpha virt. eigenvalues --    3.29574   3.33388   3.36836   3.43394   3.58949
 Alpha virt. eigenvalues --    4.09489   4.23035   4.32142   4.36079   4.42826
 Alpha virt. eigenvalues --    4.52774   4.59740   4.59899   4.70810   4.77307
 Alpha virt. eigenvalues --    4.95514   4.99168   5.02424   5.10206
          Condensed to atoms (all electrons):
               1          2          3          4          5          6
     1  O    8.299035   0.313379  -0.089319  -0.079442   0.003409  -0.000015
     2  N    0.313379   5.685962   0.308257   0.263623  -0.044628   0.000945
     3  O   -0.089319   0.308257   8.329922  -0.086651   0.007831   0.000446
     4  C   -0.079442   0.263623  -0.086651   5.239363   0.569776  -0.050452
     5  C    0.003409  -0.044628   0.007831   0.569776   4.668377   0.306593
     6  N   -0.000015   0.000945   0.000446  -0.050452   0.306593   7.203502
     7  C    0.000003  -0.000093   0.000001   0.003316  -0.030149   0.197047
     8  H   -0.000000   0.000002  -0.000000  -0.000107   0.001821  -0.052454
     9  C   -0.000000  -0.000003   0.000000   0.000378   0.002120  -0.054186
    10  C   -0.000000   0.000000  -0.000000  -0.000014  -0.000073   0.003258
    11  C   -0.000000  -0.000000  -0.000000  -0.000018   0.000015  -0.000153
    12  C   -0.000000   0.000002  -0.000000  -0.000020  -0.000098   0.003563
    13  C   -0.000022  -0.000041  -0.000003  -0.012114   0.000476  -0.042248
    14  H   -0.000004  -0.000049  -0.000000   0.003263   0.005568  -0.005656
    15  N    0.000090   0.001643  -0.000014  -0.060729  -0.004041   0.001959
    16  C    0.003994  -0.028285   0.001892   0.320170  -0.040361  -0.001872
    17  H    0.000108  -0.003630   0.011105  -0.029269   0.378965  -0.034400
    18  H    0.000000  -0.000036   0.000008   0.000747  -0.023345   0.327565
    19  H    0.000000   0.000001   0.000000  -0.000592   0.000400   0.000916
    20  H    0.000000  -0.000000   0.000000  -0.000022   0.000038  -0.002108
    21  H   -0.000000  -0.000000   0.000000   0.000000   0.000001  -0.000056
    22  H   -0.000000   0.000000  -0.000000  -0.000000  -0.000003  -0.000100
    23  H    0.000000  -0.000000   0.000000   0.000023  -0.000000  -0.000024
    24  H    0.000000   0.000000   0.000000   0.000000  -0.000000   0.000004
    25  H    0.000000  -0.000000   0.000000   0.000018  -0.000001  -0.000070
    26  H    0.000000  -0.000000   0.000000   0.000007  -0.000002  -0.000066
    27  H    0.004845  -0.000174  -0.000009  -0.064792   0.002183   0.000074
               7          8          9         10         11         12
     1  O    0.000003  -0.000000  -0.000000  -0.000000  -0.000000  -0.000000
     2  N   -0.000093   0.000002  -0.000003   0.000000  -0.000000   0.000002
     3  O    0.000001  -0.000000   0.000000  -0.000000  -0.000000  -0.000000
     4  C    0.003316  -0.000107   0.000378  -0.000014  -0.000018  -0.000020
     5  C   -0.030149   0.001821   0.002120  -0.000073   0.000015  -0.000098
     6  N    0.197047  -0.052454  -0.054186   0.003258  -0.000153   0.003563
     7  C    4.990644   0.418460   0.339148  -0.048866  -0.007588  -0.063353
     8  H    0.418460   0.552106  -0.060420   0.001623  -0.000387  -0.002790
     9  C    0.339148  -0.060420   5.180449   0.317568  -0.052972  -0.006489
    10  C   -0.048866   0.001623   0.317568   5.126469   0.332750  -0.059861
    11  C   -0.007588  -0.000387  -0.052972   0.332750   5.123028   0.330788
    12  C   -0.063353  -0.002790  -0.006489  -0.059861   0.330788   5.136294
    13  C    0.336546  -0.043480  -0.047803  -0.002166  -0.047830   0.367280
    14  H   -0.039881  -0.000945   0.003852  -0.000391   0.003947  -0.040873
    15  N   -0.057790   0.004199  -0.012541   0.001470  -0.007380  -0.073616
    16  C   -0.003109   0.000063  -0.001045  -0.000008  -0.000005   0.002799
    17  H    0.001486  -0.000010  -0.000063   0.000001   0.000000   0.000001
    18  H   -0.027684  -0.002189   0.000791  -0.000122   0.000011  -0.000128
    19  H   -0.035112   0.004133   0.385320  -0.032554  -0.002327   0.000659
    20  H   -0.041541  -0.001881   0.397563  -0.037445   0.004147  -0.000354
    21  H    0.004023  -0.000076  -0.035900   0.400288  -0.035916   0.004204
    22  H   -0.004089   0.003460  -0.045648   0.395967  -0.045539  -0.001285
    23  H    0.000392   0.000034  -0.002015  -0.040224   0.396783  -0.036957
    24  H   -0.000140  -0.000095   0.004386  -0.038427   0.400318  -0.037748
    25  H    0.004924  -0.000004  -0.000364   0.004099  -0.034048   0.395674
    26  H   -0.004480   0.001711   0.001005  -0.002406  -0.042339   0.394676
    27  H   -0.000405   0.000009  -0.000060   0.000005   0.000004  -0.000020
              13         14         15         16         17         18
     1  O   -0.000022  -0.000004   0.000090   0.003994   0.000108   0.000000
     2  N   -0.000041  -0.000049   0.001643  -0.028285  -0.003630  -0.000036
     3  O   -0.000003  -0.000000  -0.000014   0.001892   0.011105   0.000008
     4  C   -0.012114   0.003263  -0.060729   0.320170  -0.029269   0.000747
     5  C    0.000476   0.005568  -0.004041  -0.040361   0.378965  -0.023345
     6  N   -0.042248  -0.005656   0.001959  -0.001872  -0.034400   0.327565
     7  C    0.336546  -0.039881  -0.057790  -0.003109   0.001486  -0.027684
     8  H   -0.043480  -0.000945   0.004199   0.000063  -0.000010  -0.002189
     9  C   -0.047803   0.003852  -0.012541  -0.001045  -0.000063   0.000791
    10  C   -0.002166  -0.000391   0.001470  -0.000008   0.000001  -0.000122
    11  C   -0.047830   0.003947  -0.007380  -0.000005   0.000000   0.000011
    12  C    0.367280  -0.040873  -0.073616   0.002799   0.000001  -0.000128
    13  C    5.032420   0.400735   0.237715  -0.070839  -0.000039   0.003539
    14  H    0.400735   0.520979  -0.036037  -0.004900   0.000090   0.000012
    15  N    0.237715  -0.036037   6.928238   0.585331  -0.000071  -0.000118
    16  C   -0.070839  -0.004900   0.585331   4.705808   0.001631  -0.000227
    17  H   -0.000039   0.000090  -0.000071   0.001631   0.388875  -0.001608
    18  H    0.003539   0.000012  -0.000118  -0.000227  -0.001608   0.322296
    19  H   -0.006510   0.000066   0.007025   0.002591   0.000010  -0.000122
    20  H    0.003827  -0.000048   0.000065  -0.000030  -0.000000   0.003074
    21  H   -0.000364   0.000009  -0.000024   0.000002  -0.000000  -0.000000
    22  H    0.000338  -0.000045   0.000001  -0.000001   0.000000   0.000002
    23  H   -0.005674   0.000007   0.006582   0.000040   0.000000   0.000000
    24  H    0.004114  -0.000058   0.000041   0.000005   0.000000  -0.000000
    25  H   -0.034567  -0.002618   0.000549  -0.000060  -0.000000   0.000002
    26  H   -0.044588  -0.000977   0.004164  -0.000069   0.000000  -0.000000
    27  H    0.004925  -0.000183  -0.039385   0.401553  -0.000057   0.000003
              19         20         21         22         23         24
     1  O    0.000000   0.000000  -0.000000  -0.000000   0.000000   0.000000
     2  N    0.000001  -0.000000  -0.000000   0.000000  -0.000000   0.000000
     3  O    0.000000   0.000000   0.000000  -0.000000   0.000000   0.000000
     4  C   -0.000592  -0.000022   0.000000  -0.000000   0.000023   0.000000
     5  C    0.000400   0.000038   0.000001  -0.000003  -0.000000  -0.000000
     6  N    0.000916  -0.002108  -0.000056  -0.000100  -0.000024   0.000004
     7  C   -0.035112  -0.041541   0.004023  -0.004089   0.000392  -0.000140
     8  H    0.004133  -0.001881  -0.000076   0.003460   0.000034  -0.000095
     9  C    0.385320   0.397563  -0.035900  -0.045648  -0.002015   0.004386
    10  C   -0.032554  -0.037445   0.400288   0.395967  -0.040224  -0.038427
    11  C   -0.002327   0.004147  -0.035916  -0.045539   0.396783   0.400318
    12  C    0.000659  -0.000354   0.004204  -0.001285  -0.036957  -0.037748
    13  C   -0.006510   0.003827  -0.000364   0.000338  -0.005674   0.004114
    14  H    0.000066  -0.000048   0.000009  -0.000045   0.000007  -0.000058
    15  N    0.007025   0.000065  -0.000024   0.000001   0.006582   0.000041
    16  C    0.002591  -0.000030   0.000002  -0.000001   0.000040   0.000005
    17  H    0.000010  -0.000000  -0.000000   0.000000   0.000000   0.000000
    18  H   -0.000122   0.003074  -0.000000   0.000002   0.000000  -0.000000
    19  H    0.507794  -0.024109  -0.002589   0.003767   0.001662  -0.000069
    20  H   -0.024109   0.550177  -0.002602  -0.002971  -0.000050  -0.000090
    21  H   -0.002589  -0.002602   0.526273  -0.024704  -0.002825  -0.002047
    22  H    0.003767  -0.002971  -0.024704   0.568123   0.004070  -0.003580
    23  H    0.001662  -0.000050  -0.002825   0.004070   0.510884  -0.024975
    24  H   -0.000069  -0.000090  -0.002047  -0.003580  -0.024975   0.540619
    25  H   -0.000028   0.000011  -0.000086  -0.000082  -0.002131  -0.002361
    26  H    0.000024  -0.000035  -0.000075   0.002474   0.003844  -0.002792
    27  H    0.000074  -0.000000  -0.000000   0.000000  -0.000020  -0.000000
              25         26         27
     1  O    0.000000   0.000000   0.004845
     2  N   -0.000000  -0.000000  -0.000174
     3  O    0.000000   0.000000  -0.000009
     4  C    0.000018   0.000007  -0.064792
     5  C   -0.000001  -0.000002   0.002183
     6  N   -0.000070  -0.000066   0.000074
     7  C    0.004924  -0.004480  -0.000405
     8  H   -0.000004   0.001711   0.000009
     9  C   -0.000364   0.001005  -0.000060
    10  C    0.004099  -0.002406   0.000005
    11  C   -0.034048  -0.042339   0.000004
    12  C    0.395674   0.394676  -0.000020
    13  C   -0.034567  -0.044588   0.004925
    14  H   -0.002618  -0.000977  -0.000183
    15  N    0.000549   0.004164  -0.039385
    16  C   -0.000060  -0.000069   0.401553
    17  H   -0.000000   0.000000  -0.000057
    18  H    0.000002  -0.000000   0.000003
    19  H   -0.000028   0.000024   0.000074
    20  H    0.000011  -0.000035  -0.000000
    21  H   -0.000086  -0.000075  -0.000000
    22  H   -0.000082   0.002474   0.000000
    23  H   -0.002131   0.003844  -0.000020
    24  H   -0.002361  -0.002792  -0.000000
    25  H    0.510844  -0.023128  -0.000009
    26  H   -0.023128   0.560415   0.000001
    27  H   -0.000009   0.000001   0.453860
 Mulliken charges:
               1
     1  O   -0.456061
     2  N    0.503126
     3  O   -0.483468
     4  C   -0.016463
     5  C    0.195126
     6  N   -0.802013
     7  C    0.068291
     8  H    0.177217
     9  C   -0.313073
    10  C   -0.320941
    11  C   -0.315289
    12  C   -0.312349
    13  C   -0.033630
    14  H    0.194138
    15  N   -0.487327
    16  C    0.124932
    17  H    0.286878
    18  H    0.397529
    19  H    0.189570
    20  H    0.154383
    21  H    0.172464
    22  H    0.149845
    23  H    0.190572
    24  H    0.162894
    25  H    0.183436
    26  H    0.152636
    27  H    0.237578
 Sum of Mulliken charges =  -0.00000
 Mulliken charges with hydrogens summed into heavy atoms:
               1
     1  O   -0.456061
     2  N    0.503126
     3  O   -0.483468
     4  C   -0.016463
     5  C    0.482004
     6  N   -0.404484
     7  C    0.245508
     9  C    0.030880
    10  C    0.001369
    11  C    0.038176
    12  C    0.023724
    13  C    0.160508
    15  N   -0.487327
    16  C    0.362509
 Electronic spatial extent (au):  <R**2>=           3122.7299
 Charge=              0.0000 electrons
 Dipole moment (field-independent basis, Debye):
    X=              5.2836    Y=              4.4443    Z=              0.3335  Tot=              6.9123
 Quadrupole moment (field-independent basis, Debye-Ang):
   XX=           -105.2442   YY=            -80.6182   ZZ=            -82.0681
   XY=             -2.1818   XZ=              1.5390   YZ=             -0.2060
 Traceless Quadrupole moment (field-independent basis, Debye-Ang):
   XX=            -15.9340   YY=              8.6920   ZZ=              7.2420
   XY=             -2.1818   XZ=              1.5390   YZ=             -0.2060
 Octapole moment (field-independent basis, Debye-Ang**2):
  XXX=            100.0560  YYY=             36.9077  ZZZ=             -6.2325  XYY=             -1.1801
  XXY=             12.5510  XXZ=             -4.6045  XZZ=             -8.7130  YZZ=             -2.6825
  YYZ=             -0.6192  XYZ=             -2.1298
 Hexadecapole moment (field-independent basis, Debye-Ang**3):
 XXXX=          -3551.8584 YYYY=           -621.5839 ZZZZ=           -298.4426 XXXY=            -50.9563
 XXXZ=             60.6048 YYYX=            -28.7578 YYYZ=              7.9879 ZZZX=             39.3910
 ZZZY=             10.6748 XXYY=           -656.9293 XXZZ=           -543.3499 YYZZ=           -163.6118
 XXYZ=              2.4737 YYXZ=             15.8270 ZZXY=              0.6106
 N-N= 9.178051378817D+02 E-N=-3.381619563113D+03  KE= 6.588543182868D+02
 Calling FoFJK, ICntrl=  10002127 FMM=F ISym2X=0 I1Cent= 0 IOpClX= 0 NMat=1 NMatS=1 NMatT=0.
 -------------------------------------------------------------------
 Center     Atomic                   Forces (Hartrees/Bohr)
 Number     Number              X              Y              Z
 -------------------------------------------------------------------
      1        8           0.002418510   -0.019483387   -0.004166382
      2        7           0.038624497    0.014349171   -0.001831933
      3        8          -0.005390300    0.015307189    0.004248925
      4        6          -0.002454061    0.010900363    0.010598769
      5        6           0.001203770   -0.017778885   -0.009785520
      6        7           0.016043734   -0.012291935   -0.004234345
      7        6          -0.004195652    0.004544837    0.006067374
      8        1          -0.008300896   -0.000940665   -0.009254168
      9        6          -0.004242579   -0.000006870   -0.002167323
     10        6           0.003023005   -0.000712011    0.001258268
     11        6          -0.001637225   -0.004677052   -0.002662455
     12        6           0.001352532   -0.008297405   -0.002485525
     13        6           0.009715695   -0.002786464    0.005212206
     14        1           0.000580089    0.004862685   -0.009899260
     15        7          -0.001789716    0.004496084   -0.002542453
     16        6          -0.020835956    0.004768199    0.006781867
     17        1           0.006262592   -0.005099026   -0.008827949
     18        1          -0.016891063   -0.001461463    0.008620430
     19        1           0.002975317    0.006076169    0.007755367
     20        1          -0.003352337   -0.007291129    0.002472585
     21        1          -0.004658127    0.002407159    0.009493615
     22        1          -0.003786786   -0.004014134   -0.007554051
     23        1           0.003940090    0.006108885    0.009297916
     24        1          -0.009338922    0.002652486   -0.002356054
     25        1          -0.000731190    0.010588374   -0.002397977
     26        1          -0.004749010   -0.004823635   -0.004493346
     27        1           0.006213989    0.002602459    0.002851417
 -------------------------------------------------------------------
 Cartesian Forces:  Max     0.038624497 RMS     0.008594215

 GradGradGradGradGradGradGradGradGradGradGradGradGradGradGradGradGradGrad
 Berny optimization.
 FormGI is forming the generalized inverse of G from B-inverse, IUseBI=4.
 Internal  Forces:  Max     0.037026255 RMS     0.006819555
 Search for a local minimum.
 Step number   1 out of a maximum of   20
 All quantities printed in internal units (Hartrees-Bohrs-Radians)
 Mixed Optimization -- RFO/linear search
 Second derivative matrix not updated -- first step.
 ITU=  0
     Eigenvalues ---    0.00231   0.00787   0.01040   0.01164   0.01213
     Eigenvalues ---    0.01516   0.01541   0.01946   0.02012   0.02081
     Eigenvalues ---    0.02666   0.03360   0.03834   0.04556   0.04764
     Eigenvalues ---    0.04875   0.05133   0.05286   0.05649   0.06224
     Eigenvalues ---    0.07198   0.07720   0.07740   0.07888   0.07994
     Eigenvalues ---    0.08051   0.08097   0.10472   0.11746   0.12271
     Eigenvalues ---    0.13577   0.15321   0.15702   0.15996   0.15999
     Eigenvalues ---    0.20062   0.21689   0.22995   0.24989   0.25000
     Eigenvalues ---    0.25000   0.25344   0.26131   0.26679   0.28022
     Eigenvalues ---    0.28100   0.28440   0.29802   0.31340   0.31411
     Eigenvalues ---    0.32023   0.32229   0.32287   0.32376   0.32386
     Eigenvalues ---    0.32410   0.32493   0.32520   0.32568   0.33168
     Eigenvalues ---    0.33382   0.33604   0.35319   0.43875   0.44127
     Eigenvalues ---    0.48847   0.66407   0.90454   0.911911000.00000
     Eigenvalues --- 1000.000001000.000001000.000001000.000001000.00000
     Eigenvalues --- 1000.000001000.000001000.000001000.000001000.00000
     Eigenvalues --- 1000.000001000.000001000.000001000.000001000.00000
     Eigenvalues --- 1000.000001000.000001000.000001000.000001000.00000
     Eigenvalues --- 1000.000001000.000001000.000001000.000001000.00000
     Eigenvalues --- 1000.000001000.000001000.000001000.000001000.00000
     Eigenvalues --- 1000.000001000.000001000.000001000.000001000.00000
     Eigenvalues --- 1000.000001000.000001000.000001000.000001000.00000
     Eigenvalues --- 1000.000001000.000001000.000001000.000001000.00000
     Eigenvalues --- 1000.000001000.000001000.000001000.000001000.00000
     Eigenvalues --- 1000.000001000.000001000.000001000.000001000.00000
     Eigenvalues --- 1000.000001000.000001000.000001000.000001000.00000
     Eigenvalues --- 1000.000001000.000001000.000001000.000001000.00000
     Eigenvalues --- 1000.000001000.000001000.000001000.000001000.00000
     Eigenvalues --- 1000.000001000.000001000.000001000.000001000.00000
     Eigenvalues --- 1000.000001000.000001000.000001000.000001000.00000
     Eigenvalues --- 1000.000001000.000001000.000001000.000001000.00000
     Eigenvalues --- 1000.000001000.000001000.000001000.000001000.00000
     Eigenvalues --- 1000.00000
 RFO step:  Lambda=-2.38003169D-02 EMin= 2.31165772D-03
 Linear search not attempted -- first point.
 Iteration  1 RMS(Cart)=  0.05312161 RMS(Int)=  0.00108575
 Iteration  2 RMS(Cart)=  0.00112942 RMS(Int)=  0.00029824
 Iteration  3 RMS(Cart)=  0.00000106 RMS(Int)=  0.00029824
 Iteration  4 RMS(Cart)=  0.00000000 RMS(Int)=  0.00029824
 Iteration  1 RMS(Cart)=  0.00002872 RMS(Int)=  0.00003456
 Iteration  2 RMS(Cart)=  0.00001827 RMS(Int)=  0.00003822
 Iteration  3 RMS(Cart)=  0.00001206 RMS(Int)=  0.00004376
 Iteration  4 RMS(Cart)=  0.00000809 RMS(Int)=  0.00004830
 Iteration  5 RMS(Cart)=  0.00000546 RMS(Int)=  0.00005161
 Iteration  6 RMS(Cart)=  0.00000371 RMS(Int)=  0.00005392
 Iteration  7 RMS(Cart)=  0.00000252 RMS(Int)=  0.00005552
 Iteration  8 RMS(Cart)=  0.00000172 RMS(Int)=  0.00005660
 Iteration  9 RMS(Cart)=  0.00000119 RMS(Int)=  0.00005734
 Iteration 10 RMS(Cart)=  0.00000082 RMS(Int)=  0.00005784
 Variable       Old X    -DE/DX   Delta X   Delta X   Delta X     New X
                                 (Linear)    (Quad)   (Total)
    R1        2.32389   0.01839   0.00000   0.01966   0.01966   2.34354
    R2        2.32725   0.01566   0.00000   0.01687   0.01687   2.34412
    R3        2.88359  -0.03703   0.00000  -0.11505  -0.11505   2.76854
    R4        2.64581  -0.03579   0.00000  -0.07708  -0.07683   2.56899
    R5        2.81216  -0.02104   0.00000  -0.05858  -0.05837   2.75379
    R6        2.59113  -0.02189   0.00000  -0.04364  -0.04352   2.54760
    R7        2.08387  -0.01023   0.00000  -0.02860  -0.02860   2.05527
    R8        2.82543  -0.01937   0.00000  -0.05535  -0.05537   2.77005
    R9        1.93305  -0.00703   0.00000  -0.01520  -0.01520   1.91785
   R10        2.11934  -0.01160   0.00000  -0.03432  -0.03432   2.08502
   R11        2.92460  -0.01323   0.00000  -0.04571  -0.04577   2.87883
   R12        2.90603  -0.00586   0.00000  -0.01233  -0.01231   2.89372
   R13        2.91083  -0.00483   0.00000  -0.01425  -0.01427   2.89656
   R14        2.09951  -0.01008   0.00000  -0.02890  -0.02890   2.07061
   R15        2.09903  -0.00797   0.00000  -0.02285  -0.02285   2.07618
   R16        2.90411  -0.00189   0.00000  -0.00718  -0.00721   2.89690
   R17        2.10143  -0.01060   0.00000  -0.03048  -0.03048   2.07095
   R18        2.10322  -0.00906   0.00000  -0.02614  -0.02614   2.07707
   R19        2.91790  -0.00906   0.00000  -0.02793  -0.02787   2.89002
   R20        2.10427  -0.01167   0.00000  -0.03372  -0.03372   2.07055
   R21        2.10100  -0.00997   0.00000  -0.02864  -0.02864   2.07235
   R22        2.93556  -0.01042   0.00000  -0.03673  -0.03671   2.89885
   R23        2.10161  -0.01071   0.00000  -0.03082  -0.03082   2.07079
   R24        2.09817  -0.00790   0.00000  -0.02261  -0.02261   2.07556
   R25        2.10801  -0.00896   0.00000  -0.02606  -0.02606   2.08195
   R26        2.76824  -0.00464   0.00000  -0.01054  -0.01095   2.75729
   R27        2.44532  -0.00730   0.00000  -0.00959  -0.00972   2.43559
   R28        2.08004  -0.00626   0.00000  -0.01739  -0.01739   2.06265
    A1        2.16009   0.01077   0.00000   0.03951   0.03932   2.19941
    A2        2.05314  -0.00786   0.00000  -0.02853  -0.02872   2.02442
    A3        2.06980  -0.00290   0.00000  -0.01040  -0.01059   2.05921
    A4        2.03603  -0.00610   0.00000  -0.02149  -0.02176   2.01427
    A5        2.03631  -0.00361   0.00000  -0.01230  -0.01260   2.02371
    A6        2.21043   0.00968   0.00000   0.03305   0.03328   2.24371
    A7        2.18924   0.00595   0.00000   0.01670   0.01692   2.20616
    A8        2.06856  -0.00337   0.00000  -0.01033  -0.01061   2.05796
    A9        2.02517  -0.00256   0.00000  -0.00585  -0.00612   2.01905
   A10        2.24227  -0.00455   0.00000  -0.01561  -0.01579   2.22648
   A11        2.12747  -0.01265   0.00000  -0.06938  -0.07003   2.05744
   A12        1.88701   0.01732   0.00000   0.09419   0.09423   1.98124
   A13        1.83469  -0.00049   0.00000  -0.01448  -0.01436   1.82032
   A14        2.01031  -0.00197   0.00000  -0.00981  -0.00980   2.00051
   A15        1.96833   0.00066   0.00000   0.00133   0.00097   1.96930
   A16        1.86185   0.00192   0.00000   0.03246   0.03222   1.89408
   A17        1.83159   0.00117   0.00000   0.00092   0.00085   1.83244
   A18        1.94101  -0.00083   0.00000  -0.00733  -0.00699   1.93402
   A19        1.91229  -0.00004   0.00000  -0.00494  -0.00510   1.90719
   A20        1.92099  -0.00069   0.00000  -0.01185  -0.01181   1.90918
   A21        1.92313  -0.00155   0.00000  -0.00751  -0.00748   1.91565
   A22        1.91846  -0.00033   0.00000   0.00765   0.00763   1.92610
   A23        1.90391   0.00310   0.00000   0.02267   0.02268   1.92658
   A24        1.88483  -0.00047   0.00000  -0.00562  -0.00589   1.87895
   A25        1.94040  -0.00105   0.00000   0.00573   0.00564   1.94603
   A26        1.91909  -0.00067   0.00000  -0.00666  -0.00669   1.91241
   A27        1.90486   0.00039   0.00000  -0.00308  -0.00314   1.90172
   A28        1.91612   0.00091   0.00000   0.00740   0.00744   1.92356
   A29        1.89846   0.00168   0.00000   0.01063   0.01065   1.90911
   A30        1.88386  -0.00125   0.00000  -0.01451  -0.01459   1.86928
   A31        1.94477   0.00040   0.00000   0.00341   0.00348   1.94825
   A32        1.90194   0.00076   0.00000   0.00615   0.00612   1.90806
   A33        1.91814   0.00035   0.00000   0.00547   0.00546   1.92359
   A34        1.90504  -0.00089   0.00000  -0.01227  -0.01229   1.89275
   A35        1.91590  -0.00049   0.00000  -0.00011  -0.00017   1.91573
   A36        1.87667  -0.00014   0.00000  -0.00298  -0.00301   1.87366
   A37        1.95217  -0.00277   0.00000  -0.01650  -0.01648   1.93569
   A38        1.90560   0.00263   0.00000   0.01786   0.01774   1.92334
   A39        1.90891   0.00127   0.00000   0.01222   0.01216   1.92106
   A40        1.90577  -0.00006   0.00000  -0.00344  -0.00331   1.90246
   A41        1.91019  -0.00015   0.00000  -0.00561  -0.00556   1.90463
   A42        1.87978  -0.00084   0.00000  -0.00410  -0.00428   1.87550
   A43        1.84780   0.00403   0.00000   0.02279   0.02279   1.87059
   A44        1.94164  -0.00425   0.00000  -0.03510  -0.03551   1.90613
   A45        1.97957   0.00093   0.00000   0.01536   0.01568   1.99525
   A46        1.87542   0.00242   0.00000   0.03263   0.03300   1.90842
   A47        1.89212  -0.00308   0.00000  -0.02673  -0.02689   1.86523
   A48        1.92228   0.00021   0.00000  -0.00637  -0.00627   1.91602
   A49        2.06750  -0.00524   0.00000  -0.01775  -0.01819   2.04932
   A50        2.24125  -0.00441   0.00000  -0.01878  -0.01858   2.22267
   A51        1.98116   0.00611   0.00000   0.03067   0.03041   2.01157
   A52        2.06006  -0.00160   0.00000  -0.01091  -0.01117   2.04888
    D1       -3.02643  -0.00105   0.00000  -0.02505  -0.02464  -3.05106
    D2        0.14413  -0.00011   0.00000   0.00000  -0.00000   0.14413
    D3        0.13313  -0.00171   0.00000  -0.06002  -0.05981   0.07331
    D4       -2.97950  -0.00077   0.00000  -0.03497  -0.03517  -3.01467
    D5        3.12364  -0.00092   0.00000  -0.00074  -0.00084   3.12280
    D6        0.00481  -0.00159   0.00000  -0.02924  -0.02946  -0.02464
    D7       -0.05021  -0.00226   0.00000  -0.02964  -0.03023  -0.08044
    D8        3.11414  -0.00294   0.00000  -0.05813  -0.05884   3.05531
    D9       -2.60873  -0.00226   0.00000  -0.02901  -0.02962  -2.63835
   D10        0.49087   0.00062   0.00000  -0.00013  -0.00036   0.49052
   D11        0.56513  -0.00088   0.00000   0.00004   0.00004   0.56517
   D12       -2.61845   0.00200   0.00000   0.02892   0.02930  -2.58915
   D13       -0.30098   0.00135   0.00000   0.02792   0.02832  -0.27267
   D14        2.56538   0.00439   0.00000   0.08808   0.08636   2.65174
   D15        2.81835   0.00199   0.00000   0.05573   0.05631   2.87466
   D16       -0.59847   0.00503   0.00000   0.11588   0.11435  -0.48411
   D17       -2.33482  -0.00199   0.00000   0.00000   0.00001  -2.33481
   D18        1.90462  -0.00296   0.00000  -0.02499  -0.02474   1.87987
   D19       -0.34909  -0.00057   0.00000  -0.00664  -0.00676  -0.35585
   D20        1.05199  -0.00130   0.00000  -0.03479  -0.03597   1.01602
   D21       -0.99176  -0.00226   0.00000  -0.05979  -0.06072  -1.05248
   D22        3.03772   0.00012   0.00000  -0.04143  -0.04274   2.99498
   D23        2.94076   0.00271   0.00000   0.02205   0.02190   2.96266
   D24       -1.23090   0.00184   0.00000   0.02085   0.02071  -1.21019
   D25        0.84589  -0.00012   0.00000   0.00187   0.00181   0.84770
   D26        0.91243   0.00314   0.00000   0.02377   0.02381   0.93624
   D27        3.02395   0.00227   0.00000   0.02257   0.02262   3.04657
   D28       -1.18245   0.00031   0.00000   0.00359   0.00372  -1.17872
   D29       -1.07534   0.00110   0.00000   0.00826   0.00823  -1.06711
   D30        1.03618   0.00024   0.00000   0.00706   0.00704   1.04323
   D31        3.11297  -0.00173   0.00000  -0.01192  -0.01186   3.10112
   D32       -2.90124  -0.00192   0.00000  -0.00933  -0.00907  -2.91031
   D33       -0.86915   0.00111   0.00000   0.02463   0.02446  -0.84469
   D34        1.30938  -0.00128   0.00000   0.00000  -0.00000   1.30938
   D35       -0.91362  -0.00151   0.00000  -0.02532  -0.02512  -0.93874
   D36        1.11847   0.00152   0.00000   0.00864   0.00841   1.12688
   D37       -2.98619  -0.00087   0.00000  -0.01599  -0.01606  -3.00224
   D38        1.09301   0.00100   0.00000   0.00978   0.00986   1.10287
   D39        3.12510   0.00402   0.00000   0.04374   0.04339  -3.11470
   D40       -0.97955   0.00163   0.00000   0.01911   0.01892  -0.96063
   D41        0.95665   0.00053   0.00000   0.00000   0.00000   0.95666
   D42        3.08237   0.00052   0.00000   0.00864   0.00860   3.09096
   D43       -1.13750  -0.00116   0.00000  -0.01477  -0.01474  -1.15224
   D44       -1.15640   0.00161   0.00000   0.01298   0.01305  -1.14335
   D45        0.96932   0.00161   0.00000   0.02162   0.02165   0.99096
   D46        3.03263  -0.00007   0.00000  -0.00179  -0.00169   3.03094
   D47        3.06324   0.00053   0.00000   0.00178   0.00173   3.06497
   D48       -1.09424   0.00052   0.00000   0.01042   0.01033  -1.08391
   D49        0.96908  -0.00116   0.00000  -0.01298  -0.01301   0.95607
   D50       -0.92193  -0.00095   0.00000   0.00000   0.00000  -0.92192
   D51        1.18124  -0.00131   0.00000  -0.00908  -0.00909   1.17215
   D52       -3.04964  -0.00084   0.00000  -0.00591  -0.00593  -3.05557
   D53       -3.04937  -0.00002   0.00000  -0.00044  -0.00043  -3.04980
   D54       -0.94620  -0.00038   0.00000  -0.00952  -0.00952  -0.95572
   D55        1.10611   0.00009   0.00000  -0.00635  -0.00636   1.09975
   D56        1.17602  -0.00003   0.00000   0.00660   0.00662   1.18265
   D57       -3.00399  -0.00038   0.00000  -0.00248  -0.00247  -3.00646
   D58       -0.95169   0.00009   0.00000   0.00069   0.00069  -0.95100
   D59        0.98509  -0.00051   0.00000  -0.01168  -0.01171   0.97338
   D60        3.09633  -0.00060   0.00000  -0.01458  -0.01470   3.08163
   D61       -1.13398   0.00063   0.00000  -0.00214  -0.00210  -1.13608
   D62       -1.11627  -0.00112   0.00000  -0.01343  -0.01342  -1.12968
   D63        0.99498  -0.00121   0.00000  -0.01633  -0.01641   0.97856
   D64        3.04785   0.00002   0.00000  -0.00389  -0.00381   3.04404
   D65        3.11409  -0.00014   0.00000  -0.00255  -0.00256   3.11153
   D66       -1.05785  -0.00023   0.00000  -0.00545  -0.00555  -1.06341
   D67        0.99502   0.00100   0.00000   0.00699   0.00705   1.00207
   D68       -1.04330   0.00003   0.00000   0.00068   0.00077  -1.04254
   D69       -3.11971   0.00167   0.00000   0.01337   0.01304  -3.10667
   D70        1.08629   0.00175   0.00000   0.01737   0.01737   1.10366
   D71        3.12873  -0.00144   0.00000  -0.00877  -0.00864   3.12009
   D72        1.05233   0.00020   0.00000   0.00392   0.00363   1.05596
   D73       -1.02486   0.00028   0.00000   0.00792   0.00796  -1.01690
   D74        1.07502  -0.00030   0.00000   0.00142   0.00159   1.07661
   D75       -1.00138   0.00134   0.00000   0.01411   0.01385  -0.98752
   D76       -3.07857   0.00142   0.00000   0.01810   0.01819  -3.06038
   D77       -1.17217   0.00274   0.00000   0.00000   0.00000  -1.17217
   D78        3.06415  -0.00080   0.00000  -0.01989  -0.01968   3.04447
   D79        1.01676  -0.00204   0.00000  -0.04000  -0.04020   0.97656
   D80        0.05500   0.00401   0.00000   0.01699   0.01694   0.07194
   D81       -3.04297   0.00086   0.00000  -0.01386  -0.01372  -3.05669
         Item               Value     Threshold  Converged?
 Maximum Force            0.037026     0.000450     NO 
 RMS     Force            0.006933     0.000300     NO 
 Maximum Displacement     0.279287     0.001800     NO 
 RMS     Displacement     0.053339     0.001200     NO 
 Predicted change in Energy=-1.341091D-02
 GradGradGradGradGradGradGradGradGradGradGradGradGradGradGradGradGradGrad

                          Input orientation:                          
 ---------------------------------------------------------------------
 Center     Atomic      Atomic             Coordinates (Angstroms)
 Number     Number       Type             X           Y           Z
 ---------------------------------------------------------------------
      1          8           0       -3.458459   -1.458004   -0.138296
      2          7           0       -3.124681   -0.277990    0.046449
      3          8           0       -3.889068    0.664613    0.303227
      4          6           0       -1.688610    0.002207   -0.028082
      5          6           0       -1.325574    1.274551    0.284081
      6          7           0       -0.070182    1.765356    0.307917
      7          6           0        1.185187    1.008641    0.320098
      8          1           0        1.788421    1.494238    1.106021
      9          6           0        1.966356    1.054097   -0.986995
     10          6           0        3.357899    0.450575   -0.766026
     11          6           0        3.270520   -0.962971   -0.179292
     12          6           0        2.402478   -0.998149    1.079331
     13          6           0        1.003831   -0.435616    0.795583
     14          1           0        0.413263   -0.439666    1.725640
     15          7           0        0.383736   -1.318312   -0.186907
     16          6           0       -0.848244   -1.094162   -0.492103
     17          1           0       -2.112772    1.981042    0.537191
     18          1           0        0.055750    2.755789    0.125775
     19          1           0        1.424078    0.490791   -1.754606
     20          1           0        2.050542    2.093311   -1.333431
     21          1           0        3.905555    0.433392   -1.715119
     22          1           0        3.922316    1.096552   -0.078817
     23          1           0        2.831026   -1.637505   -0.922515
     24          1           0        4.274051   -1.340053    0.051706
     25          1           0        2.306051   -2.027058    1.443826
     26          1           0        2.872407   -0.408365    1.877871
     27          1           0       -1.335878   -1.802304   -1.164516
 ---------------------------------------------------------------------
                    Distance matrix (angstroms):
                    1          2          3          4          5
     1  O    0.000000
     2  N    1.240150   0.000000
     3  O    2.210400   1.240452   0.000000
     4  C    2.297114   1.465048   2.321759   0.000000
     5  C    3.492057   2.388229   2.635127   1.359448   0.000000
     6  N    4.697827   3.684235   3.974361   2.416795   1.348134
     7  C    5.278059   4.506136   5.085931   3.064775   2.525059
     8  H    6.147667   5.329357   5.793672   3.949948   3.228128
     9  C    6.038176   5.362939   6.008524   3.922341   3.535680
    10  C    7.106298   6.573794   7.328550   5.119849   4.869967
    11  C    6.747289   6.435740   7.358095   5.054444   5.132767
    12  C    6.003721   5.668771   6.553676   4.354776   4.438013
    13  C    4.672198   4.198887   5.039184   2.849447   2.934694
    14  H    4.416050   3.919549   4.663983   2.772843   2.835522
    15  N    3.845041   3.666840   4.735934   2.462441   3.141100
    16  C    2.659095   2.477568   3.601729   1.457243   2.537934
    17  H    3.754224   2.523492   2.223275   2.101246   1.087601
    18  H    5.493218   4.396048   4.468343   3.263230   2.031546
    19  H    5.499948   4.952376   5.700387   3.592830   3.511568
    20  H    6.662528   5.857479   6.324459   4.478605   3.832084
    21  H    7.764822   7.282403   8.055019   5.858899   5.662954
    22  H    7.810578   7.180892   7.832640   5.716874   5.263433
    23  H    6.340729   6.185274   7.208457   4.890376   5.216634
    24  H    7.735744   7.474573   8.409426   6.112393   6.184331
    25  H    6.004708   5.874074   6.850223   4.716115   5.043246
    26  H    6.726555   6.271855   7.024837   4.960252   4.795354
    27  H    2.382650   2.643820   3.841708   2.161518   3.400820
                    6          7          8          9         10
     6  N    0.000000
     7  C    1.465850   0.000000
     8  H    2.040804   1.103345   0.000000
     9  C    2.515984   1.523412   2.146183   0.000000
    10  C    3.825408   2.492345   2.656512   1.532794   0.000000
    11  C    4.340672   2.912947   3.144284   2.534125   1.532973
    12  C    3.787623   2.466869   2.567055   2.944761   2.533174
    13  C    2.497118   1.531292   2.106250   2.514614   2.960675
    14  H    2.665667   2.160789   2.452544   3.464364   3.958764
    15  N    3.155932   2.512786   3.399300   2.961951   3.508560
    16  C    3.069570   3.035835   4.025645   3.575179   4.489197
    17  H    2.066702   3.445174   3.972386   4.452152   5.828288
    18  H    1.014885   2.089477   2.356808   2.790059   4.124744
    19  H    2.848040   2.151659   3.053333   1.095722   2.172228
    20  H    2.701675   2.158589   2.525573   1.098668   2.174791
    21  H    4.655458   3.445783   3.683270   2.162390   1.095901
    22  H    4.066559   2.767442   2.472954   2.156935   1.099140
    23  H    4.637935   3.354842   3.874248   2.827814   2.159204
    24  H    5.346173   3.889663   3.914478   3.483720   2.171259
    25  H    4.617269   3.425576   3.575133   3.939264   3.482599
    26  H    3.981036   2.698384   2.321783   3.341733   2.821998
    27  H    4.061803   4.057248   5.077772   4.369816   5.221667
                   11         12         13         14         15
    11  C    0.000000
    12  C    1.529335   0.000000
    13  C    2.523166   1.534005   0.000000
    14  H    3.473692   2.164855   1.101723   0.000000
    15  N    2.908582   2.404409   1.459094   2.104929   0.000000
    16  C    4.132708   3.611899   2.349893   2.634036   1.288861
    17  H    6.177410   5.436633   3.952242   3.695009   4.200311
    18  H    4.925139   4.528626   3.395963   3.591423   4.099225
    19  H    2.829203   3.347448   2.745597   3.741606   2.610143
    20  H    3.487298   3.937309   3.467532   4.295878   3.966350
    21  H    2.170683   3.481019   3.934311   4.979674   4.219847
    22  H    2.162537   2.835310   3.410230   4.234322   4.285417
    23  H    1.095688   2.144718   2.781194   3.780625   2.575312
    24  H    1.096642   2.162335   3.473571   4.303305   3.897686
    25  H    2.167255   1.095814   2.156081   2.486338   2.618570
    26  H    2.167487   1.098338   2.159553   2.464051   3.359285
    27  H    4.784773   4.433601   3.344258   3.642701   2.036428
                   16         17         18         19         20
    16  C    0.000000
    17  H    3.480713   0.000000
    18  H    4.002637   2.339226   0.000000
    19  H    3.044575   4.470178   3.246286   0.000000
    20  H    4.389849   4.565633   2.558779   1.771417   0.000000
    21  H    5.140797   6.609718   4.858334   2.482455   2.518351
    22  H    5.265764   6.130585   4.212512   3.068617   2.463965
    23  H    3.743996   6.298076   5.301142   2.683566   3.833667
    24  H    5.156946   7.215045   5.880091   3.838893   4.318632
    25  H    3.816765   6.034306   5.447636   4.165022   4.975528
    26  H    4.464341   5.688470   4.584241   4.012609   4.152867
    27  H    1.091508   4.220554   4.937376   3.636461   5.164512
                   21         22         23         24         25
    21  H    0.000000
    22  H    1.765657   0.000000
    23  H    2.464031   3.062320   0.000000
    24  H    2.530329   2.465318   1.766325   0.000000
    25  H    4.311747   3.832452   2.454979   2.506591   0.000000
    26  H    3.832169   2.682481   3.058539   2.483450   1.768989
    27  H    5.724869   6.101697   4.177178   5.758835   4.485266
                   26         27
    26  H    0.000000
    27  H    5.376695   0.000000
 Symmetry turned off by external request.
 Stoichiometry    C9H13N3O2
 Framework group  C1[X(C9H13N3O2)]
 Deg. of freedom    75
 Full point group                 C1      NOp   1
 Rotational constants (GHZ):           1.6966976           0.4216678           0.3718368
 Standard basis: 6-31G(d) (6D, 7F)
   236 basis functions,   444 primitive gaussians,   236 cartesian basis functions
    52 alpha electrons       52 beta electrons
       nuclear repulsion energy       932.2358729643 Hartrees.
 NAtoms=   27 NActive=   27 NUniq=   27 SFac= 1.00D+00 NAtFMM=   60 NAOKFM=F Big=F
 Integral buffers will be    131072 words long.
 Raffenetti 1 integral format.
 Two-electron integral symmetry is turned off.
 One-electron integrals computed using PRISM.
 NBasis=   236 RedAO= T EigKep=  1.02D-03  NBF=   236
 NBsUse=   236 1.00D-06 EigRej= -1.00D+00 NBFU=   236
 Initial guess from the checkpoint file:  "/home/alexey/tmp/Gau-1514456.chk"
 B after Tr=     0.054014    0.004190    0.001700
         Rot=    0.999999   -0.000328   -0.000443    0.000863 Ang=  -0.12 deg.
 ExpMin= 1.61D-01 ExpMax= 5.48D+03 ExpMxC= 8.25D+02 IAcc=3 IRadAn=         5 AccDes= 0.00D+00
 Harris functional with IExCor=  205 and IRadAn=       5 diagonalized for initial guess.
 HarFok:  IExCor=  205 AccDes= 0.00D+00 IRadAn=         5 IDoV= 1 UseB2=F ITyADJ=14
 ICtDFT=  3500011 ScaDFX=  1.000000  1.000000  1.000000  1.000000
 FoFCou: FMM=F IPFlag=           0 FMFlag=      100000 FMFlg1=           0
         NFxFlg=           0 DoJE=T BraDBF=F KetDBF=T FulRan=T
         wScrn=  0.000000 ICntrl=       500 IOpCl=  0 I1Cent=   200000004 NGrid=           0
         NMat0=    1 NMatS0=      1 NMatT0=    0 NMatD0=    1 NMtDS0=    0 NMtDT0=    0
 Symmetry not used in FoFCou.
 Keep R1 ints in memory in canonical form, NReq=397720213.
 Requested convergence on RMS density matrix=1.00D-08 within 128 cycles.
 Requested convergence on MAX density matrix=1.00D-06.
 Requested convergence on             energy=1.00D-06.
 No special actions if energy rises.
 SCF Done:  E(RHF) =  -661.295744360     A.U. after   15 cycles
            NFock= 15  Conv=0.40D-08     -V/T= 2.0025
 ExpMin= 1.61D-01 ExpMax= 5.48D+03 ExpMxC= 8.25D+02 IAcc=3 IRadAn=         5 AccDes= 0.00D+00
 HarFok:  IExCor=  205 AccDes= 0.00D+00 IRadAn=         5 IDoV=-2 UseB2=F ITyADJ=14
 ICtDFT= 12500011 ScaDFX=  1.000000  1.000000  1.000000  1.000000
 Range of M.O.s used for correlation:    15   236
 NBasis=   236 NAE=    52 NBE=    52 NFC=    14 NFV=     0
 NROrb=    222 NOA=    38 NOB=    38 NVA=   184 NVB=   184
 Fully direct method using O(ONN) memory.
 JobTyp=1 Pass  1:  I=  15 to  52 NPSUse=  4 ParTrn=T ParDer=T DoDerP=T.
 Spin components of T(2) and E(2):
     alpha-alpha T2 =       0.9120553178D-01 E2=     -0.2722602377D+00
     alpha-beta  T2 =       0.4916008322D+00 E2=     -0.1488332967D+01
     beta-beta   T2 =       0.9120553178D-01 E2=     -0.2722602377D+00
 ANorm=    0.1293836116D+01
 E2 =    -0.2032853442D+01 EUMP2 =    -0.66332859780258D+03
          IDoAtm=111111111111111111111111111
          Differentiating once with respect to electric field.
                with respect to dipole field.
          Differentiating once with respect to nuclear coordinates.
 Keep R1 ints in memory in canonical form, NReq=397723379.
          There are     1 degrees of freedom in the 1st order CPHF.  IDoFFX=0 NUNeed=     1.
 LinEq1:  Iter=  0 NonCon=     1 RMS=4.56D-03 Max=1.01D-01 NDo=     1
 AX will form     1 AO Fock derivatives at one time.
 LinEq1:  Iter=  1 NonCon=     1 RMS=1.53D-03 Max=2.54D-02 NDo=     1
 LinEq1:  Iter=  2 NonCon=     1 RMS=6.39D-04 Max=1.71D-02 NDo=     1
 LinEq1:  Iter=  3 NonCon=     1 RMS=2.80D-04 Max=8.05D-03 NDo=     1
 LinEq1:  Iter=  4 NonCon=     1 RMS=8.68D-05 Max=1.90D-03 NDo=     1
 LinEq1:  Iter=  5 NonCon=     1 RMS=3.64D-05 Max=1.82D-03 NDo=     1
 LinEq1:  Iter=  6 NonCon=     1 RMS=1.41D-05 Max=5.40D-04 NDo=     1
 LinEq1:  Iter=  7 NonCon=     1 RMS=5.41D-06 Max=1.03D-04 NDo=     1
 LinEq1:  Iter=  8 NonCon=     1 RMS=2.17D-06 Max=5.61D-05 NDo=     1
[...]
                   16         17         18         19         20
    16  C    0.000000
    17  H    3.467300   0.000000
    18  H    4.075930   2.238316   0.000000
    19  H    3.024370   4.414472   3.536803   0.000000
    20  H    4.389622   4.541845   2.902475   1.767948   0.000000
    21  H    5.130265   6.583220   5.094246   2.499417   2.519923
    22  H    5.259655   6.114244   4.304081   3.070223   2.462113
    23  H    3.729772   6.272091   5.424461   2.701073   3.840484
    24  H    5.152904   7.201141   5.928159   3.848319   4.317297
    25  H    3.812174   6.028477   5.353089   4.168128   4.984179
    26  H    4.481925   5.710225   4.463842   4.036445   4.185651
    27  H    1.089624   4.218896   5.057409   3.606708   5.153679
                   21         22         23         24         25
    21  H    0.000000
    22  H    1.758930   0.000000
    23  H    2.468492   3.062159   0.000000
    24  H    2.518300   2.461284   1.764539   0.000000
    25  H    4.312208   3.840358   2.444916   2.519791   0.000000
    26  H    3.846697   2.705261   3.059981   2.488583   1.767033
    27  H    5.694294   6.078806   4.140779   5.732688   4.463973
                   26         27
    26  H    0.000000
    27  H    5.379018   0.000000
 Symmetry turned off by external request.
 Stoichiometry    C9H13N3O2
 Framework group  C1[X(C9H13N3O2)]
 Deg. of freedom    75
 Full point group                 C1      NOp   1
 Rotational constants (GHZ):           1.6920510           0.4188480           0.3711134

 **********************************************************************

            Population analysis using the SCF Density.

 **********************************************************************

 Alpha  occ. eigenvalues --  -20.59281 -20.58943 -15.84747 -15.63979 -15.56326
 Alpha  occ. eigenvalues --  -11.34987 -11.29608 -11.29595 -11.28670 -11.27141
 Alpha  occ. eigenvalues --  -11.23716 -11.23213 -11.22737 -11.22149  -1.57154
 Alpha  occ. eigenvalues --   -1.36755  -1.30891  -1.23185  -1.14685  -1.09856
 Alpha  occ. eigenvalues --   -1.02791  -1.01306  -0.94467  -0.89649  -0.85582
 Alpha  occ. eigenvalues --   -0.82451  -0.78504  -0.77442  -0.75210  -0.71927
 Alpha  occ. eigenvalues --   -0.69837  -0.69447  -0.67785  -0.64953  -0.63616
 Alpha  occ. eigenvalues --   -0.62412  -0.60392  -0.57568  -0.57126  -0.55061
 Alpha  occ. eigenvalues --   -0.54564  -0.50807  -0.50008  -0.48655  -0.48080
 Alpha  occ. eigenvalues --   -0.47410  -0.46197  -0.46053  -0.43692  -0.41680
 Alpha  occ. eigenvalues --   -0.40170  -0.33961
 Alpha virt. eigenvalues --    0.07353   0.11828   0.17379   0.21774   0.23955
 Alpha virt. eigenvalues --    0.25462   0.27115   0.28600   0.28962   0.29711
 Alpha virt. eigenvalues --    0.30618   0.31724   0.32008   0.32697   0.34051
 Alpha virt. eigenvalues --    0.34352   0.35858   0.37170   0.38670   0.40205
 Alpha virt. eigenvalues --    0.41387   0.42668   0.45253   0.46280   0.46556
 Alpha virt. eigenvalues --    0.46907   0.48945   0.53881   0.57753   0.59294
 Alpha virt. eigenvalues --    0.63794   0.69464   0.70245   0.72690   0.74182
 Alpha virt. eigenvalues --    0.74947   0.75835   0.76870   0.78462   0.79549
 Alpha virt. eigenvalues --    0.81159   0.84778   0.85854   0.86076   0.88589
 Alpha virt. eigenvalues --    0.89887   0.90524   0.92393   0.92879   0.94636
 Alpha virt. eigenvalues --    0.95771   0.98088   0.99404   1.01711   1.02524
 Alpha virt. eigenvalues --    1.03036   1.05715   1.06611   1.07717   1.09044
 Alpha virt. eigenvalues --    1.10140   1.10908   1.11813   1.12378   1.13895
 Alpha virt. eigenvalues --    1.14643   1.15062   1.15563   1.16729   1.18751
 Alpha virt. eigenvalues --    1.19492   1.21007   1.22160   1.23840   1.24246
 Alpha virt. eigenvalues --    1.24588   1.25977   1.26898   1.27358   1.29303
 Alpha virt. eigenvalues --    1.30019   1.33376   1.35608   1.36717   1.40867
 Alpha virt. eigenvalues --    1.42016   1.47156   1.48497   1.50451   1.53365
 Alpha virt. eigenvalues --    1.55529   1.57769   1.60244   1.63252   1.65443
 Alpha virt. eigenvalues --    1.67940   1.69181   1.73751   1.74418   1.76694
 Alpha virt. eigenvalues --    1.81568   1.84510   1.87307   1.90564   1.93095
 Alpha virt. eigenvalues --    1.96708   1.97245   1.99862   2.01498   2.02639
 Alpha virt. eigenvalues --    2.05053   2.05648   2.08232   2.09240   2.12393
 Alpha virt. eigenvalues --    2.13110   2.15214   2.17952   2.20289   2.21654
 Alpha virt. eigenvalues --    2.23111   2.24461   2.25568   2.28203   2.29802
 Alpha virt. eigenvalues --    2.31895   2.34252   2.35411   2.36816   2.38434
 Alpha virt. eigenvalues --    2.39907   2.41789   2.43847   2.45449   2.48184
 Alpha virt. eigenvalues --    2.51016   2.51708   2.53411   2.56096   2.61712
 Alpha virt. eigenvalues --    2.62511   2.64863   2.68020   2.70446   2.70979
 Alpha virt. eigenvalues --    2.72536   2.73453   2.77711   2.78561   2.83533
 Alpha virt. eigenvalues --    2.88107   2.88393   2.92815   2.93382   2.96476
 Alpha virt. eigenvalues --    2.99704   3.01195   3.03794   3.04948   3.07877
 Alpha virt. eigenvalues --    3.09211   3.14253   3.21683   3.25002   3.27248
 Alpha virt. eigenvalues --    3.32581   3.37368   3.38078   3.52052   3.64730
 Alpha virt. eigenvalues --    4.13135   4.28023   4.34518   4.38534   4.45842
 Alpha virt. eigenvalues --    4.56283   4.61756   4.62004   4.73463   4.79040
 Alpha virt. eigenvalues --    4.98996   5.00731   5.04280   5.11537
          Condensed to atoms (all electrons):
               1          2          3          4          5          6
     1  O    8.315456   0.307949  -0.082498  -0.085893   0.004608  -0.000016
     2  N    0.307949   5.722367   0.300854   0.265177  -0.052645   0.000959
     3  O   -0.082498   0.300854   8.353226  -0.092407   0.003843   0.000752
     4  C   -0.085893   0.265177  -0.092407   5.216314   0.563353  -0.049564
     5  C    0.004608  -0.052645   0.003843   0.563353   4.712964   0.317755
     6  N   -0.000016   0.000959   0.000752  -0.049564   0.317755   7.187287
     7  C    0.000004  -0.000143   0.000001   0.003438  -0.031237   0.170038
     8  H   -0.000000   0.000003  -0.000000  -0.000189   0.002688  -0.052327
     9  C   -0.000000  -0.000003   0.000000   0.000810   0.001196  -0.059274
    10  C    0.000000   0.000000   0.000000  -0.000033  -0.000063   0.003615
    11  C   -0.000000  -0.000000  -0.000000  -0.000033   0.000028  -0.000195
    12  C   -0.000000   0.000003  -0.000000  -0.000049  -0.000156   0.003995
    13  C   -0.000029  -0.000070  -0.000005  -0.013808  -0.000732  -0.044764
    14  H   -0.000006  -0.000115   0.000000   0.003058   0.007255  -0.007457
    15  N    0.000281   0.002397  -0.000016  -0.062381  -0.006851   0.001763
    16  C    0.001117  -0.028648   0.002491   0.330975  -0.049142  -0.002149
    17  H    0.000208  -0.007045   0.016864  -0.023702   0.374903  -0.034012
    18  H    0.000001  -0.000051   0.000011   0.001747  -0.031665   0.338654
    19  H    0.000000  -0.000002   0.000000  -0.000962   0.000805  -0.000046
    20  H    0.000000  -0.000000   0.000000  -0.000075   0.000172  -0.000743
    21  H   -0.000000   0.000000   0.000000   0.000000   0.000001  -0.000071
    22  H   -0.000000   0.000000  -0.000000  -0.000000  -0.000004  -0.000124
    23  H    0.000000  -0.000000   0.000000   0.000036   0.000000  -0.000030
    24  H    0.000000   0.000000   0.000000   0.000000  -0.000000   0.000005
    25  H    0.000000  -0.000000   0.000000   0.000024   0.000001  -0.000092
    26  H    0.000000  -0.000000   0.000000   0.000008  -0.000003  -0.000055
    27  H    0.005817  -0.000944   0.000011  -0.061586   0.002274   0.000032
               7          8          9         10         11         12
     1  O    0.000004  -0.000000  -0.000000   0.000000  -0.000000  -0.000000
     2  N   -0.000143   0.000003  -0.000003   0.000000  -0.000000   0.000003
     3  O    0.000001  -0.000000   0.000000   0.000000  -0.000000  -0.000000
     4  C    0.003438  -0.000189   0.000810  -0.000033  -0.000033  -0.000049
     5  C   -0.031237   0.002688   0.001196  -0.000063   0.000028  -0.000156
     6  N    0.170038  -0.052327  -0.059274   0.003615  -0.000195   0.003995
     7  C    5.018498   0.419818   0.346141  -0.053963  -0.008863  -0.060659
     8  H    0.419818   0.543539  -0.052950   0.000831  -0.000439  -0.002478
     9  C    0.346141  -0.052950   5.153602   0.324049  -0.050356  -0.005438
    10  C   -0.053963   0.000831   0.324049   5.120672   0.336627  -0.060708
    11  C   -0.008863  -0.000439  -0.050356   0.336627   5.118326   0.336048
    12  C   -0.060659  -0.002478  -0.005438  -0.060708   0.336048   5.119336
    13  C    0.342896  -0.043042  -0.058142  -0.000737  -0.050834   0.370932
    14  H   -0.047232  -0.000699   0.004446  -0.000404   0.004175  -0.036313
    15  N   -0.058234   0.004174  -0.013391   0.001547  -0.011752  -0.081427
    16  C   -0.002417   0.000035  -0.001323  -0.000013   0.000024   0.002930
    17  H    0.001729  -0.000053  -0.000071   0.000001   0.000000  -0.000000
    18  H   -0.021962  -0.004673   0.001354  -0.000087   0.000004  -0.000120
    19  H   -0.037263   0.004336   0.390037  -0.032173  -0.002269   0.000679
    20  H   -0.041990  -0.001974   0.400177  -0.035462   0.003938  -0.000403
    21  H    0.004594  -0.000061  -0.036461   0.402626  -0.034950   0.004333
    22  H   -0.004826   0.003448  -0.046762   0.397699  -0.045319  -0.001080
    23  H    0.000494   0.000039  -0.001943  -0.039262   0.399254  -0.038145
    24  H   -0.000127  -0.000105   0.004369  -0.038319   0.402392  -0.038608
    25  H    0.005152  -0.000027  -0.000428   0.004186  -0.033364   0.398428
    26  H   -0.004192   0.001839   0.000950  -0.002255  -0.041540   0.396602
    27  H   -0.000405   0.000010  -0.000059   0.000007   0.000009  -0.000039
              13         14         15         16         17         18
     1  O   -0.000029  -0.000006   0.000281   0.001117   0.000208   0.000001
     2  N   -0.000070  -0.000115   0.002397  -0.028648  -0.007045  -0.000051
     3  O   -0.000005   0.000000  -0.000016   0.002491   0.016864   0.000011
     4  C   -0.013808   0.003058  -0.062381   0.330975  -0.023702   0.001747
     5  C   -0.000732   0.007255  -0.006851  -0.049142   0.374903  -0.031665
     6  N   -0.044764  -0.007457   0.001763  -0.002149  -0.034012   0.338654
     7  C    0.342896  -0.047232  -0.058234  -0.002417   0.001729  -0.021962
     8  H   -0.043042  -0.000699   0.004174   0.000035  -0.000053  -0.004673
     9  C   -0.058142   0.004446  -0.013391  -0.001323  -0.000071   0.001354
    10  C   -0.000737  -0.000404   0.001547  -0.000013   0.000001  -0.000087
    11  C   -0.050834   0.004175  -0.011752   0.000024   0.000000   0.000004
    12  C    0.370932  -0.036313  -0.081427   0.002930  -0.000000  -0.000120
    13  C    5.047894   0.401418   0.245616  -0.073228   0.000026   0.002936
    14  H    0.401418   0.531008  -0.037847  -0.004956   0.000133  -0.000130
    15  N    0.245616  -0.037847   6.953211   0.583099  -0.000102  -0.000124
    16  C   -0.073228  -0.004956   0.583099   4.715724   0.001998  -0.000189
    17  H    0.000026   0.000133  -0.000102   0.001998   0.377373  -0.002895
    18  H    0.002936  -0.000130  -0.000124  -0.000189  -0.002895   0.313850
    19  H   -0.007642   0.000119   0.007813   0.003018   0.000013  -0.000148
    20  H    0.004239  -0.000067   0.000098  -0.000035   0.000004   0.000692
    21  H   -0.000424   0.000010  -0.000032   0.000003  -0.000000   0.000001
    22  H    0.000132  -0.000056   0.000013  -0.000002   0.000000   0.000001
    23  H   -0.007093   0.000003   0.008222   0.000074   0.000000   0.000000
    24  H    0.004667  -0.000056   0.000114   0.000007   0.000000  -0.000000
    25  H   -0.035611  -0.002740   0.000123  -0.000005  -0.000000   0.000002
    26  H   -0.047039  -0.001160   0.004850  -0.000080   0.000000   0.000000
    27  H    0.005175  -0.000185  -0.039902   0.402356  -0.000078   0.000001
              19         20         21         22         23         24
     1  O    0.000000   0.000000  -0.000000  -0.000000   0.000000   0.000000
     2  N   -0.000002  -0.000000   0.000000   0.000000  -0.000000   0.000000
     3  O    0.000000   0.000000   0.000000  -0.000000   0.000000   0.000000
     4  C   -0.000962  -0.000075   0.000000  -0.000000   0.000036   0.000000
     5  C    0.000805   0.000172   0.000001  -0.000004   0.000000  -0.000000
     6  N   -0.000046  -0.000743  -0.000071  -0.000124  -0.000030   0.000005
     7  C   -0.037263  -0.041990   0.004594  -0.004826   0.000494  -0.000127
     8  H    0.004336  -0.001974  -0.000061   0.003448   0.000039  -0.000105
     9  C    0.390037   0.400177  -0.036461  -0.046762  -0.001943   0.004369
    10  C   -0.032173  -0.035462   0.402626   0.397699  -0.039262  -0.038319
    11  C   -0.002269   0.003938  -0.034950  -0.045319   0.399254   0.402392
    12  C    0.000679  -0.000403   0.004333  -0.001080  -0.038145  -0.038608
    13  C   -0.007642   0.004239  -0.000424   0.000132  -0.007093   0.004667
    14  H    0.000119  -0.000067   0.000010  -0.000056   0.000003  -0.000056
    15  N    0.007813   0.000098  -0.000032   0.000013   0.008222   0.000114
    16  C    0.003018  -0.000035   0.000003  -0.000002   0.000074   0.000007
    17  H    0.000013   0.000004  -0.000000   0.000000   0.000000   0.000000
    18  H   -0.000148   0.000692   0.000001   0.000001   0.000000  -0.000000
    19  H    0.505199  -0.024592  -0.002751   0.003953   0.001549  -0.000065
    20  H   -0.024592   0.538714  -0.002691  -0.002959  -0.000046  -0.000082
    21  H   -0.002751  -0.002691   0.523859  -0.027336  -0.002919  -0.002221
    22  H    0.003953  -0.002959  -0.027336   0.570545   0.004148  -0.003640
    23  H    0.001549  -0.000046  -0.002919   0.004148   0.500753  -0.025471
    24  H   -0.000065  -0.000082  -0.002221  -0.003640  -0.025471   0.537575
    25  H   -0.000030   0.000012  -0.000087  -0.000080  -0.002364  -0.002271
    26  H    0.000019  -0.000029  -0.000082   0.002374   0.004086  -0.003082
    27  H    0.000079   0.000000  -0.000000   0.000000  -0.000030  -0.000000
              25         26         27
     1  O    0.000000   0.000000   0.005817
     2  N   -0.000000  -0.000000  -0.000944
     3  O    0.000000   0.000000   0.000011
     4  C    0.000024   0.000008  -0.061586
     5  C    0.000001  -0.000003   0.002274
     6  N   -0.000092  -0.000055   0.000032
     7  C    0.005152  -0.004192  -0.000405
     8  H   -0.000027   0.001839   0.000010
     9  C   -0.000428   0.000950  -0.000059
    10  C    0.004186  -0.002255   0.000007
    11  C   -0.033364  -0.041540   0.000009
    12  C    0.398428   0.396602  -0.000039
    13  C   -0.035611  -0.047039   0.005175
    14  H   -0.002740  -0.001160  -0.000185
    15  N    0.000123   0.004850  -0.039902
    16  C   -0.000005  -0.000080   0.402356
    17  H   -0.000000   0.000000  -0.000078
    18  H    0.000002   0.000000   0.000001
    19  H   -0.000030   0.000019   0.000079
    20  H    0.000012  -0.000029   0.000000
    21  H   -0.000087  -0.000082  -0.000000
    22  H   -0.000080   0.002374   0.000000
    23  H   -0.002364   0.004086  -0.000030
    24  H   -0.002271  -0.003082  -0.000000
    25  H    0.505813  -0.024135  -0.000011
    26  H   -0.024135   0.562615   0.000001
    27  H   -0.000011   0.000001   0.440208
 Mulliken charges:
               1
     1  O   -0.467000
     2  N    0.489959
     3  O   -0.503129
     4  C    0.005742
     5  C    0.180652
     6  N   -0.773933
     7  C    0.060711
     8  H    0.178255
     9  C   -0.300530
    10  C   -0.328381
    11  C   -0.320909
    12  C   -0.307662
    13  C   -0.042732
    14  H    0.187798
    15  N   -0.501262
    16  C    0.118337
    17  H    0.294705
    18  H    0.402790
    19  H    0.190322
    20  H    0.163103
    21  H    0.174657
    22  H    0.149876
    23  H    0.198644
    24  H    0.164917
    25  H    0.187502
    26  H    0.150307
    27  H    0.247261
 Sum of Mulliken charges =  -0.00000
 Mulliken charges with hydrogens summed into heavy atoms:
               1
     1  O   -0.467000
     2  N    0.489959
     3  O   -0.503129
     4  C    0.005742
     5  C    0.475357
     6  N   -0.371143
     7  C    0.238966
     9  C    0.052894
    10  C   -0.003848
    11  C    0.042653
    12  C    0.030147
    13  C    0.145065
    15  N   -0.501262
    16  C    0.365598
 Electronic spatial extent (au):  <R**2>=           3008.5663
 Charge=              0.0000 electrons
 Dipole moment (field-independent basis, Debye):
    X=              5.3921    Y=              4.7861    Z=              1.1880  Tot=              7.3070
 Quadrupole moment (field-independent basis, Debye-Ang):
   XX=           -106.0005   YY=            -79.5858   ZZ=            -81.3525
   XY=             -2.0881   XZ=              0.7246   YZ=              2.0414
 Traceless Quadrupole moment (field-independent basis, Debye-Ang):
   XX=            -17.0209   YY=              9.3938   ZZ=              7.6271
   XY=             -2.0881   XZ=              0.7246   YZ=              2.0414
 Octapole moment (field-independent basis, Debye-Ang**2):
  XXX=             92.5247  YYY=             36.5784  ZZZ=             -2.0193  XYY=             -4.3354
  XXY=             10.5715  XXZ=              0.1628  XZZ=            -10.0069  YZZ=             -0.3222
  YYZ=              8.0043  XYZ=             -0.2842
 Hexadecapole moment (field-independent basis, Debye-Ang**3):
 XXXX=          -3390.1993 YYYY=           -603.9311 ZZZZ=           -298.9888 XXXY=            -32.5914
 XXXZ=             24.2921 YYYX=            -17.3150 YYYZ=             26.4351 ZZZX=             21.9888
 ZZZY=              9.5253 XXYY=           -629.4349 XXZZ=           -523.5954 YYZZ=           -156.1617
 XXYZ=             -4.2189 YYXZ=              8.9347 ZZXY=              3.3001
 N-N= 9.311698843510D+02 E-N=-3.409040202617D+03  KE= 6.596301167872D+02
 Unable to Open any file for archive entry.
 1\1\GINC-LOTUS\FOpt\RMP2-FC\6-31G(d)\C9H13N3O2\ALEXEY\02-Jul-2023\0\\#
 MP2/6-31G* SCF=Tight Opt=(ModRedun, MaxCycle=20 ) NoSymm\\MolName:\\0,
 1\O,-3.5001138429,-1.4162225031,-0.2882753351\N,-3.1230639524,-0.25475
 13622,-0.0378552401\O,-3.9030559729,0.6888406722,0.1946767532\C,-1.689
 5455526,-0.0214294557,-0.0048585645\C,-1.3068068384,1.2597856894,0.293
 3430588\N,-0.0614680543,1.7653917119,0.2931082914\C,1.1967890229,1.026
 1412774,0.302364872\H,1.8118569792,1.5232706202,1.0688566882\C,1.94957
 08757,1.0357381305,-1.022136559\C,3.3412615164,0.4304221445,-0.8071416
 968\C,3.2701646999,-0.9653545913,-0.1819229841\C,2.4274119628,-0.97488
 94631,1.0958831315\C,1.0269753825,-0.4185361079,0.8171798743\H,0.42930
 24956,-0.3813632758,1.7427014029\N,0.3973940923,-1.3208754691,-0.14179
 27217\C,-0.8444807009,-1.1165240275,-0.4474380682\H,-2.0992818424,1.97
 62126875,0.4920431798\H,0.0036520264,2.7392964264,0.5657356287\H,1.381
 4634611,0.4565306614,-1.7579657957\H,2.0286043562,2.0624634305,-1.4004
 349191\H,3.8800304843,0.3914103994,-1.7607345363\H,3.9172925665,1.0973
 123869,-0.1500988258\H,2.8179465632,-1.6618998292,-0.8950854332\H,4.28
 15354294,-1.3299751816,0.0329939188\H,2.3267336497,-1.9966756606,1.476
 4641624\H,2.9131666929,-0.3798053589,1.8817205753\H,-1.3133355,-1.8495
 139521,-1.1033208576\\Version=ES64L-G16RevC.02\HF=-661.2993185\MP2=-66
 3.333812\RMSD=8.493e-09\RMSF=1.365e-03\Dipole=1.9620829,1.68154,0.4355
 15\PG=C01 [X(C9H13N3O2)]\\@
 The archive entry for this job was punched.


 THE WORLD OF CHEMICAL REACTIONS IS LIKE A STAGE,
 ON WHICH SCENE AFTER SCENE IS CEASELESSLY PLAYED.
 THE ACTORS ON IT ARE THE ELEMENTS.
   -- CLEMENS WINKLER   BER. 30,13(1897)
 (DISCOVERER OF GERMANIUM, FEB 6, 1886)
 Job cpu time:       0 days  1 hours  1 minutes 55.6 seconds.
 Elapsed time:       0 days  0 hours 18 minutes 55.2 seconds.
 File lengths (MBytes):  RWF=     36 Int=      0 D2E=      0 Chk=      7 Scr=      1
 Normal termination of Gaussian 16 at Sun Jul  2 13:14:55 2023.
