 Entering Gaussian System, Link 0=g16
 Initial command:
 /home/alexey/programs//g16/l1.exe "/home/alexey/tmp/Gau-1254352.inp" -scrdir="/home/alexey/tmp/"
 Entering Link 1 = /home/alexey/programs//g16/l1.exe PID=   1254354.
  
 Copyright (c) 1988-2021, Gaussian, Inc.  All Rights Reserved.
  
 This is part of the Gaussian(R) 16 program.  It is based on
 the Gaussian(R) 09 system (copyright 2009, Gaussian, Inc.),
 the Gaussian(R) 03 system (copyright 2003, Gaussian, Inc.),
 the Gaussian(R) 98 system (copyright 1998, Gaussian, Inc.),
 the Gaussian(R) 94 system (copyright 1995, Gaussian, Inc.),
 the Gaussian 92(TM) system (copyright 1992, Gaussian, Inc.),
 the Gaussian 90(TM) system (copyright 1990, Gaussian, Inc.),
 the Gaussian 88(TM) system (copyright 1988, Gaussian, Inc.),
 the Gaussian 86(TM) system (copyright 1986, Carnegie Mellon
 University), and the Gaussian 82(TM) system (copyright 1983,
 Carnegie Mellon University). Gaussian is a federally registered
 trademark of Gaussian, Inc.
  
 This software contains proprietary and confidential information,
 including trade secrets, belonging to Gaussian, Inc.
  
 This software is provided under written license and may be
 used, copied, transmitted, or stored only in accord with that
 written license.
  
 The following legend is applicable only to US Government
 contracts under FAR:
  
                    RESTRICTED RIGHTS LEGEND
  
 Use, reproduction and disclosure by the US Government is
 subject to restrictions as set forth in subparagraphs (a)
 and (c) of the Commercial Computer Software - Restricted
 Rights clause in FAR 52.227-19.
  
 Gaussian, Inc.
 340 Quinnipiac St., Bldg. 40, Wallingford CT 06492
  
  
 ---------------------------------------------------------------
 Warning -- This program may not be used in any manner that
 competes with the business of Gaussian, Inc. or will provide
 assistance to any competitor of Gaussian, Inc.  The licensee
 of this program is prohibited from giving any competitor of
 Gaussian, Inc. access to this program.  By using this program,
 the user acknowledges that Gaussian, Inc. is engaged in the
 business of creating and licensing software in the field of
 computational chemistry and represents and warrants to the
 licensee that it is not a competitor of Gaussian, Inc. and that
 it will not use this program in any manner prohibited above.
 ---------------------------------------------------------------
  

 Cite this work as:
 Gaussian 16, Revision C.02,
 M. J. Frisch, G. W. Trucks, H. B. Schlegel, G. E. Scuseria, 
 M. A. Robb, J. R. Cheeseman, G. Scalmani, V. Barone, 
 G. A. Petersson, H. Nakatsuji, X. Li, M. Caricato, A. V. Marenich, 
 J. Bloino, B. G. Janesko, R. Gomperts, B. Mennucci, H. P. Hratchian, 
 J. V. Ortiz, A. F. Izmaylov, J. L. Sonnenberg, D. Williams-Young, 
 F. Ding, F. Lipparini, F. Egidi, J. Goings, B. Peng, A. Petrone, 
 T. Henderson, D. Ranasinghe, V. G. Zakrzewski, J. Gao, N. Rega, 
 G. Zheng, W. Liang, M. Hada, M. Ehara, K. Toyota, R. Fukuda, 
 J. Hasegawa, M. Ishida, T. Nakajima, Y. Honda, O. Kitao, H. Nakai, 
 T. Vreven, K. Throssell, J. A. Montgomery, Jr., J. E. Peralta, 
 F. Ogliaro, M. J. Bearpark, J. J. Heyd, E. N. Brothers, K. N. Kudin, 
 V. N. Staroverov, T. A. Keith, R. Kobayashi, J. Normand, 
 K. Raghavachari, A. P. Rendell, J. C. Burant, S. S. Iyengar, 
 J. Tomasi, M. Cossi, J. M. Millam, M. Klene, C. Adamo, R. Cammi, 
 J. W. Ochterski, R. L. Martin, K. Morokuma, O. Farkas, 
 J. B. Foresman, and D. J. Fox, Gaussian, Inc., Wallingford CT, 2019.
 
 ******************************************
 Gaussian 16:  ES64L-G16RevC.02  7-Dec-2021
                 1-Jul-2023 
 ******************************************
 %mem=8GB
 %NPROCS=4
 Will use up to    4 processors via shared memory.
 %NoSave
 ---------------------------------------------------------
 #MP2/6-31G* SCF=Tight Opt=(ModRedun, MaxCycle=20 ) NoSymm
 ---------------------------------------------------------
 1/6=20,18=120,19=15,38=1/1,3;
 2/9=110,12=2,15=1,17=6,18=5,40=1/2;
 3/5=1,6=6,7=1,11=9,25=1,30=1,71=1/1,2,3;
 4//1;
 5/5=2,32=2,38=5/2;
 8/6=4,10=2/1;
 9/15=2,16=-3/6;
 10/5=1,31=1/2;
 6/7=2,8=2,9=2,10=2/1;
 7/12=2,30=1/1,2,3,16;
 1/6=20,18=20,19=15/3(2);
 2/9=110,15=1/2;
 99//99;
 2/9=110,15=1/2;
 3/5=1,6=6,7=1,11=9,25=1,30=1,71=1/1,2,3;
 4/5=5,16=3,69=1/1;
 5/5=2,32=2,38=5/2;
 8/6=4,10=2/1;
 9/15=2,16=-3/6;
 10/5=1,31=1/2;
 7/12=2,30=1/1,2,3,16;
 1/6=20,18=20,19=15/3(-8);
 2/9=110,15=1/2;
 6/7=2,8=2,9=2,10=2/1;
 99/9=10/99;
 --------
 MolName:
 --------
 Symbolic Z-matrix:
 Charge =  0 Multiplicity = 1
 8                    0    -3.60803  -1.2772   -0.67966 
 7                    0    -3.16538  -0.13946  -0.53219 
 8                    0    -3.81634   0.87814  -0.77371 
 6                    0    -1.71493   0.00938  -0.06074 
 6                    0    -1.32438   1.30837   0.28567 
 7                    0    -0.08318   1.68385   0.716 
 6                    0     1.20022   0.96016   0.50934 
 1                    0     1.94425   1.47358   1.17321 
 6                    0     1.78529   1.03329  -0.9229 
 6                    0     3.22568   0.48744  -0.9148 
 6                    0     3.27703  -0.92961  -0.32151 
 6                    0     2.59824  -0.98509   1.06442 
 6                    0     1.1275   -0.48911   1. 
 1                    0     0.70507  -0.53445   2.03143 
 7                    0     0.37424  -1.39533   0.13043 
 6                    0    -0.90373  -1.24374  -0.00358 
 1                    0    -2.06742   2.11886   0.20334 
 1                    0     0.14717   2.67389   0.8302 
 1                    0     1.15954   0.4383   -1.62188 
 1                    0     1.79312   2.08516  -1.27953 
 1                    0     3.63321   0.47745  -1.94941 
 1                    0     3.86731   1.15748  -0.30014 
 1                    0     2.75609  -1.63049  -1.01239 
 1                    0     4.33326  -1.26616  -0.23688 
 1                    0     2.61636  -2.03189   1.43935 
 1                    0     3.17023  -0.35966   1.7814 
 1                    0    -1.4694   -2.14012  -0.29749 
 
 The following ModRedundant input section has been read:
 D       5       6       7       8 F                                           
 D       1       2       4      16 F                                           
 D       7      13      15      16 F                                           
 D       7       9      10      11 F                                           
 D       9      10      11      12 F                                           
 D       6       7      13      15 F                                           
 

 GradGradGradGradGradGradGradGradGradGradGradGradGradGradGradGradGradGrad
 Berny optimization.
 Initialization pass.
                           ----------------------------
                           !    Initial Parameters    !
                           ! (Angstroms and Degrees)  !
 --------------------------                            --------------------------
 ! Name  Definition              Value          Derivative Info.                !
 --------------------------------------------------------------------------------
 ! R1    R(1,2)                  1.2297         estimate D2E/DX2                !
 ! R2    R(2,3)                  1.2319         estimate D2E/DX2                !
 ! R3    R(2,4)                  1.5324         estimate D2E/DX2                !
 ! R4    R(4,5)                  1.4            estimate D2E/DX2                !
 ! R5    R(4,16)                 1.4939         estimate D2E/DX2                !
 ! R6    R(5,6)                  1.3663         estimate D2E/DX2                !
 ! R7    R(5,17)                 1.1026         estimate D2E/DX2                !
 ! R8    R(6,7)                  1.4878         estimate D2E/DX2                !
 ! R9    R(6,18)                 1.0229         estimate D2E/DX2                !
 ! R10   R(7,8)                  1.1216         estimate D2E/DX2                !
 ! R11   R(7,9)                  1.5489         estimate D2E/DX2                !
 ! R12   R(7,13)                 1.5318         estimate D2E/DX2                !
 ! R13   R(9,10)                 1.5404         estimate D2E/DX2                !
 ! R14   R(9,19)                 1.1109         estimate D2E/DX2                !
 ! R15   R(9,20)                 1.1107         estimate D2E/DX2                !
 ! R16   R(10,11)                1.5371         estimate D2E/DX2                !
 ! R17   R(10,21)                1.112          estimate D2E/DX2                !
 ! R18   R(10,22)                1.1129         estimate D2E/DX2                !
 ! R19   R(11,12)                1.5442         estimate D2E/DX2                !
 ! R20   R(11,23)                1.1135         estimate D2E/DX2                !
 ! R21   R(11,24)                1.1118         estimate D2E/DX2                !
 ! R22   R(12,13)                1.5535         estimate D2E/DX2                !
 ! R23   R(12,25)                1.1121         estimate D2E/DX2                !
 ! R24   R(12,26)                1.1101         estimate D2E/DX2                !
 ! R25   R(13,14)                1.1155         estimate D2E/DX2                !
 ! R26   R(13,15)                1.4645         estimate D2E/DX2                !
 ! R27   R(15,16)                1.2939         estimate D2E/DX2                !
 ! R28   R(16,27)                1.0999         estimate D2E/DX2                !
 ! A1    A(1,2,3)              123.4044         estimate D2E/DX2                !
 ! A2    A(1,2,4)              117.871          estimate D2E/DX2                !
 ! A3    A(3,2,4)              118.7015         estimate D2E/DX2                !
 ! A4    A(2,4,5)              115.4869         estimate D2E/DX2                !
 ! A5    A(2,4,16)             116.3773         estimate D2E/DX2                !
 ! A6    A(5,4,16)             128.1256         estimate D2E/DX2                !
 ! A7    A(4,5,6)              125.8992         estimate D2E/DX2                !
 ! A8    A(4,5,17)             118.3963         estimate D2E/DX2                !
 ! A9    A(6,5,17)             115.7025         estimate D2E/DX2                !
 ! A10   A(5,6,7)              127.3163         estimate D2E/DX2                !
 ! A11   A(5,6,18)             120.3804         estimate D2E/DX2                !
 ! A12   A(7,6,18)             106.9806         estimate D2E/DX2                !
 ! A13   A(6,7,8)              105.5073         estimate D2E/DX2                !
 ! A14   A(6,7,9)              115.5517         estimate D2E/DX2                !
 ! A15   A(6,7,13)             112.0097         estimate D2E/DX2                !
 ! A16   A(8,7,9)              105.9706         estimate D2E/DX2                !
 ! A17   A(8,7,13)             105.9621         estimate D2E/DX2                !
 ! A18   A(9,7,13)             111.0266         estimate D2E/DX2                !
 ! A19   A(7,9,10)             109.3678         estimate D2E/DX2                !
 ! A20   A(7,9,19)             110.1059         estimate D2E/DX2                !
 ! A21   A(7,9,20)             110.1381         estimate D2E/DX2                !
 ! A22   A(10,9,19)            109.8908         estimate D2E/DX2                !
 ! A23   A(10,9,20)            109.3105         estimate D2E/DX2                !
 ! A24   A(19,9,20)            108.0085         estimate D2E/DX2                !
 ! A25   A(9,10,11)            111.0975         estimate D2E/DX2                !
 ! A26   A(9,10,21)            109.9366         estimate D2E/DX2                !
 ! A27   A(9,10,22)            109.189          estimate D2E/DX2                !
 ! A28   A(11,10,21)           109.7908         estimate D2E/DX2                !
 ! A29   A(11,10,22)           108.8214         estimate D2E/DX2                !
 ! A30   A(21,10,22)           107.9381         estimate D2E/DX2                !
 ! A31   A(10,11,12)           111.3985         estimate D2E/DX2                !
 ! A32   A(10,11,23)           108.9753         estimate D2E/DX2                !
 ! A33   A(10,11,24)           109.8885         estimate D2E/DX2                !
 ! A34   A(12,11,23)           109.1832         estimate D2E/DX2                !
 ! A35   A(12,11,24)           109.7801         estimate D2E/DX2                !
 ! A36   A(23,11,24)           107.5267         estimate D2E/DX2                !
 ! A37   A(11,12,13)           111.5598         estimate D2E/DX2                !
 ! A38   A(11,12,25)           109.2228         estimate D2E/DX2                !
 ! A39   A(11,12,26)           109.4461         estimate D2E/DX2                !
 ! A40   A(13,12,25)           109.2654         estimate D2E/DX2                !
 ! A41   A(13,12,26)           109.5554         estimate D2E/DX2                !
 ! A42   A(25,12,26)           107.7086         estimate D2E/DX2                !
 ! A43   A(7,13,12)            105.6887         estimate D2E/DX2                !
 ! A44   A(7,13,14)            110.6468         estimate D2E/DX2                !
 ! A45   A(7,13,15)            114.814          estimate D2E/DX2                !
 ! A46   A(12,13,14)           107.8909         estimate D2E/DX2                !
 ! A47   A(12,13,15)           108.3014         estimate D2E/DX2                !
 ! A48   A(14,13,15)           109.2132         estimate D2E/DX2                !
 ! A49   A(13,15,16)           119.8028         estimate D2E/DX2                !
 ! A50   A(4,16,15)            129.6862         estimate D2E/DX2                !
 ! A51   A(4,16,27)            113.2111         estimate D2E/DX2                !
 ! A52   A(15,16,27)           116.1132         estimate D2E/DX2                !
 ! D1    D(1,2,4,5)           -170.6735         estimate D2E/DX2                !
 ! D2    D(1,2,4,16)             8.2584         Frozen                          !
 ! D3    D(3,2,4,5)             11.0163         estimate D2E/DX2                !
 ! D4    D(3,2,4,16)          -170.0519         estimate D2E/DX2                !
 ! D5    D(2,4,5,6)           -179.2014         estimate D2E/DX2                !
 ! D6    D(2,4,5,17)             0.2562         estimate D2E/DX2                !
 ! D7    D(16,4,5,6)             2.0151         estimate D2E/DX2                !
 ! D8    D(16,4,5,17)         -178.5273         estimate D2E/DX2                !
 ! D9    D(2,4,16,15)          166.9611         estimate D2E/DX2                !
 ! D10   D(2,4,16,27)           -1.0448         estimate D2E/DX2                !
 ! D11   D(5,4,16,15)          -14.2646         estimate D2E/DX2                !
 ! D12   D(5,4,16,27)          177.7295         estimate D2E/DX2                !
 ! D13   D(4,5,6,7)             21.2286         estimate D2E/DX2                !
 ! D14   D(4,5,6,18)           171.9818         estimate D2E/DX2                !
 ! D15   D(17,5,6,7)          -158.2419         estimate D2E/DX2                !
 ! D16   D(17,5,6,18)           -7.4887         estimate D2E/DX2                !
 ! D17   D(5,6,7,8)           -169.2128         Frozen                          !
 ! D18   D(5,6,7,9)             74.0985         estimate D2E/DX2                !
 ! D19   D(5,6,7,13)           -54.3794         estimate D2E/DX2                !
 ! D20   D(18,6,7,8)            36.9355         estimate D2E/DX2                !
 ! D21   D(18,6,7,9)           -79.7531         estimate D2E/DX2                !
 ! D22   D(18,6,7,13)          151.769          estimate D2E/DX2                !
 ! D23   D(6,7,9,10)           168.9016         estimate D2E/DX2                !
 ! D24   D(6,7,9,19)           -70.2532         estimate D2E/DX2                !
 ! D25   D(6,7,9,20)            48.7525         estimate D2E/DX2                !
 ! D26   D(8,7,9,10)            52.4741         estimate D2E/DX2                !
 ! D27   D(8,7,9,19)           173.3194         estimate D2E/DX2                !
 ! D28   D(8,7,9,20)           -67.675          estimate D2E/DX2                !
 ! D29   D(13,7,9,10)          -62.137          estimate D2E/DX2                !
 ! D30   D(13,7,9,19)           58.7082         estimate D2E/DX2                !
 ! D31   D(13,7,9,20)          177.7139         estimate D2E/DX2                !
 ! D32   D(6,7,13,12)         -165.6898         estimate D2E/DX2                !
 ! D33   D(6,7,13,14)          -49.1493         estimate D2E/DX2                !
 ! D34   D(6,7,13,15)           75.0216         Frozen                          !
 ! D35   D(8,7,13,12)          -51.135          estimate D2E/DX2                !
 ! D36   D(8,7,13,14)           65.4055         estimate D2E/DX2                !
 ! D37   D(8,7,13,15)         -170.4236         estimate D2E/DX2                !
 ! D38   D(9,7,13,12)           63.4814         estimate D2E/DX2                !
 ! D39   D(9,7,13,14)         -179.9781         estimate D2E/DX2                !
 ! D40   D(9,7,13,15)          -55.8072         estimate D2E/DX2                !
 ! D41   D(7,9,10,11)           54.8127         Frozen                          !
 ! D42   D(7,9,10,21)          176.5477         estimate D2E/DX2                !
 ! D43   D(7,9,10,22)          -65.2147         estimate D2E/DX2                !
 ! D44   D(19,9,10,11)         -66.1633         estimate D2E/DX2                !
 ! D45   D(19,9,10,21)          55.5717         estimate D2E/DX2                !
 ! D46   D(19,9,10,22)         173.8093         estimate D2E/DX2                !
 ! D47   D(20,9,10,11)         175.4675         estimate D2E/DX2                !
 ! D48   D(20,9,10,21)         -62.7975         estimate D2E/DX2                !
 ! D49   D(20,9,10,22)          55.4402         estimate D2E/DX2                !
 ! D50   D(9,10,11,12)         -52.8226         Frozen                          !
 ! D51   D(9,10,11,23)          67.704          estimate D2E/DX2                !
 ! D52   D(9,10,11,24)        -174.7122         estimate D2E/DX2                !
 ! D53   D(21,10,11,12)       -174.6426         estimate D2E/DX2                !
 ! D54   D(21,10,11,23)        -54.1161         estimate D2E/DX2                !
 ! D55   D(21,10,11,24)         63.4678         estimate D2E/DX2                !
 ! D56   D(22,10,11,12)         67.4228         estimate D2E/DX2                !
 ! D57   D(22,10,11,23)       -172.0506         estimate D2E/DX2                !
 ! D58   D(22,10,11,24)        -54.4667         estimate D2E/DX2                !
 ! D59   D(10,11,12,13)         56.6496         estimate D2E/DX2                !
 ! D60   D(10,11,12,25)        177.5459         estimate D2E/DX2                !
 ! D61   D(10,11,12,26)        -64.7613         estimate D2E/DX2                !
 ! D62   D(23,11,12,13)        -63.7548         estimate D2E/DX2                !
 ! D63   D(23,11,12,25)         57.1415         estimate D2E/DX2                !
 ! D64   D(23,11,12,26)        174.8344         estimate D2E/DX2                !
 ! D65   D(24,11,12,13)        178.6019         estimate D2E/DX2                !
 ! D66   D(24,11,12,25)        -60.5018         estimate D2E/DX2                !
 ! D67   D(24,11,12,26)         57.1911         estimate D2E/DX2                !
 ! D68   D(11,12,13,7)         -60.4412         estimate D2E/DX2                !
 ! D69   D(11,12,13,14)       -178.8353         estimate D2E/DX2                !
 ! D70   D(11,12,13,15)         63.0656         estimate D2E/DX2                !
 ! D71   D(25,12,13,7)         178.6873         estimate D2E/DX2                !
 ! D72   D(25,12,13,14)         60.2933         estimate D2E/DX2                !
 ! D73   D(25,12,13,15)        -57.8058         estimate D2E/DX2                !
 ! D74   D(26,12,13,7)          60.9062         estimate D2E/DX2                !
 ! D75   D(26,12,13,14)        -57.4879         estimate D2E/DX2                !
 ! D76   D(26,12,13,15)       -175.587          estimate D2E/DX2                !
 ! D77   D(7,13,15,16)         -67.1606         Frozen                          !
 ! D78   D(12,13,15,16)        175.0184         estimate D2E/DX2                !
 ! D79   D(14,13,15,16)         57.7653         estimate D2E/DX2                !
 ! D80   D(13,15,16,4)          36.839          estimate D2E/DX2                !
 ! D81   D(13,15,16,27)       -155.4418         estimate D2E/DX2                !
 --------------------------------------------------------------------------------
 Trust Radius=3.00D-01 FncErr=1.00D-07 GrdErr=1.00D-07 EigMax=2.50D+02 EigMin=1.00D-04
 Number of steps in this run=     20 maximum allowed number of steps=    162.
 GradGradGradGradGradGradGradGradGradGradGradGradGradGradGradGradGradGrad

                          Input orientation:                          
 ---------------------------------------------------------------------
 Center     Atomic      Atomic             Coordinates (Angstroms)
 Number     Number       Type             X           Y           Z
 ---------------------------------------------------------------------
      1          8           0       -3.608030   -1.277200   -0.679660
      2          7           0       -3.165380   -0.139460   -0.532190
      3          8           0       -3.816340    0.878140   -0.773710
      4          6           0       -1.714930    0.009380   -0.060740
      5          6           0       -1.324380    1.308370    0.285670
      6          7           0       -0.083180    1.683850    0.716000
      7          6           0        1.200220    0.960160    0.509340
      8          1           0        1.944250    1.473580    1.173210
      9          6           0        1.785290    1.033290   -0.922900
     10          6           0        3.225680    0.487440   -0.914800
     11          6           0        3.277030   -0.929610   -0.321510
     12          6           0        2.598240   -0.985090    1.064420
     13          6           0        1.127500   -0.489110    1.000000
     14          1           0        0.705070   -0.534450    2.031430
     15          7           0        0.374240   -1.395330    0.130430
     16          6           0       -0.903730   -1.243740   -0.003580
     17          1           0       -2.067420    2.118860    0.203340
     18          1           0        0.147170    2.673890    0.830200
     19          1           0        1.159540    0.438300   -1.621880
     20          1           0        1.793120    2.085160   -1.279530
     21          1           0        3.633210    0.477450   -1.949410
     22          1           0        3.867310    1.157480   -0.300140
     23          1           0        2.756090   -1.630490   -1.012390
     24          1           0        4.333260   -1.266160   -0.236880
     25          1           0        2.616360   -2.031890    1.439350
     26          1           0        3.170230   -0.359660    1.781400
     27          1           0       -1.469400   -2.140120   -0.297490
 ---------------------------------------------------------------------
                    Distance matrix (angstroms):
                    1          2          3          4          5
     1  O    0.000000
     2  N    1.229691   0.000000
     3  O    2.167425   1.231905   0.000000
     4  C    2.371113   1.532391   2.383064   0.000000
     5  C    3.582191   2.480804   2.741760   1.399966   0.000000
     6  N    4.810432   3.792413   4.099377   2.463693   1.366289
     7  C    5.434958   4.620867   5.178689   3.118826   2.558297
     8  H    6.467436   5.623042   6.109783   4.129905   3.391012
     9  C    5.872430   5.102659   5.605764   3.747433   3.347590
    10  C    7.061787   6.433121   7.054261   5.036625   4.776830
    11  C    6.903125   6.494103   7.334054   5.086194   5.152688
    12  C    6.453288   6.040163   6.928000   4.567099   4.610136
    13  C    5.086019   4.571507   5.427428   3.074585   3.122966
    14  H    5.148254   4.659243   5.505213   3.244892   3.249974
    15  N    4.065547   3.813815   4.852535   2.524755   3.196780
    16  C    2.787731   2.571755   3.684939   1.493862   2.602667
    17  H    3.832283   2.616587   2.356424   2.154969   1.102624
    18  H    5.656175   4.554562   4.637527   3.370579   2.080052
    19  H    5.153682   4.497351   5.066777   3.299047   3.250481
    20  H    6.390441   5.485816   5.760104   4.254495   3.573802
    21  H    7.558215   6.972081   7.552392   5.691113   5.501246
    22  H    7.870985   7.155042   7.703296   5.704108   5.226814
    23  H    6.382597   6.125159   7.038965   4.856422   5.193466
    24  H    7.953632   7.588561   8.444062   6.183739   6.237800
    25  H    6.618368   6.395059   7.399023   5.017681   5.293179
    26  H    7.269354   6.748418   7.541412   5.233972   5.022056
    27  H    2.337611   2.633263   3.852896   2.176393   3.500456
                    6          7          8          9         10
     6  N    0.000000
     7  C    1.487801   0.000000
     8  H    2.088954   1.121563   0.000000
     9  C    2.569125   1.548860   2.147743   0.000000
    10  C    3.878074   2.520739   2.640894   1.540370   0.000000
    11  C    4.381508   2.928256   3.128228   2.537703   1.537095
    12  C    3.799296   2.458978   2.546487   2.946894   2.545454
    13  C    2.503629   1.531803   2.132893   2.539278   3.003742
    14  H    2.696766   2.189929   2.510835   3.514648   4.009739
    15  N    3.167566   2.524708   3.432633   2.999794   3.573239
    16  C    3.124401   3.089801   4.108485   3.641544   4.569391
    17  H    2.095057   3.480473   4.177383   4.158155   5.650547
    18  H    1.022879   2.036845   2.188126   2.906607   4.159665
    19  H    2.925992   2.194560   3.082224   1.110923   2.184333
    20  H    2.768337   2.194815   2.532351   1.110710   2.176687
    21  H    4.729838   3.492549   3.687223   2.185747   1.112024
    22  H    4.112904   2.794202   2.443121   2.176709   1.112856
    23  H    4.694000   3.383469   3.882162   2.836580   2.171558
    24  H    5.395876   3.915263   3.898961   3.500035   2.182068
    25  H    4.649460   3.438420   3.579229   3.958059   3.501474
    26  H    3.986940   2.690911   2.287726   3.342395   2.826685
    27  H    4.191839   4.170082   5.184090   4.588537   5.415618
                   11         12         13         14         15
    11  C    0.000000
    12  C    1.544227   0.000000
    13  C    2.561427   1.553455   0.000000
    14  H    3.508198   2.173080   1.115505   0.000000
    15  N    2.974447   2.446796   1.464509   2.112904   0.000000
    16  C    4.204582   3.670329   2.387998   2.689349   1.293888
    17  H    6.175094   5.669599   4.200439   4.250726   4.279784
    18  H    4.909956   4.410299   3.315788   3.470973   4.135189
    19  H    2.836530   3.363347   2.781253   3.807816   2.655087
    20  H    3.494085   3.945726   3.502310   4.359893   4.014352
    21  H    2.180995   3.506188   3.988965   5.044307   4.295803
    22  H    2.169062   2.839572   3.450823   4.277687   4.347846
    23  H    1.113520   2.180504   2.829270   3.830513   2.652272
    24  H    1.111778   2.186933   3.522865   4.341013   3.978120
    25  H    2.179939   1.112066   2.188585   2.499183   2.673122
    26  H    2.181394   1.110133   2.190911   2.483965   3.408207
    27  H    4.898419   4.442363   3.339641   3.567964   2.033921
                   16         17         18         19         20
    16  C    0.000000
    17  H    3.564277   0.000000
    18  H    4.140942   2.367577   0.000000
    19  H    3.115323   4.070501   3.469215   0.000000
    20  H    4.470193   4.135675   2.739839   1.797436   0.000000
    21  H    5.228056   6.310764   4.970217   2.495566   2.533654
    22  H    5.349451   6.033139   4.173321   3.097779   2.474280
    23  H    3.815961   6.229115   5.359971   2.683345   3.847692
    24  H    5.242232   7.254024   5.846880   3.859522   4.332525
    25  H    3.885133   6.379204   5.349049   4.194674   5.002013
    26  H    4.534854   6.005523   4.387038   4.032608   4.152453
    27  H    1.099938   4.329823   5.201892   3.913257   5.427838
                   21         22         23         24         25
    21  H    0.000000
    22  H    1.799260   0.000000
    23  H    2.467946   3.084621   0.000000
    24  H    2.542244   2.468834   1.794886   0.000000
    25  H    4.337564   3.842237   2.488308   2.518697   0.000000
    26  H    3.851499   2.668416   3.097060   2.499567   1.794470
    27  H    5.968010   6.273328   4.315735   5.868419   4.440919
                   26         27
    26  H    0.000000
    27  H    5.386835   0.000000
 Symmetry turned off by external request.
 Stoichiometry    C9H13N3O2
 Framework group  C1[X(C9H13N3O2)]
 Deg. of freedom    75
 Full point group                 C1      NOp   1
 Rotational constants (GHZ):           1.5683845           0.4077281           0.3670261
 Standard basis: 6-31G(d) (6D, 7F)
   236 basis functions,   444 primitive gaussians,   236 cartesian basis functions
    52 alpha electrons       52 beta electrons
       nuclear repulsion energy       918.5885212774 Hartrees.
 NAtoms=   27 NActive=   27 NUniq=   27 SFac= 1.00D+00 NAtFMM=   60 NAOKFM=F Big=F
 Integral buffers will be    131072 words long.
 Raffenetti 1 integral format.
 Two-electron integral symmetry is turned off.
 One-electron integrals computed using PRISM.
 NBasis=   236 RedAO= T EigKep=  1.29D-03  NBF=   236
 NBsUse=   236 1.00D-06 EigRej= -1.00D+00 NBFU=   236
 ExpMin= 1.61D-01 ExpMax= 5.48D+03 ExpMxC= 8.25D+02 IAcc=3 IRadAn=         5 AccDes= 0.00D+00
 Harris functional with IExCor=  205 and IRadAn=       5 diagonalized for initial guess.
 HarFok:  IExCor=  205 AccDes= 0.00D+00 IRadAn=         5 IDoV= 1 UseB2=F ITyADJ=14
 ICtDFT=  3500011 ScaDFX=  1.000000  1.000000  1.000000  1.000000
 FoFCou: FMM=F IPFlag=           0 FMFlag=      100000 FMFlg1=           0
         NFxFlg=           0 DoJE=T BraDBF=F KetDBF=T FulRan=T
         wScrn=  0.000000 ICntrl=       500 IOpCl=  0 I1Cent=   200000004 NGrid=           0
         NMat0=    1 NMatS0=      1 NMatT0=    0 NMatD0=    1 NMtDS0=    0 NMtDT0=    0
 Symmetry not used in FoFCou.
 Keep R1 ints in memory in canonical form, NReq=397720213.
 Requested convergence on RMS density matrix=1.00D-08 within 128 cycles.
 Requested convergence on MAX density matrix=1.00D-06.
 Requested convergence on             energy=1.00D-06.
 No special actions if energy rises.
 SCF Done:  E(RHF) =  -661.270223079     A.U. after   16 cycles
            NFock= 16  Conv=0.76D-08     -V/T= 2.0036
 ExpMin= 1.61D-01 ExpMax= 5.48D+03 ExpMxC= 8.25D+02 IAcc=3 IRadAn=         5 AccDes= 0.00D+00
 HarFok:  IExCor=  205 AccDes= 0.00D+00 IRadAn=         5 IDoV=-2 UseB2=F ITyADJ=14
 ICtDFT= 12500011 ScaDFX=  1.000000  1.000000  1.000000  1.000000
 Range of M.O.s used for correlation:    15   236
 NBasis=   236 NAE=    52 NBE=    52 NFC=    14 NFV=     0
 NROrb=    222 NOA=    38 NOB=    38 NVA=   184 NVB=   184
 Fully direct method using O(ONN) memory.
 JobTyp=1 Pass  1:  I=  15 to  52 NPSUse=  4 ParTrn=T ParDer=T DoDerP=T.
 Spin components of T(2) and E(2):
     alpha-alpha T2 =       0.9221640859D-01 E2=     -0.2720794099D+00
     alpha-beta  T2 =       0.5001964590D+00 E2=     -0.1494223248D+01
     beta-beta   T2 =       0.9221640859D-01 E2=     -0.2720794099D+00
 ANorm=    0.1297932693D+01
 E2 =    -0.2038382068D+01 EUMP2 =    -0.66330860514665D+03
          IDoAtm=111111111111111111111111111
          Differentiating once with respect to electric field.
                with respect to dipole field.
          Differentiating once with respect to nuclear coordinates.
 Keep R1 ints in memory in canonical form, NReq=397723379.
          There are     1 degrees of freedom in the 1st order CPHF.  IDoFFX=0 NUNeed=     1.
 LinEq1:  Iter=  0 NonCon=     1 RMS=4.69D-03 Max=1.34D-01 NDo=     1
 AX will form     1 AO Fock derivatives at one time.
 LinEq1:  Iter=  1 NonCon=     1 RMS=1.60D-03 Max=5.05D-02 NDo=     1
 LinEq1:  Iter=  2 NonCon=     1 RMS=6.63D-04 Max=2.18D-02 NDo=     1
 LinEq1:  Iter=  3 NonCon=     1 RMS=3.03D-04 Max=1.00D-02 NDo=     1
 LinEq1:  Iter=  4 NonCon=     1 RMS=9.73D-05 Max=2.81D-03 NDo=     1
 LinEq1:  Iter=  5 NonCon=     1 RMS=4.05D-05 Max=1.80D-03 NDo=     1
 LinEq1:  Iter=  6 NonCon=     1 RMS=1.66D-05 Max=5.17D-04 NDo=     1
 LinEq1:  Iter=  7 NonCon=     1 RMS=6.38D-06 Max=8.48D-05 NDo=     1
 LinEq1:  Iter=  8 NonCon=     1 RMS=2.53D-06 Max=5.54D-05 NDo=     1
 LinEq1:  Iter=  9 NonCon=     1 RMS=9.67D-07 Max=2.96D-05 NDo=     1
 LinEq1:  Iter= 10 NonCon=     1 RMS=4.51D-07 Max=1.20D-05 NDo=     1
 LinEq1:  Iter= 11 NonCon=     1 RMS=1.77D-07 Max=5.03D-06 NDo=     1
 LinEq1:  Iter= 12 NonCon=     1 RMS=6.39D-08 Max=1.24D-06 NDo=     1
 LinEq1:  Iter= 13 NonCon=     1 RMS=2.07D-08 Max=4.81D-07 NDo=     1
 LinEq1:  Iter= 14 NonCon=     1 RMS=6.74D-09 Max=1.86D-07 NDo=     1
 LinEq1:  Iter= 15 NonCon=     1 RMS=2.42D-09 Max=6.48D-08 NDo=     1
 LinEq1:  Iter= 16 NonCon=     1 RMS=8.32D-10 Max=1.32D-08 NDo=     1
 LinEq1:  Iter= 17 NonCon=     1 RMS=2.80D-10 Max=6.04D-09 NDo=     1
 LinEq1:  Iter= 18 NonCon=     1 RMS=9.77D-11 Max=1.36D-09 NDo=     1
 LinEq1:  Iter= 19 NonCon=     0 RMS=3.36D-11 Max=5.92D-10 NDo=     1
 Linear equations converged to 1.000D-10 1.000D-09 after    19 iterations.
 End of Minotr F.D. properties file   721 does not exist.
 End of Minotr F.D. properties file   722 does not exist.
 End of Minotr F.D. properties file   788 does not exist.

 **********************************************************************

            Population analysis using the SCF Density.

 **********************************************************************

 Alpha  occ. eigenvalues --  -20.59786 -20.59474 -15.85349 -15.63696 -15.55853
 Alpha  occ. eigenvalues --  -11.35944 -11.30616 -11.30240 -11.29886 -11.27502
 Alpha  occ. eigenvalues --  -11.24609 -11.23871 -11.23191 -11.22837  -1.58513
 Alpha  occ. eigenvalues --   -1.37983  -1.29064  -1.22334  -1.13229  -1.08412
 Alpha  occ. eigenvalues --   -1.01610  -1.00682  -0.93699  -0.88886  -0.84824
 Alpha  occ. eigenvalues --   -0.81499  -0.78003  -0.76947  -0.74328  -0.71270
 Alpha  occ. eigenvalues --   -0.70277  -0.69841  -0.67347  -0.63858  -0.63467
 Alpha  occ. eigenvalues --   -0.61925  -0.59647  -0.57391  -0.56430  -0.54758
 Alpha  occ. eigenvalues --   -0.54261  -0.50520  -0.49656  -0.48646  -0.47824
 Alpha  occ. eigenvalues --   -0.47794  -0.46498  -0.45134  -0.44073  -0.42276
 Alpha  occ. eigenvalues --   -0.38517  -0.33407
 Alpha virt. eigenvalues --    0.07094   0.11202   0.17178   0.21684   0.23804
 Alpha virt. eigenvalues --    0.24471   0.25931   0.27925   0.28575   0.28907
 Alpha virt. eigenvalues --    0.30523   0.31599   0.31814   0.32462   0.33126
 Alpha virt. eigenvalues --    0.34000   0.34725   0.35903   0.37617   0.39184
 Alpha virt. eigenvalues --    0.40227   0.41144   0.43867   0.45045   0.45328
 Alpha virt. eigenvalues --    0.47223   0.49863   0.53422   0.57623   0.59120
 Alpha virt. eigenvalues --    0.63010   0.68081   0.69614   0.72637   0.74015
 Alpha virt. eigenvalues --    0.74944   0.75694   0.76427   0.77949   0.78584
 Alpha virt. eigenvalues --    0.81155   0.81909   0.84271   0.84953   0.87798
 Alpha virt. eigenvalues --    0.88270   0.90821   0.92343   0.92812   0.93573
 Alpha virt. eigenvalues --    0.95288   0.97565   0.99080   1.01182   1.01938
 Alpha virt. eigenvalues --    1.03237   1.04990   1.05582   1.07059   1.08496
 Alpha virt. eigenvalues --    1.09916   1.10804   1.11733   1.12707   1.12878
 Alpha virt. eigenvalues --    1.13369   1.14588   1.14789   1.15681   1.16637
 Alpha virt. eigenvalues --    1.17593   1.19482   1.21241   1.22203   1.22740
 Alpha virt. eigenvalues --    1.23249   1.24642   1.26368   1.27213   1.29245
 Alpha virt. eigenvalues --    1.29453   1.31216   1.34652   1.36468   1.39060
 Alpha virt. eigenvalues --    1.41672   1.46828   1.51851   1.52734   1.52918
 Alpha virt. eigenvalues --    1.54665   1.59122   1.61093   1.63624   1.66336
 Alpha virt. eigenvalues --    1.67005   1.67860   1.71642   1.73919   1.75758
 Alpha virt. eigenvalues --    1.80456   1.82376   1.83572   1.86360   1.91518
 Alpha virt. eigenvalues --    1.93235   1.95997   1.98297   1.99772   2.01035
 Alpha virt. eigenvalues --    2.02137   2.03655   2.05389   2.09598   2.11332
 Alpha virt. eigenvalues --    2.11812   2.13046   2.16442   2.18165   2.19478
 Alpha virt. eigenvalues --    2.20625   2.22403   2.24513   2.24694   2.26294
 Alpha virt. eigenvalues --    2.28786   2.31893   2.32897   2.35175   2.37328
 Alpha virt. eigenvalues --    2.39391   2.42170   2.42978   2.44514   2.45804
 Alpha virt. eigenvalues --    2.48478   2.50891   2.52550   2.56304   2.58057
 Alpha virt. eigenvalues --    2.60360   2.62766   2.67621   2.67843   2.68493
 Alpha virt. eigenvalues --    2.69422   2.71135   2.73919   2.74876   2.81671
 Alpha virt. eigenvalues --    2.84360   2.85965   2.89605   2.91955   2.93585
 Alpha virt. eigenvalues --    2.97721   2.98035   3.02093   3.05459   3.07033
 Alpha virt. eigenvalues --    3.08970   3.14671   3.19129   3.22667   3.27309
 Alpha virt. eigenvalues --    3.30267   3.31389   3.38028   3.41854   3.59467
 Alpha virt. eigenvalues --    4.10247   4.22815   4.32305   4.35666   4.44230
 Alpha virt. eigenvalues --    4.51502   4.59485   4.59954   4.70319   4.78299
 Alpha virt. eigenvalues --    4.95665   4.99264   5.04937   5.08645
          Condensed to atoms (all electrons):
               1          2          3          4          5          6
     1  O    8.303823   0.308119  -0.090204  -0.075409   0.003491  -0.000011
     2  N    0.308119   5.678470   0.312954   0.264117  -0.048495   0.000725
     3  O   -0.090204   0.312954   8.327078  -0.087735   0.007929   0.000481
     4  C   -0.075409   0.264117  -0.087735   5.263371   0.561608  -0.053826
     5  C    0.003491  -0.048495   0.007929   0.561608   4.691520   0.318702
     6  N   -0.000011   0.000725   0.000481  -0.053826   0.318702   7.144777
     7  C    0.000001  -0.000107   0.000002   0.006911  -0.030451   0.208787
     8  H   -0.000000   0.000001  -0.000000  -0.000257   0.003043  -0.044490
     9  C    0.000000  -0.000008  -0.000000   0.000620   0.000115  -0.058246
    10  C   -0.000000   0.000000   0.000000  -0.000025  -0.000007   0.003316
    11  C   -0.000000   0.000000  -0.000000  -0.000015   0.000005  -0.000145
    12  C    0.000000   0.000001  -0.000000  -0.000294  -0.000097   0.003965
    13  C   -0.000006   0.000034  -0.000000  -0.007286  -0.001577  -0.055185
    14  H    0.000000  -0.000019   0.000000   0.001402   0.001995  -0.004597
    15  N    0.000400   0.001399  -0.000007  -0.066605  -0.005156   0.002113
    16  C   -0.000585  -0.020528   0.002084   0.306922  -0.044075   0.002182
    17  H    0.000156  -0.004470   0.012523  -0.024768   0.375178  -0.032114
    18  H    0.000000  -0.000032   0.000008   0.001914  -0.026779   0.333110
    19  H   -0.000000  -0.000007  -0.000000  -0.000911   0.001463  -0.000727
    20  H    0.000000   0.000000   0.000000  -0.000030  -0.000074  -0.000075
    21  H   -0.000000  -0.000000  -0.000000   0.000002   0.000001  -0.000063
    22  H   -0.000000   0.000000  -0.000000  -0.000001  -0.000001  -0.000088
    23  H    0.000000  -0.000000   0.000000   0.000025  -0.000001  -0.000024
    24  H    0.000000   0.000000   0.000000  -0.000000  -0.000000   0.000005
    25  H    0.000000  -0.000000   0.000000   0.000026  -0.000001  -0.000078
    26  H    0.000000  -0.000000   0.000000   0.000004  -0.000002  -0.000081
    27  H    0.007254  -0.000168   0.000084  -0.068732   0.001998  -0.000029
               7          8          9         10         11         12
     1  O    0.000001  -0.000000   0.000000  -0.000000  -0.000000   0.000000
     2  N   -0.000107   0.000001  -0.000008   0.000000   0.000000   0.000001
     3  O    0.000002  -0.000000  -0.000000   0.000000  -0.000000  -0.000000
     4  C    0.006911  -0.000257   0.000620  -0.000025  -0.000015  -0.000294
     5  C   -0.030451   0.003043   0.000115  -0.000007   0.000005  -0.000097
     6  N    0.208787  -0.044490  -0.058246   0.003316  -0.000145   0.003965
     7  C    5.067324   0.411755   0.342967  -0.048730  -0.008534  -0.064599
     8  H    0.411755   0.544472  -0.055664   0.000141  -0.000128  -0.003533
     9  C    0.342967  -0.055664   5.169115   0.321078  -0.054030  -0.005073
    10  C   -0.048730   0.000141   0.321078   5.125891   0.332361  -0.060883
    11  C   -0.008534  -0.000128  -0.054030   0.332361   5.125272   0.330335
    12  C   -0.064599  -0.003533  -0.005073  -0.060883   0.330335   5.145335
    13  C    0.305216  -0.037543  -0.056268  -0.000695  -0.046451   0.364847
    14  H   -0.043669  -0.000684   0.003727  -0.000384   0.003962  -0.041557
    15  N   -0.067816   0.004074  -0.010173   0.001022  -0.006614  -0.076257
    16  C    0.000283  -0.000257   0.000237  -0.000092  -0.000036   0.003139
    17  H    0.001519  -0.000062  -0.000011   0.000001  -0.000000   0.000002
    18  H   -0.030585  -0.004814   0.001296  -0.000109   0.000009  -0.000161
    19  H   -0.035496   0.003956   0.389805  -0.034066  -0.002073   0.000494
    20  H   -0.042070  -0.001826   0.397151  -0.036663   0.004124  -0.000395
    21  H    0.004102  -0.000059  -0.036087   0.400178  -0.035763   0.004253
    22  H   -0.004640   0.003570  -0.045436   0.395617  -0.045397  -0.001303
    23  H    0.000526   0.000037  -0.002072  -0.040431   0.396558  -0.037131
    24  H   -0.000151  -0.000109   0.004411  -0.038445   0.400503  -0.037507
    25  H    0.005319  -0.000026  -0.000406   0.004124  -0.033658   0.394452
    26  H   -0.004363   0.001448   0.001112  -0.002456  -0.042687   0.393429
    27  H   -0.000385   0.000008  -0.000035   0.000002   0.000007  -0.000023
              13         14         15         16         17         18
     1  O   -0.000006   0.000000   0.000400  -0.000585   0.000156   0.000000
     2  N    0.000034  -0.000019   0.001399  -0.020528  -0.004470  -0.000032
     3  O   -0.000000   0.000000  -0.000007   0.002084   0.012523   0.000008
     4  C   -0.007286   0.001402  -0.066605   0.306922  -0.024768   0.001914
     5  C   -0.001577   0.001995  -0.005156  -0.044075   0.375178  -0.026779
     6  N   -0.055185  -0.004597   0.002113   0.002182  -0.032114   0.333110
     7  C    0.305216  -0.043669  -0.067816   0.000283   0.001519  -0.030585
     8  H   -0.037543  -0.000684   0.004074  -0.000257  -0.000062  -0.004814
     9  C   -0.056268   0.003727  -0.010173   0.000237  -0.000011   0.001296
    10  C   -0.000695  -0.000384   0.001022  -0.000092   0.000001  -0.000109
    11  C   -0.046451   0.003962  -0.006614  -0.000036  -0.000000   0.000009
    12  C    0.364847  -0.041557  -0.076257   0.003139   0.000002  -0.000161
    13  C    5.017953   0.412596   0.258412  -0.064836  -0.000102   0.004110
    14  H    0.412596   0.516265  -0.032544  -0.010279  -0.000007  -0.000029
    15  N    0.258412  -0.032544   6.971894   0.568754  -0.000075  -0.000131
    16  C   -0.064836  -0.010279   0.568754   4.725487   0.001325  -0.000166
    17  H   -0.000102  -0.000007  -0.000075   0.001325   0.382394  -0.002752
    18  H    0.004110  -0.000029  -0.000131  -0.000166  -0.002752   0.325592
    19  H   -0.005582   0.000054   0.006240   0.001138  -0.000005  -0.000129
    20  H    0.003983  -0.000055   0.000084  -0.000050  -0.000026   0.001662
    21  H   -0.000426   0.000009  -0.000034   0.000003  -0.000000   0.000001
    22  H    0.000344  -0.000040   0.000012   0.000000   0.000000   0.000001
    23  H   -0.005956  -0.000004   0.006583   0.000067   0.000000   0.000000
    24  H    0.004145  -0.000062  -0.000014   0.000005   0.000000  -0.000000
    25  H   -0.034400  -0.002832   0.001786  -0.000071  -0.000000   0.000003
    26  H   -0.045089  -0.000928   0.004225  -0.000035   0.000000  -0.000001
    27  H    0.004614  -0.000114  -0.041900   0.405079  -0.000065   0.000000
              19         20         21         22         23         24
     1  O   -0.000000   0.000000  -0.000000  -0.000000   0.000000   0.000000
     2  N   -0.000007   0.000000  -0.000000   0.000000  -0.000000   0.000000
     3  O   -0.000000   0.000000  -0.000000  -0.000000   0.000000   0.000000
     4  C   -0.000911  -0.000030   0.000002  -0.000001   0.000025  -0.000000
     5  C    0.001463  -0.000074   0.000001  -0.000001  -0.000001  -0.000000
     6  N   -0.000727  -0.000075  -0.000063  -0.000088  -0.000024   0.000005
     7  C   -0.035496  -0.042070   0.004102  -0.004640   0.000526  -0.000151
     8  H    0.003956  -0.001826  -0.000059   0.003570   0.000037  -0.000109
     9  C    0.389805   0.397151  -0.036087  -0.045436  -0.002072   0.004411
    10  C   -0.034066  -0.036663   0.400178   0.395617  -0.040431  -0.038445
    11  C   -0.002073   0.004124  -0.035763  -0.045397   0.396558   0.400503
    12  C    0.000494  -0.000395   0.004253  -0.001303  -0.037131  -0.037507
    13  C   -0.005582   0.003983  -0.000426   0.000344  -0.005956   0.004145
    14  H    0.000054  -0.000055   0.000009  -0.000040  -0.000004  -0.000062
    15  N    0.006240   0.000084  -0.000034   0.000012   0.006583  -0.000014
    16  C    0.001138  -0.000050   0.000003   0.000000   0.000067   0.000005
    17  H   -0.000005  -0.000026  -0.000000   0.000000   0.000000   0.000000
    18  H   -0.000129   0.001662   0.000001   0.000001   0.000000  -0.000000
    19  H    0.505111  -0.023587  -0.002521   0.003771   0.001727  -0.000076
    20  H   -0.023587   0.544963  -0.002677  -0.002903  -0.000050  -0.000090
    21  H   -0.002521  -0.002677   0.525334  -0.024703  -0.002846  -0.002059
    22  H    0.003771  -0.002903  -0.024703   0.569516   0.004082  -0.003506
    23  H    0.001727  -0.000050  -0.002846   0.004082   0.512025  -0.024846
    24  H   -0.000076  -0.000090  -0.002059  -0.003506  -0.024846   0.539846
    25  H   -0.000028   0.000011  -0.000086  -0.000083  -0.002055  -0.002429
    26  H    0.000025  -0.000035  -0.000071   0.002452   0.003880  -0.002778
    27  H    0.000058   0.000000  -0.000000   0.000000  -0.000019  -0.000000
              25         26         27
     1  O    0.000000   0.000000   0.007254
     2  N   -0.000000  -0.000000  -0.000168
     3  O    0.000000   0.000000   0.000084
     4  C    0.000026   0.000004  -0.068732
     5  C   -0.000001  -0.000002   0.001998
     6  N   -0.000078  -0.000081  -0.000029
     7  C    0.005319  -0.004363  -0.000385
     8  H   -0.000026   0.001448   0.000008
     9  C   -0.000406   0.001112  -0.000035
    10  C    0.004124  -0.002456   0.000002
    11  C   -0.033658  -0.042687   0.000007
    12  C    0.394452   0.393429  -0.000023
    13  C   -0.034400  -0.045089   0.004614
    14  H   -0.002832  -0.000928  -0.000114
    15  N    0.001786   0.004225  -0.041900
    16  C   -0.000071  -0.000035   0.405079
    17  H   -0.000000   0.000000  -0.000065
    18  H    0.000003  -0.000001   0.000000
    19  H   -0.000028   0.000025   0.000058
    20  H    0.000011  -0.000035   0.000000
    21  H   -0.000086  -0.000071  -0.000000
    22  H   -0.000083   0.002452   0.000000
    23  H   -0.002055   0.003880  -0.000019
    24  H   -0.002429  -0.002778  -0.000000
    25  H    0.509877  -0.023297  -0.000020
    26  H   -0.023297   0.566702   0.000001
    27  H   -0.000020   0.000001   0.439012
 Mulliken charges:
               1
     1  O   -0.457031
     2  N    0.508015
     3  O   -0.485197
     4  C   -0.021029
     5  C    0.189667
     6  N   -0.768382
     7  C    0.026885
     8  H    0.176948
     9  C   -0.308127
    10  C   -0.320744
    11  C   -0.317606
    12  C   -0.311437
    13  C   -0.014851
    14  H    0.197795
    15  N   -0.519673
    16  C    0.124305
    17  H    0.291359
    18  H    0.397978
    19  H    0.191367
    20  H    0.158628
    21  H    0.173514
    22  H    0.148739
    23  H    0.189926
    24  H    0.163160
    25  H    0.183871
    26  H    0.148544
    27  H    0.253375
 Sum of Mulliken charges =  -0.00000
 Mulliken charges with hydrogens summed into heavy atoms:
               1
     1  O   -0.457031
     2  N    0.508015
     3  O   -0.485197
     4  C   -0.021029
     5  C    0.481026
     6  N   -0.370404
     7  C    0.203834
     9  C    0.041867
    10  C    0.001509
    11  C    0.035480
    12  C    0.020978
    13  C    0.182944
    15  N   -0.519673
    16  C    0.377680
 Electronic spatial extent (au):  <R**2>=           3078.4043
 Charge=              0.0000 electrons
 Dipole moment (field-independent basis, Debye):
    X=              5.1652    Y=              4.3921    Z=              2.1193  Tot=              7.1036
 Quadrupole moment (field-independent basis, Debye-Ang):
   XX=           -103.4584   YY=            -79.7811   ZZ=            -83.6871
   XY=             -0.1223   XZ=             -5.2024   YZ=              1.6252
 Traceless Quadrupole moment (field-independent basis, Debye-Ang):
   XX=            -14.4829   YY=              9.1944   ZZ=              5.2884
   XY=             -0.1223   XZ=             -5.2024   YZ=              1.6252
 Octapole moment (field-independent basis, Debye-Ang**2):
  XXX=             84.7381  YYY=             31.8433  ZZZ=              6.3588  XYY=             -5.0389
  XXY=              5.6742  XXZ=             29.1350  XZZ=             -2.2092  YZZ=             -1.6830
  YYZ=             11.1392  XYZ=             -0.1448
 Hexadecapole moment (field-independent basis, Debye-Ang**3):
 XXXX=          -3357.3669 YYYY=           -617.1832 ZZZZ=           -363.1697 XXXY=              6.7974
 XXXZ=           -189.4337 YYYX=             22.5795 YYYZ=             31.3985 ZZZX=            -89.5160
 ZZZY=             11.7350 XXYY=           -631.9141 XXZZ=           -559.6194 YYZZ=           -175.1167
 XXYZ=             10.0767 YYXZ=            -34.0360 ZZXY=             12.1622
 N-N= 9.185885212774D+02 E-N=-3.383250560612D+03  KE= 6.588867312472D+02
 Calling FoFJK, ICntrl=  10002127 FMM=F ISym2X=0 I1Cent= 0 IOpClX= 0 NMat=1 NMatS=1 NMatT=0.
 -------------------------------------------------------------------
 Center     Atomic                   Forces (Hartrees/Bohr)
 Number     Number              X              Y              Z
 -------------------------------------------------------------------
      1        8          -0.000785796   -0.018760735    0.000997639
      2        7           0.037825304    0.006627924    0.012532840
      3        8          -0.002400152    0.017001041    0.000048668
      4        6          -0.003458409    0.004096528    0.014686593
      5        6           0.001088569   -0.012957767   -0.008851141
      6        7           0.017635679   -0.000930450   -0.010680094
      7        6          -0.002053772    0.007066393    0.008046513
      8        1          -0.012958675   -0.002154287   -0.006233630
      9        6          -0.005045617    0.001390044   -0.002184702
     10        6           0.002660068   -0.001515775    0.000628402
     11        6          -0.001550775   -0.003981929   -0.001498037
     12        6           0.000871531   -0.009555722   -0.002643578
     13        6           0.017149894    0.001798389   -0.006118876
     14        1           0.000883554    0.002732318   -0.012614244
     15        7          -0.001003003   -0.011508655    0.033049822
     16        6          -0.021137272    0.015807625   -0.027219916
     17        1           0.005946236   -0.008793824    0.002214316
     18        1          -0.018454771   -0.002912627   -0.001670893
     19        1           0.003460350    0.005716150    0.007009962
     20        1          -0.002771603   -0.007969111    0.003118683
     21        1          -0.003193471    0.002351791    0.010037062
     22        1          -0.004797462   -0.004074843   -0.006766457
     23        1           0.004841462    0.005828391    0.008392608
     24        1          -0.009733211    0.002142505   -0.001080405
     25        1          -0.001487024    0.010582840   -0.002532321
     26        1          -0.005050961   -0.004663690   -0.003733084
     27        1           0.003519328    0.006637475   -0.006935731
 -------------------------------------------------------------------
 Cartesian Forces:  Max     0.037825304 RMS     0.010071346

 GradGradGradGradGradGradGradGradGradGradGradGradGradGradGradGradGradGrad
 Berny optimization.
 FormGI is forming the generalized inverse of G from B-inverse, IUseBI=4.
 Internal  Forces:  Max     0.037437647 RMS     0.007065227
 Search for a local minimum.
 Step number   1 out of a maximum of   20
 All quantities printed in internal units (Hartrees-Bohrs-Radians)
 Mixed Optimization -- RFO/linear search
 Second derivative matrix not updated -- first step.
 ITU=  0
     Eigenvalues ---    0.00233   0.00801   0.01053   0.01171   0.01375
     Eigenvalues ---    0.01438   0.01546   0.01905   0.02067   0.02113
     Eigenvalues ---    0.02678   0.03315   0.03790   0.04578   0.04758
     Eigenvalues ---    0.04885   0.05137   0.05289   0.05612   0.06225
     Eigenvalues ---    0.07118   0.07661   0.07691   0.07809   0.07980
     Eigenvalues ---    0.08044   0.08050   0.10433   0.11396   0.11943
     Eigenvalues ---    0.12499   0.13873   0.14851   0.15862   0.16000
     Eigenvalues ---    0.20045   0.22207   0.23123   0.24996   0.25000
     Eigenvalues ---    0.25000   0.25426   0.26463   0.26660   0.27974
     Eigenvalues ---    0.28100   0.28533   0.29204   0.31406   0.31978
     Eigenvalues ---    0.32024   0.32230   0.32299   0.32382   0.32387
     Eigenvalues ---    0.32413   0.32503   0.32525   0.32586   0.33250
     Eigenvalues ---    0.33394   0.33689   0.35517   0.43882   0.44356
     Eigenvalues ---    0.50549   0.66988   0.90297   0.912151000.00000
     Eigenvalues --- 1000.000001000.000001000.000001000.000001000.00000
     Eigenvalues --- 1000.000001000.000001000.000001000.000001000.00000
     Eigenvalues --- 1000.000001000.000001000.000001000.000001000.00000
     Eigenvalues --- 1000.000001000.000001000.000001000.000001000.00000
     Eigenvalues --- 1000.000001000.000001000.000001000.000001000.00000
     Eigenvalues --- 1000.000001000.000001000.000001000.000001000.00000
     Eigenvalues --- 1000.000001000.000001000.000001000.000001000.00000
     Eigenvalues --- 1000.000001000.000001000.000001000.000001000.00000
     Eigenvalues --- 1000.000001000.000001000.000001000.000001000.00000
     Eigenvalues --- 1000.000001000.000001000.000001000.000001000.00000
     Eigenvalues --- 1000.000001000.000001000.000001000.000001000.00000
     Eigenvalues --- 1000.000001000.000001000.000001000.000001000.00000
     Eigenvalues --- 1000.000001000.000001000.000001000.000001000.00000
     Eigenvalues --- 1000.000001000.000001000.000001000.000001000.00000
     Eigenvalues --- 1000.000001000.000001000.000001000.000001000.00000
     Eigenvalues --- 1000.000001000.000001000.000001000.000001000.00000
     Eigenvalues --- 1000.000001000.000001000.000001000.000001000.00000
     Eigenvalues --- 1000.000001000.000001000.000001000.000001000.00000
     Eigenvalues --- 1000.00000
 RFO step:  Lambda=-2.87820632D-02 EMin= 2.33097131D-03
 Linear search not attempted -- first point.
 Iteration  1 RMS(Cart)=  0.06982673 RMS(Int)=  0.00213547
 Iteration  2 RMS(Cart)=  0.00278889 RMS(Int)=  0.00060760
 Iteration  3 RMS(Cart)=  0.00000473 RMS(Int)=  0.00060760
 Iteration  4 RMS(Cart)=  0.00000000 RMS(Int)=  0.00060760
 Iteration  1 RMS(Cart)=  0.00007632 RMS(Int)=  0.00010360
 Iteration  2 RMS(Cart)=  0.00005303 RMS(Int)=  0.00011157
 Iteration  3 RMS(Cart)=  0.00004004 RMS(Int)=  0.00012658
 Iteration  4 RMS(Cart)=  0.00003210 RMS(Int)=  0.00014207
 Iteration  5 RMS(Cart)=  0.00002666 RMS(Int)=  0.00015617
 Iteration  6 RMS(Cart)=  0.00002252 RMS(Int)=  0.00016849
 Iteration  7 RMS(Cart)=  0.00001918 RMS(Int)=  0.00017910
 Iteration  8 RMS(Cart)=  0.00001638 RMS(Int)=  0.00018819
 Iteration  9 RMS(Cart)=  0.00001400 RMS(Int)=  0.00019596
 Iteration 10 RMS(Cart)=  0.00001196 RMS(Int)=  0.00020258
 Iteration 11 RMS(Cart)=  0.00001021 RMS(Int)=  0.00020823
 Iteration 12 RMS(Cart)=  0.00000872 RMS(Int)=  0.00021305
 Iteration 13 RMS(Cart)=  0.00000745 RMS(Int)=  0.00021716
 Iteration 14 RMS(Cart)=  0.00000636 RMS(Int)=  0.00022066
 Iteration 15 RMS(Cart)=  0.00000543 RMS(Int)=  0.00022364
 Iteration 16 RMS(Cart)=  0.00000464 RMS(Int)=  0.00022619
 Iteration 17 RMS(Cart)=  0.00000396 RMS(Int)=  0.00022836
 Iteration 18 RMS(Cart)=  0.00000339 RMS(Int)=  0.00023022
 Iteration 19 RMS(Cart)=  0.00000290 RMS(Int)=  0.00023180
 Iteration 20 RMS(Cart)=  0.00000249 RMS(Int)=  0.00023315
 Iteration 21 RMS(Cart)=  0.00000214 RMS(Int)=  0.00023430
 Iteration 22 RMS(Cart)=  0.00000184 RMS(Int)=  0.00023529
 Iteration 23 RMS(Cart)=  0.00000158 RMS(Int)=  0.00023613
 Iteration 24 RMS(Cart)=  0.00000136 RMS(Int)=  0.00023685
 Iteration 25 RMS(Cart)=  0.00000117 RMS(Int)=  0.00023747
 Iteration 26 RMS(Cart)=  0.00000101 RMS(Int)=  0.00023799
 Iteration 27 RMS(Cart)=  0.00000088 RMS(Int)=  0.00023844
 Variable       Old X    -DE/DX   Delta X   Delta X   Delta X     New X
                                 (Linear)    (Quad)   (Total)
    R1        2.32378   0.01752   0.00000   0.01862   0.01862   2.34240
    R2        2.32796   0.01530   0.00000   0.01642   0.01642   2.34439
    R3        2.89580  -0.03744   0.00000  -0.11669  -0.11669   2.77911
    R4        2.64555  -0.03132   0.00000  -0.06664  -0.06647   2.57908
    R5        2.82299  -0.02567   0.00000  -0.07441  -0.07467   2.74832
    R6        2.58191  -0.02080   0.00000  -0.03826  -0.03776   2.54416
    R7        2.08366  -0.01064   0.00000  -0.02932  -0.02932   2.05433
    R8        2.81154  -0.01562   0.00000  -0.03891  -0.03855   2.77299
    R9        1.93296  -0.00716   0.00000  -0.01532  -0.01532   1.91765
   R10        2.11945  -0.01327   0.00000  -0.03871  -0.03871   2.08073
   R11        2.92692  -0.01318   0.00000  -0.04301  -0.04292   2.88400
   R12        2.89469  -0.00079   0.00000   0.00033   0.00027   2.89495
   R13        2.91088  -0.00405   0.00000  -0.01433  -0.01451   2.89637
   R14        2.09934  -0.00942   0.00000  -0.02663  -0.02663   2.07271
   R15        2.09894  -0.00857   0.00000  -0.02420  -0.02420   2.07474
   R16        2.90469  -0.00125   0.00000  -0.00655  -0.00640   2.89829
   R17        2.10142  -0.01053   0.00000  -0.02986  -0.02986   2.07156
   R18        2.10299  -0.00896   0.00000  -0.02546  -0.02546   2.07753
   R19        2.91817  -0.00947   0.00000  -0.03051  -0.03057   2.88759
   R20        2.10425  -0.01114   0.00000  -0.03173  -0.03173   2.07252
   R21        2.10096  -0.00998   0.00000  -0.02827  -0.02827   2.07268
   R22        2.93560  -0.01143   0.00000  -0.03643  -0.03623   2.89938
   R23        2.10150  -0.01084   0.00000  -0.03074  -0.03074   2.07076
   R24        2.09785  -0.00764   0.00000  -0.02155  -0.02155   2.07630
   R25        2.10800  -0.01211   0.00000  -0.03469  -0.03469   2.07330
   R26        2.76752  -0.00382   0.00000  -0.00654  -0.00697   2.76055
   R27        2.44509   0.00084   0.00000   0.00017  -0.00033   2.44476
   R28        2.07858  -0.00537   0.00000  -0.01467  -0.01467   2.06391
    A1        2.15381   0.01119   0.00000   0.04024   0.04018   2.19399
    A2        2.05724  -0.00441   0.00000  -0.01571  -0.01577   2.04146
    A3        2.07173  -0.00672   0.00000  -0.02398  -0.02404   2.04769
    A4        2.01563  -0.01010   0.00000  -0.03396  -0.03350   1.98212
    A5        2.03117  -0.00305   0.00000  -0.00849  -0.00806   2.02310
    A6        2.23621   0.01316   0.00000   0.04303   0.04168   2.27789
    A7        2.19735   0.00549   0.00000   0.02143   0.02097   2.21833
    A8        2.06641  -0.00381   0.00000  -0.01629  -0.01626   2.05015
    A9        2.01939  -0.00168   0.00000  -0.00488  -0.00493   2.01446
   A10        2.22209  -0.00653   0.00000  -0.00278  -0.00226   2.21983
   A11        2.10103  -0.01256   0.00000  -0.08115  -0.08255   2.01849
   A12        1.86716   0.01929   0.00000   0.09838   0.09895   1.96612
   A13        1.84145  -0.00217   0.00000  -0.01108  -0.01030   1.83115
   A14        2.01676  -0.00180   0.00000  -0.02170  -0.02193   1.99482
   A15        1.95494   0.00273   0.00000  -0.01299  -0.01543   1.93950
   A16        1.84954   0.00369   0.00000   0.01374   0.01282   1.86235
   A17        1.84939   0.00171   0.00000   0.05750   0.05788   1.90727
   A18        1.93778  -0.00363   0.00000  -0.01504  -0.01444   1.92334
   A19        1.90883   0.00018   0.00000  -0.00840  -0.00860   1.90023
   A20        1.92171  -0.00053   0.00000  -0.01339  -0.01334   1.90837
   A21        1.92227  -0.00199   0.00000  -0.00500  -0.00502   1.91726
   A22        1.91796  -0.00087   0.00000   0.00151   0.00116   1.91911
   A23        1.90783   0.00364   0.00000   0.03041   0.03068   1.93851
   A24        1.88510  -0.00040   0.00000  -0.00468  -0.00491   1.88020
   A25        1.93902  -0.00070   0.00000   0.00417   0.00386   1.94288
   A26        1.91876  -0.00090   0.00000  -0.00718  -0.00709   1.91166
   A27        1.90571   0.00035   0.00000  -0.00229  -0.00231   1.90340
   A28        1.91621   0.00048   0.00000   0.00629   0.00635   1.92256
   A29        1.89929   0.00197   0.00000   0.01190   0.01202   1.91132
   A30        1.88387  -0.00118   0.00000  -0.01326  -0.01337   1.87050
   A31        1.94427   0.00187   0.00000   0.01163   0.01189   1.95616
   A32        1.90198  -0.00013   0.00000   0.00341   0.00346   1.90544
   A33        1.91792   0.00048   0.00000   0.00481   0.00462   1.92254
   A34        1.90561  -0.00139   0.00000  -0.01545  -0.01558   1.89003
   A35        1.91602  -0.00092   0.00000  -0.00082  -0.00098   1.91504
   A36        1.87670   0.00001   0.00000  -0.00427  -0.00428   1.87241
   A37        1.94709  -0.00483   0.00000  -0.02670  -0.02661   1.92048
   A38        1.90630   0.00266   0.00000   0.01292   0.01278   1.91908
   A39        1.91020   0.00226   0.00000   0.01930   0.01911   1.92931
   A40        1.90704   0.00113   0.00000  -0.00195  -0.00196   1.90508
   A41        1.91210  -0.00006   0.00000  -0.00103  -0.00081   1.91129
   A42        1.87987  -0.00103   0.00000  -0.00170  -0.00189   1.87798
   A43        1.84462   0.00665   0.00000   0.02145   0.02109   1.86571
   A44        1.93115  -0.00503   0.00000  -0.01679  -0.01707   1.91408
   A45        2.00388  -0.00064   0.00000   0.00219   0.00234   2.00622
   A46        1.88305   0.00204   0.00000   0.02654   0.02659   1.90965
   A47        1.89022  -0.00374   0.00000  -0.03499  -0.03450   1.85572
   A48        1.90613   0.00106   0.00000   0.00343   0.00345   1.90958
   A49        2.09095  -0.00214   0.00000   0.01871   0.01779   2.10874
   A50        2.26345  -0.00595   0.00000  -0.03539  -0.03796   2.22550
   A51        1.97591   0.00203   0.00000   0.00920   0.01021   1.98612
   A52        2.02656   0.00435   0.00000   0.02416   0.02528   2.05183
    D1       -2.97881   0.00065   0.00000  -0.03020  -0.02990  -3.00871
    D2        0.14414   0.00161   0.00000   0.00000   0.00000   0.14414
    D3        0.19227  -0.00159   0.00000  -0.05087  -0.05072   0.14155
    D4       -2.96797  -0.00064   0.00000  -0.02067  -0.02082  -2.98879
    D5       -3.12765   0.00104   0.00000  -0.02040  -0.02152   3.13401
    D6        0.00447   0.00154   0.00000   0.01420   0.01304   0.01751
    D7        0.03517   0.00020   0.00000  -0.05398  -0.05607  -0.02090
    D8       -3.11589   0.00071   0.00000  -0.01939  -0.02152  -3.13741
    D9        2.91402   0.00668   0.00000   0.11130   0.10910   3.02312
   D10       -0.01823   0.00340   0.00000   0.11963   0.11921   0.10098
   D11       -0.24896   0.00745   0.00000   0.14488   0.14406  -0.10490
   D12        3.10197   0.00417   0.00000   0.15321   0.15418  -3.02704
   D13        0.37051  -0.00290   0.00000  -0.03464  -0.03550   0.33501
   D14        3.00165   0.00268   0.00000   0.02738   0.02524   3.02689
   D15       -2.76184  -0.00338   0.00000  -0.06836  -0.06939  -2.83123
   D16       -0.13070   0.00220   0.00000  -0.00633  -0.00865  -0.13936
   D17       -2.95332   0.00013   0.00000   0.00000   0.00000  -2.95332
   D18        1.29326  -0.00199   0.00000   0.00243   0.00282   1.29608
   D19       -0.94910   0.00226   0.00000   0.05542   0.05498  -0.89412
   D20        0.64465   0.00175   0.00000  -0.01628  -0.01783   0.62682
   D21       -1.39195  -0.00037   0.00000  -0.01385  -0.01502  -1.40697
   D22        2.64887   0.00387   0.00000   0.03915   0.03715   2.68602
   D23        2.94789   0.00300   0.00000   0.05124   0.05184   2.99973
   D24       -1.22615   0.00170   0.00000   0.03936   0.03974  -1.18640
   D25        0.85089  -0.00036   0.00000   0.02214   0.02258   0.87347
   D26        0.91585   0.00420   0.00000   0.06779   0.06821   0.98406
   D27        3.02499   0.00290   0.00000   0.05591   0.05611   3.08111
   D28       -1.18115   0.00083   0.00000   0.03869   0.03894  -1.14221
   D29       -1.08450   0.00192   0.00000  -0.00020  -0.00029  -1.08478
   D30        1.02465   0.00061   0.00000  -0.01208  -0.01239   1.01227
   D31        3.10169  -0.00145   0.00000  -0.02929  -0.02955   3.07214
   D32       -2.89183  -0.00137   0.00000  -0.02757  -0.02719  -2.91902
   D33       -0.85782   0.00225   0.00000   0.00738   0.00740  -0.85042
   D34        1.30937  -0.00091   0.00000   0.00000   0.00001   1.30938
   D35       -0.89247  -0.00160   0.00000  -0.01416  -0.01403  -0.90650
   D36        1.14154   0.00202   0.00000   0.02079   0.02057   1.16211
   D37       -2.97445  -0.00114   0.00000   0.01341   0.01318  -2.96128
   D38        1.10796   0.00192   0.00000   0.02650   0.02664   1.13460
   D39       -3.14121   0.00554   0.00000   0.06145   0.06124  -3.07997
   D40       -0.97402   0.00238   0.00000   0.05407   0.05385  -0.92017
   D41        0.95666   0.00120   0.00000   0.00000   0.00001   0.95667
   D42        3.08134   0.00073   0.00000   0.00585   0.00576   3.08710
   D43       -1.13821  -0.00103   0.00000  -0.01589  -0.01588  -1.15409
   D44       -1.15477   0.00230   0.00000   0.02089   0.02104  -1.13372
   D45        0.96991   0.00182   0.00000   0.02674   0.02680   0.99670
   D46        3.03355   0.00007   0.00000   0.00500   0.00515   3.03870
   D47        3.06249   0.00111   0.00000   0.00744   0.00749   3.06997
   D48       -1.09602   0.00064   0.00000   0.01329   0.01324  -1.08278
   D49        0.96761  -0.00111   0.00000  -0.00845  -0.00840   0.95921
   D50       -0.92193  -0.00098   0.00000   0.00000   0.00001  -0.92192
   D51        1.18166  -0.00162   0.00000  -0.00967  -0.00962   1.17203
   D52       -3.04930  -0.00141   0.00000  -0.01006  -0.01009  -3.05939
   D53       -3.04809   0.00028   0.00000   0.00202   0.00206  -3.04603
   D54       -0.94450  -0.00035   0.00000  -0.00765  -0.00757  -0.95207
   D55        1.10772  -0.00014   0.00000  -0.00803  -0.00803   1.09969
   D56        1.17675   0.00028   0.00000   0.00743   0.00744   1.18419
   D57       -3.00285  -0.00036   0.00000  -0.00224  -0.00219  -3.00504
   D58       -0.95062  -0.00014   0.00000  -0.00262  -0.00265  -0.95327
   D59        0.98872  -0.00163   0.00000  -0.00989  -0.00980   0.97892
   D60        3.09876  -0.00154   0.00000  -0.02085  -0.02089   3.07787
   D61       -1.13030   0.00007   0.00000  -0.00421  -0.00404  -1.13433
   D62       -1.11273  -0.00174   0.00000  -0.01133  -0.01127  -1.12400
   D63        0.99731  -0.00165   0.00000  -0.02230  -0.02236   0.97495
   D64        3.05144  -0.00003   0.00000  -0.00565  -0.00551   3.04593
   D65        3.11719  -0.00040   0.00000   0.00340   0.00345   3.12064
   D66       -1.05596  -0.00031   0.00000  -0.00756  -0.00764  -1.06359
   D67        0.99817   0.00131   0.00000   0.00908   0.00921   1.00738
   D68       -1.05490  -0.00017   0.00000  -0.00767  -0.00744  -1.06234
   D69       -3.12126   0.00121   0.00000  -0.01241  -0.01257  -3.13384
   D70        1.10070   0.00087   0.00000  -0.01202  -0.01190   1.08880
   D71        3.11868  -0.00115   0.00000  -0.00538  -0.00523   3.11345
   D72        1.05232   0.00023   0.00000  -0.01012  -0.01036   1.04196
   D73       -1.00890  -0.00012   0.00000  -0.00973  -0.00969  -1.01859
   D74        1.06301  -0.00053   0.00000  -0.00158  -0.00134   1.06167
   D75       -1.00335   0.00085   0.00000  -0.00632  -0.00647  -1.00982
   D76       -3.06457   0.00051   0.00000  -0.00593  -0.00580  -3.07037
   D77       -1.17217   0.01024   0.00000   0.00000   0.00001  -1.17216
   D78        3.05465   0.00484   0.00000  -0.00405  -0.00403   3.05061
   D79        1.00819   0.00393   0.00000  -0.01795  -0.01817   0.99002
   D80        0.64296  -0.01235   0.00000  -0.10243  -0.10006   0.54290
   D81       -2.71297  -0.00927   0.00000  -0.11269  -0.11234  -2.82531
         Item               Value     Threshold  Converged?
 Maximum Force            0.037438     0.000450     NO 
 RMS     Force            0.007003     0.000300     NO 
 Maximum Displacement     0.384555     0.001800     NO 
 RMS     Displacement     0.070347     0.001200     NO 
 Predicted change in Energy=-1.745544D-02
 GradGradGradGradGradGradGradGradGradGradGradGradGradGradGradGradGradGrad

                          Input orientation:                          
 ---------------------------------------------------------------------
 Center     Atomic      Atomic             Coordinates (Angstroms)
 Number     Number       Type             X           Y           Z
 ---------------------------------------------------------------------
      1          8           0       -3.486215   -1.284064   -0.635552
      2          7           0       -3.050297   -0.136375   -0.464504
      3          8           0       -3.695240    0.912837   -0.613769
      4          6           0       -1.641866   -0.011301   -0.060201
      5          6           0       -1.279366    1.262962    0.267680
      6          7           0       -0.068256    1.682134    0.680057
      7          6           0        1.214855    0.990770    0.510032
      8          1           0        1.922455    1.546291    1.144909
      9          6           0        1.770049    1.037851   -0.910765
     10          6           0        3.191518    0.464652   -0.906905
     11          6           0        3.223607   -0.942619   -0.297949
     12          6           0        2.567780   -0.986657    1.081503
     13          6           0        1.129476   -0.459271    0.996800
     14          1           0        0.671258   -0.487925    1.993265
     15          7           0        0.411086   -1.367039    0.105806
     16          6           0       -0.861948   -1.238580   -0.085443
     17          1           0       -2.046496    2.031494    0.215992
     18          1           0        0.038985    2.686421    0.778417
     19          1           0        1.128136    0.442557   -1.571532
     20          1           0        1.762427    2.071796   -1.279942
     21          1           0        3.580206    0.441735   -1.931650
     22          1           0        3.845638    1.130890   -0.326476
     23          1           0        2.684209   -1.632970   -0.957704
     24          1           0        4.258026   -1.300441   -0.227622
     25          1           0        2.551624   -2.016637    1.455205
     26          1           0        3.138739   -0.381708    1.799314
     27          1           0       -1.399371   -2.093764   -0.500988
 ---------------------------------------------------------------------
                    Distance matrix (angstroms):
                    1          2          3          4          5
     1  O    0.000000
     2  N    1.239544   0.000000
     3  O    2.206930   1.240596   0.000000
     4  C    2.313563   1.470640   2.318795   0.000000
     5  C    3.489033   2.372854   2.595378   1.364792   0.000000
     6  N    4.712918   3.675536   3.926935   2.427335   1.346309
     7  C    5.346708   4.517930   5.037661   3.080611   2.520706
     8  H    6.358825   5.490887   5.920532   4.072194   3.331885
     9  C    5.752855   4.981334   5.474780   3.669515   3.276940
    10  C    6.908238   6.286271   6.907549   4.930014   4.691029
    11  C    6.726980   6.327688   7.170279   4.959507   5.045918
    12  C    6.299808   5.888625   6.760728   4.469444   4.530301
    13  C    4.964822   4.439614   5.268254   2.999711   3.049627
    14  H    4.982880   4.473721   5.274946   3.129606   3.138181
    15  N    3.968054   3.717655   4.751583   2.465806   3.130613
    16  C    2.681690   2.479397   3.596563   1.454346   2.560595
    17  H    3.713602   2.484019   2.158299   2.100719   1.087107
    18  H    5.494641   4.365397   4.362134   3.287285   2.006274
    19  H    5.014928   4.361189   4.939983   3.187949   3.138762
    20  H    6.263009   5.357544   5.618995   4.173281   3.507400
    21  H    7.388678   6.815446   7.408837   5.565753   5.396935
    22  H    7.725515   7.012769   7.549498   5.611435   5.161020
    23  H    6.188670   5.947066   6.877266   4.706405   5.059438
    24  H    7.754995   7.404239   8.264512   6.041411   6.122015
    25  H    6.431441   6.213066   7.203179   4.889089   5.180972
    26  H    7.115675   6.594637   7.362207   5.142878   4.956864
    27  H    2.242463   2.560910   3.784625   2.142371   3.445702
                    6          7          8          9         10
     6  N    0.000000
     7  C    1.467401   0.000000
     8  H    2.048772   1.101077   0.000000
     9  C    2.514991   1.526147   2.123096   0.000000
    10  C    3.824504   2.488315   2.643938   1.532692   0.000000
    11  C    4.322289   2.902742   3.157453   2.531923   1.533711
    12  C    3.772570   2.463169   2.614631   2.950278   2.539510
    13  C    2.473965   1.531944   2.161720   2.508089   2.954614
    14  H    2.642072   2.163796   2.534410   3.459584   3.958548
    15  N    3.139583   2.523629   3.442595   2.943415   3.480155
    16  C    3.121940   3.104465   4.125794   3.576409   4.472850
    17  H    2.061757   3.435982   4.104982   4.101576   5.581459
    18  H    1.014775   2.080849   2.231966   2.927064   4.208923
    19  H    2.835058   2.154291   3.037799   1.096832   2.167894
    20  H    2.710135   2.161588   2.486296   1.097904   2.182743
    21  H    4.655199   3.443565   3.665161   2.161997   1.096224
    22  H    4.078669   2.764127   2.456861   2.158267   1.099383
    23  H    4.609580   3.346231   3.887024   2.823327   2.158694
    24  H    5.332574   3.880035   3.929710   3.482000   2.171271
    25  H    4.598427   3.424150   3.631335   3.941900   3.485086
    26  H    3.974543   2.692076   2.371661   3.351566   2.835971
    27  H    4.174223   4.167816   5.195528   4.474389   5.271292
                   11         12         13         14         15
    11  C    0.000000
    12  C    1.528049   0.000000
    13  C    2.509060   1.534285   0.000000
    14  H    3.459898   2.162601   1.097145   0.000000
    15  N    2.872877   2.397499   1.460820   2.098340   0.000000
    16  C    4.101769   3.631565   2.396736   2.689838   1.293714
    17  H    6.073176   5.581208   4.111006   4.110031   4.195459
    18  H    4.946747   4.469694   3.336501   3.457180   4.125699
    19  H    2.816332   3.339734   2.722062   3.712453   2.569486
    20  H    3.490852   3.947043   3.462728   4.296126   3.946138
    21  H    2.170847   3.484882   3.923482   4.973048   4.179260
    22  H    2.164988   2.845932   3.414265   4.251875   4.268800
    23  H    1.096728   2.142344   2.759501   3.751175   2.523660
    24  H    1.096816   2.160833   3.463322   4.296211   3.861937
    25  H    2.163013   1.095798   2.158247   2.482388   2.612424
    26  H    2.172634   1.098732   2.164991   2.477370   3.358413
    27  H    4.768468   4.412284   3.363035   3.617668   2.043058
                   16         17         18         19         20
    16  C    0.000000
    17  H    3.491046   0.000000
    18  H    4.118685   2.257095   0.000000
    19  H    2.999186   3.974701   3.426869   0.000000
    20  H    4.390076   4.092351   2.754062   1.772504   0.000000
    21  H    5.095555   6.228923   4.992327   2.478374   2.527082
    22  H    5.275779   5.985198   4.258059   3.067374   2.476725
    23  H    3.673093   6.097985   5.354293   2.665700   3.831293
    24  H    5.122322   7.144619   5.891306   3.826271   4.325202
    25  H    3.825108   6.250258   5.374956   4.151517   4.981882
    26  H    4.504669   5.934401   4.479299   4.010554   4.170819
    27  H    1.092173   4.236814   5.153243   3.737282   5.287309
                   21         22         23         24         25
    21  H    0.000000
    22  H    1.766910   0.000000
    23  H    2.460850   3.063705   0.000000
    24  H    2.529492   2.468036   1.766493   0.000000
    25  H    4.309567   3.841326   2.446816   2.501330   0.000000
    26  H    3.846173   2.703080   3.061602   2.491052   1.770906
    27  H    5.768166   6.159461   4.134796   5.719286   4.409422
                   26         27
    26  H    0.000000
    27  H    5.368144   0.000000
 Symmetry turned off by external request.
 Stoichiometry    C9H13N3O2
 Framework group  C1[X(C9H13N3O2)]
 Deg. of freedom    75
 Full point group                 C1      NOp   1
 Rotational constants (GHZ):           1.5986649           0.4284229           0.3828070
 Standard basis: 6-31G(d) (6D, 7F)
   236 basis functions,   444 primitive gaussians,   236 cartesian basis functions
    52 alpha electrons       52 beta electrons
       nuclear repulsion energy       932.9795694997 Hartrees.
 NAtoms=   27 NActive=   27 NUniq=   27 SFac= 1.00D+00 NAtFMM=   60 NAOKFM=F Big=F
 Integral buffers will be    131072 words long.
 Raffenetti 1 integral format.
 Two-electron integral symmetry is turned off.
 One-electron integrals computed using PRISM.
 NBasis=   236 RedAO= T EigKep=  1.03D-03  NBF=   236
 NBsUse=   236 1.00D-06 EigRej= -1.00D+00 NBFU=   236
 Initial guess from the checkpoint file:  "/home/alexey/tmp/Gau-1254354.chk"
 B after Tr=     0.053572    0.003534    0.022784
         Rot=    0.999994   -0.001204   -0.003207    0.000089 Ang=  -0.39 deg.
 ExpMin= 1.61D-01 ExpMax= 5.48D+03 ExpMxC= 8.25D+02 IAcc=3 IRadAn=         5 AccDes= 0.00D+00
 Harris functional with IExCor=  205 and IRadAn=       5 diagonalized for initial guess.
 HarFok:  IExCor=  205 AccDes= 0.00D+00 IRadAn=         5 IDoV= 1 UseB2=F ITyADJ=14
 ICtDFT=  3500011 ScaDFX=  1.000000  1.000000  1.000000  1.000000
 FoFCou: FMM=F IPFlag=           0 FMFlag=      100000 FMFlg1=           0
         NFxFlg=           0 DoJE=T BraDBF=F KetDBF=T FulRan=T
         wScrn=  0.000000 ICntrl=       500 IOpCl=  0 I1Cent=   200000004 NGrid=           0
         NMat0=    1 NMatS0=      1 NMatT0=    0 NMatD0=    1 NMtDS0=    0 NMtDT0=    0
 Symmetry not used in FoFCou.
 Keep R1 ints in memory in canonical form, NReq=397720213.
 Requested convergence on RMS density matrix=1.00D-08 within 128 cycles.
 Requested convergence on MAX density matrix=1.00D-06.
 Requested convergence on             energy=1.00D-06.
 No special actions if energy rises.
 SCF Done:  E(RHF) =  -661.290498933     A.U. after   15 cycles
            NFock= 15  Conv=0.76D-08     -V/T= 2.0025
 ExpMin= 1.61D-01 ExpMax= 5.48D+03 ExpMxC= 8.25D+02 IAcc=3 IRadAn=         5 AccDes= 0.00D+00
 HarFok:  IExCor=  205 AccDes= 0.00D+00 IRadAn=         5 IDoV=-2 UseB2=F ITyADJ=14
 ICtDFT= 12500011 ScaDFX=  1.000000  1.000000  1.000000  1.000000
 Range of M.O.s used for correlation:    15   236
 NBasis=   236 NAE=    52 NBE=    52 NFC=    14 NFV=     0
 NROrb=    222 NOA=    38 NOB=    38 NVA=   184 NVB=   184
 Fully direct method using O(ONN) memory.
 JobTyp=1 Pass  1:  I=  15 to  52 NPSUse=  4 ParTrn=T ParDer=T DoDerP=T.
 Spin components of T(2) and E(2):
     alpha-alpha T2 =       0.9160278600D-01 E2=     -0.2727401289D+00
     alpha-beta  T2 =       0.4923447453D+00 E2=     -0.1488987400D+01
     beta-beta   T2 =       0.9160278600D-01 E2=     -0.2727401289D+00
 ANorm=    0.1294430499D+01
 E2 =    -0.2034467658D+01 EUMP2 =    -0.66332496659091D+03
          IDoAtm=111111111111111111111111111
[...]
    27  H    4.646497   4.401001   3.374828   3.679422   2.025131
                   16         17         18         19         20
    16  C    0.000000
    17  H    3.464709   0.000000
    18  H    4.088792   2.224237   0.000000
    19  H    2.904705   4.031718   3.442299   0.000000
    20  H    4.327890   4.203172   2.823094   1.769392   0.000000
    21  H    5.010384   6.305913   5.050034   2.498818   2.524507
    22  H    5.212712   6.022587   4.311117   3.070405   2.459121
    23  H    3.617488   6.131702   5.393550   2.714441   3.849509
    24  H    5.088497   7.163218   5.931111   3.854478   4.316555
    25  H    3.846589   6.207976   5.385789   4.182423   4.988393
    26  H    4.523602   5.913190   4.513434   4.041073   4.179192
    27  H    1.089945   4.219477   5.100450   3.521900   5.120584
                   21         22         23         24         25
    21  H    0.000000
    22  H    1.758498   0.000000
    23  H    2.470891   3.062234   0.000000
    24  H    2.514361   2.456325   1.764201   0.000000
    25  H    4.311732   3.839423   2.441466   2.520012   0.000000
    26  H    3.848970   2.705960   3.061501   2.497251   1.769975
    27  H    5.552141   6.009305   3.980583   5.610083   4.437459
                   26         27
    26  H    0.000000
    27  H    5.375970   0.000000
 Symmetry turned off by external request.
 Stoichiometry    C9H13N3O2
 Framework group  C1[X(C9H13N3O2)]
 Deg. of freedom    75
 Full point group                 C1      NOp   1
 Rotational constants (GHZ):           1.6412779           0.4230642           0.3778472

 **********************************************************************

            Population analysis using the SCF Density.

 **********************************************************************

 Alpha  occ. eigenvalues --  -20.59316 -20.58981 -15.84795 -15.64029 -15.55873
 Alpha  occ. eigenvalues --  -11.34983 -11.29675 -11.29585 -11.28750 -11.27169
 Alpha  occ. eigenvalues --  -11.23775 -11.23223 -11.22609 -11.21994  -1.57201
 Alpha  occ. eigenvalues --   -1.36788  -1.30880  -1.22843  -1.14729  -1.09740
 Alpha  occ. eigenvalues --   -1.02762  -1.01296  -0.94461  -0.89724  -0.85508
 Alpha  occ. eigenvalues --   -0.82417  -0.78636  -0.77383  -0.74959  -0.71828
 Alpha  occ. eigenvalues --   -0.69804  -0.69511  -0.67958  -0.64787  -0.64150
 Alpha  occ. eigenvalues --   -0.62286  -0.60049  -0.57924  -0.56725  -0.55048
 Alpha  occ. eigenvalues --   -0.54620  -0.50725  -0.50201  -0.48781  -0.48183
 Alpha  occ. eigenvalues --   -0.47384  -0.46207  -0.45893  -0.43749  -0.41793
 Alpha  occ. eigenvalues --   -0.39164  -0.33736
 Alpha virt. eigenvalues --    0.07211   0.11489   0.17287   0.21993   0.24302
 Alpha virt. eigenvalues --    0.25987   0.27082   0.28730   0.29255   0.29432
 Alpha virt. eigenvalues --    0.30732   0.31962   0.32087   0.32808   0.33703
 Alpha virt. eigenvalues --    0.34463   0.35929   0.37614   0.38398   0.40322
 Alpha virt. eigenvalues --    0.41210   0.42098   0.44574   0.45865   0.46483
 Alpha virt. eigenvalues --    0.47747   0.48952   0.53840   0.57444   0.59352
 Alpha virt. eigenvalues --    0.63825   0.68857   0.69712   0.73408   0.73968
 Alpha virt. eigenvalues --    0.75343   0.75549   0.76364   0.78518   0.79367
 Alpha virt. eigenvalues --    0.81596   0.84122   0.85362   0.86018   0.88102
 Alpha virt. eigenvalues --    0.88509   0.91248   0.92224   0.93008   0.94359
 Alpha virt. eigenvalues --    0.95349   0.97839   0.99747   1.01541   1.02267
 Alpha virt. eigenvalues --    1.03154   1.05780   1.06811   1.07964   1.09054
 Alpha virt. eigenvalues --    1.10454   1.11964   1.12120   1.12591   1.13905
 Alpha virt. eigenvalues --    1.14428   1.15092   1.16006   1.17217   1.18467
 Alpha virt. eigenvalues --    1.18770   1.21783   1.23161   1.23872   1.24881
 Alpha virt. eigenvalues --    1.25049   1.25738   1.27081   1.28345   1.29917
 Alpha virt. eigenvalues --    1.30693   1.32823   1.35746   1.37095   1.40598
 Alpha virt. eigenvalues --    1.41327   1.46781   1.48758   1.52266   1.54881
 Alpha virt. eigenvalues --    1.57182   1.59946   1.61283   1.63736   1.65820
 Alpha virt. eigenvalues --    1.67810   1.69614   1.72520   1.75127   1.78568
 Alpha virt. eigenvalues --    1.81566   1.84015   1.86810   1.88976   1.91259
 Alpha virt. eigenvalues --    1.95605   1.96324   1.99859   2.01550   2.02558
 Alpha virt. eigenvalues --    2.04616   2.05752   2.09865   2.10285   2.11860
 Alpha virt. eigenvalues --    2.12443   2.15767   2.18878   2.19946   2.21314
 Alpha virt. eigenvalues --    2.22199   2.24587   2.25183   2.27591   2.29070
 Alpha virt. eigenvalues --    2.30763   2.33707   2.34443   2.36511   2.38142
 Alpha virt. eigenvalues --    2.41202   2.42219   2.44600   2.44935   2.48093
 Alpha virt. eigenvalues --    2.51450   2.52226   2.54004   2.54899   2.59704
 Alpha virt. eigenvalues --    2.63170   2.66333   2.67477   2.69480   2.70159
 Alpha virt. eigenvalues --    2.71038   2.71880   2.75714   2.78181   2.84153
 Alpha virt. eigenvalues --    2.87158   2.88401   2.92467   2.93551   2.95860
 Alpha virt. eigenvalues --    2.98908   3.01084   3.03779   3.06855   3.08570
 Alpha virt. eigenvalues --    3.09980   3.16395   3.20813   3.25191   3.27200
 Alpha virt. eigenvalues --    3.33454   3.37131   3.38421   3.51804   3.65848
 Alpha virt. eigenvalues --    4.13624   4.27941   4.33936   4.39367   4.47427
 Alpha virt. eigenvalues --    4.55401   4.62158   4.62185   4.72924   4.80915
 Alpha virt. eigenvalues --    4.98988   5.00995   5.05919   5.10585
          Condensed to atoms (all electrons):
               1          2          3          4          5          6
     1  O    8.316120   0.305372  -0.082546  -0.084253   0.004522  -0.000013
     2  N    0.305372   5.721361   0.302237   0.261339  -0.054511   0.000902
     3  O   -0.082546   0.302237   8.351903  -0.092096   0.002861   0.000774
     4  C   -0.084253   0.261339  -0.092096   5.236672   0.562543  -0.052826
     5  C    0.004522  -0.054511   0.002861   0.562543   4.716787   0.322666
     6  N   -0.000013   0.000902   0.000774  -0.052826   0.322666   7.166907
     7  C    0.000003  -0.000118   0.000001   0.005607  -0.030270   0.188150
     8  H   -0.000000   0.000002  -0.000000  -0.000277   0.003653  -0.045948
     9  C   -0.000000  -0.000009  -0.000000   0.000684  -0.000706  -0.066172
    10  C   -0.000000   0.000000   0.000000  -0.000046  -0.000009   0.004016
    11  C   -0.000000  -0.000000  -0.000000  -0.000020   0.000012  -0.000167
    12  C    0.000000   0.000002  -0.000000  -0.000274  -0.000150   0.003631
    13  C   -0.000016   0.000016  -0.000002  -0.007355  -0.000890  -0.058269
    14  H   -0.000000  -0.000064   0.000001   0.001717   0.003600  -0.005774
    15  N    0.000544   0.002241  -0.000015  -0.066038  -0.006167   0.001249
    16  C    0.000506  -0.025163   0.002608   0.320215  -0.051371  -0.000232
    17  H    0.000223  -0.006916   0.017306  -0.023454   0.375514  -0.033493
    18  H    0.000001  -0.000054   0.000014   0.002110  -0.032763   0.338386
    19  H    0.000001  -0.000014   0.000000  -0.001585   0.002388  -0.001354
    20  H    0.000000  -0.000000   0.000000  -0.000044  -0.000063   0.000489
    21  H   -0.000000  -0.000000  -0.000000   0.000002   0.000000  -0.000087
    22  H   -0.000000   0.000000  -0.000000  -0.000000  -0.000002  -0.000091
    23  H    0.000000  -0.000000   0.000000   0.000051  -0.000001  -0.000029
    24  H    0.000000   0.000000   0.000000   0.000000  -0.000000   0.000006
    25  H    0.000000  -0.000000   0.000000   0.000028  -0.000002  -0.000085
    26  H    0.000000  -0.000000   0.000000   0.000004   0.000001  -0.000072
    27  H    0.006553  -0.000680   0.000031  -0.067470   0.002046  -0.000004
               7          8          9         10         11         12
     1  O    0.000003  -0.000000  -0.000000  -0.000000  -0.000000   0.000000
     2  N   -0.000118   0.000002  -0.000009   0.000000  -0.000000   0.000002
     3  O    0.000001  -0.000000  -0.000000   0.000000  -0.000000  -0.000000
     4  C    0.005607  -0.000277   0.000684  -0.000046  -0.000020  -0.000274
     5  C   -0.030270   0.003653  -0.000706  -0.000009   0.000012  -0.000150
     6  N    0.188150  -0.045948  -0.066172   0.004016  -0.000167   0.003631
     7  C    5.031944   0.413497   0.358959  -0.056149  -0.009504  -0.062611
     8  H    0.413497   0.528497  -0.060161   0.000574  -0.000117  -0.001762
     9  C    0.358959  -0.060161   5.172542   0.325749  -0.050593  -0.004917
    10  C   -0.056149   0.000574   0.325749   5.116449   0.337716  -0.061308
    11  C   -0.009504  -0.000117  -0.050593   0.337716   5.124078   0.335600
    12  C   -0.062611  -0.001762  -0.004917  -0.061308   0.335600   5.118652
    13  C    0.325752  -0.028047  -0.064694   0.000691  -0.049748   0.371778
    14  H   -0.044158  -0.000811   0.004290  -0.000401   0.004196  -0.036240
    15  N   -0.058764   0.003532  -0.017923   0.001465  -0.016228  -0.083454
    16  C   -0.000760  -0.000053  -0.001035  -0.000077   0.000011   0.002176
    17  H    0.001596  -0.000043  -0.000048   0.000001  -0.000000   0.000001
    18  H   -0.024206  -0.004348   0.001255  -0.000088   0.000005  -0.000118
    19  H   -0.035775   0.004466   0.391247  -0.031925  -0.002094   0.000750
    20  H   -0.043477  -0.002476   0.397636  -0.034733   0.003927  -0.000458
    21  H    0.004601  -0.000113  -0.036078   0.402062  -0.034825   0.004372
    22  H   -0.004803   0.003826  -0.047349   0.397854  -0.045558  -0.000861
    23  H    0.000790   0.000028  -0.002019  -0.038558   0.399008  -0.037289
    24  H   -0.000142  -0.000095   0.004427  -0.038627   0.402207  -0.038794
    25  H    0.005154  -0.000023  -0.000413   0.004185  -0.033574   0.397714
    26  H   -0.003140   0.001396   0.000977  -0.002118  -0.041300   0.397137
    27  H   -0.000408   0.000007  -0.000051   0.000006   0.000021  -0.000027
              13         14         15         16         17         18
     1  O   -0.000016  -0.000000   0.000544   0.000506   0.000223   0.000001
     2  N    0.000016  -0.000064   0.002241  -0.025163  -0.006916  -0.000054
     3  O   -0.000002   0.000001  -0.000015   0.002608   0.017306   0.000014
     4  C   -0.007355   0.001717  -0.066038   0.320215  -0.023454   0.002110
     5  C   -0.000890   0.003600  -0.006167  -0.051371   0.375514  -0.032763
     6  N   -0.058269  -0.005774   0.001249  -0.000232  -0.033493   0.338386
     7  C    0.325752  -0.044158  -0.058764  -0.000760   0.001596  -0.024206
     8  H   -0.028047  -0.000811   0.003532  -0.000053  -0.000043  -0.004348
     9  C   -0.064694   0.004290  -0.017923  -0.001035  -0.000048   0.001255
    10  C    0.000691  -0.000401   0.001465  -0.000077   0.000001  -0.000088
    11  C   -0.049748   0.004196  -0.016228   0.000011  -0.000000   0.000005
    12  C    0.371778  -0.036240  -0.083454   0.002176   0.000001  -0.000118
    13  C    5.032246   0.406795   0.243486  -0.065313  -0.000107   0.003611
    14  H    0.406795   0.513604  -0.035223  -0.004452   0.000037  -0.000055
    15  N    0.243486  -0.035223   6.992315   0.585077  -0.000032  -0.000150
    16  C   -0.065313  -0.004452   0.585077   4.704624   0.001946  -0.000211
    17  H   -0.000107   0.000037  -0.000032   0.001946   0.375858  -0.003520
    18  H    0.003611  -0.000055  -0.000150  -0.000211  -0.003520   0.318538
    19  H   -0.007478   0.000065   0.006997   0.002633   0.000022  -0.000147
    20  H    0.004636  -0.000064   0.000218  -0.000054  -0.000016   0.001229
    21  H   -0.000450   0.000010  -0.000068   0.000006  -0.000000   0.000001
    22  H   -0.000212  -0.000052   0.000041  -0.000002   0.000000   0.000001
    23  H   -0.008478  -0.000005   0.009239   0.000166   0.000000   0.000000
    24  H    0.004767  -0.000058   0.000186   0.000007   0.000000  -0.000000
    25  H   -0.035363  -0.002939   0.001060  -0.000076  -0.000000   0.000002
    26  H   -0.048370  -0.000821   0.004999  -0.000027   0.000000  -0.000001
    27  H    0.004714  -0.000159  -0.041613   0.407431  -0.000077   0.000001
              19         20         21         22         23         24
     1  O    0.000001   0.000000  -0.000000  -0.000000   0.000000   0.000000
     2  N   -0.000014  -0.000000  -0.000000   0.000000  -0.000000   0.000000
     3  O    0.000000   0.000000  -0.000000  -0.000000   0.000000   0.000000
     4  C   -0.001585  -0.000044   0.000002  -0.000000   0.000051   0.000000
     5  C    0.002388  -0.000063   0.000000  -0.000002  -0.000001  -0.000000
     6  N   -0.001354   0.000489  -0.000087  -0.000091  -0.000029   0.000006
     7  C   -0.035775  -0.043477   0.004601  -0.004803   0.000790  -0.000142
     8  H    0.004466  -0.002476  -0.000113   0.003826   0.000028  -0.000095
     9  C    0.391247   0.397636  -0.036078  -0.047349  -0.002019   0.004427
    10  C   -0.031925  -0.034733   0.402062   0.397854  -0.038558  -0.038627
    11  C   -0.002094   0.003927  -0.034825  -0.045558   0.399008   0.402207
    12  C    0.000750  -0.000458   0.004372  -0.000861  -0.037289  -0.038794
    13  C   -0.007478   0.004636  -0.000450  -0.000212  -0.008478   0.004767
    14  H    0.000065  -0.000064   0.000010  -0.000052  -0.000005  -0.000058
    15  N    0.006997   0.000218  -0.000068   0.000041   0.009239   0.000186
    16  C    0.002633  -0.000054   0.000006  -0.000002   0.000166   0.000007
    17  H    0.000022  -0.000016  -0.000000   0.000000   0.000000   0.000000
    18  H   -0.000147   0.001229   0.000001   0.000001   0.000000  -0.000000
    19  H    0.504081  -0.025165  -0.002834   0.003960   0.001440  -0.000070
    20  H   -0.025165   0.546361  -0.002691  -0.003091  -0.000044  -0.000084
    21  H   -0.002834  -0.002691   0.524098  -0.027548  -0.002870  -0.002275
    22  H    0.003960  -0.003091  -0.027548   0.572557   0.004124  -0.003700
    23  H    0.001440  -0.000044  -0.002870   0.004124   0.496003  -0.025488
    24  H   -0.000070  -0.000084  -0.002275  -0.003700  -0.025488   0.539068
    25  H   -0.000026   0.000012  -0.000086  -0.000081  -0.002235  -0.002310
    26  H    0.000020  -0.000030  -0.000080   0.002381   0.004026  -0.002963
    27  H    0.000079  -0.000000  -0.000000   0.000000  -0.000048  -0.000000
              25         26         27
     1  O    0.000000   0.000000   0.006553
     2  N   -0.000000  -0.000000  -0.000680
     3  O    0.000000   0.000000   0.000031
     4  C    0.000028   0.000004  -0.067470
     5  C   -0.000002   0.000001   0.002046
     6  N   -0.000085  -0.000072  -0.000004
     7  C    0.005154  -0.003140  -0.000408
     8  H   -0.000023   0.001396   0.000007
     9  C   -0.000413   0.000977  -0.000051
    10  C    0.004185  -0.002118   0.000006
    11  C   -0.033574  -0.041300   0.000021
    12  C    0.397714   0.397137  -0.000027
    13  C   -0.035363  -0.048370   0.004714
    14  H   -0.002939  -0.000821  -0.000159
    15  N    0.001060   0.004999  -0.041613
    16  C   -0.000076  -0.000027   0.407431
    17  H   -0.000000   0.000000  -0.000077
    18  H    0.000002  -0.000001   0.000001
    19  H   -0.000026   0.000020   0.000079
    20  H    0.000012  -0.000030  -0.000000
    21  H   -0.000086  -0.000080  -0.000000
    22  H   -0.000081   0.002381   0.000000
    23  H   -0.002235   0.004026  -0.000048
    24  H   -0.002310  -0.002963  -0.000000
    25  H    0.507387  -0.023957  -0.000017
    26  H   -0.023957   0.561151   0.000001
    27  H   -0.000017   0.000001   0.437984
 Mulliken charges:
               1
     1  O   -0.467016
     2  N    0.494059
     3  O   -0.503076
     4  C    0.004769
     5  C    0.180312
     6  N   -0.762560
     7  C    0.038229
     8  H    0.184797
     9  C   -0.305596
    10  C   -0.326730
    11  C   -0.323053
    12  C   -0.303548
    13  C   -0.023700
    14  H    0.196962
    15  N   -0.526972
    16  C    0.121418
    17  H    0.295202
    18  H    0.400505
    19  H    0.190318
    20  H    0.157980
    21  H    0.174854
    22  H    0.148605
    23  H    0.202188
    24  H    0.163938
    25  H    0.185643
    26  H    0.150789
    27  H    0.251681
 Sum of Mulliken charges =  -0.00000
 Mulliken charges with hydrogens summed into heavy atoms:
               1
     1  O   -0.467016
     2  N    0.494059
     3  O   -0.503076
     4  C    0.004769
     5  C    0.475514
     6  N   -0.362054
     7  C    0.223026
     9  C    0.042702
    10  C   -0.003271
    11  C    0.043074
    12  C    0.032884
    13  C    0.173263
    15  N   -0.526972
    16  C    0.373099
 Electronic spatial extent (au):  <R**2>=           2981.4220
 Charge=             -0.0000 electrons
 Dipole moment (field-independent basis, Debye):
    X=              5.3767    Y=              4.6292    Z=              1.5081  Tot=              7.2534
 Quadrupole moment (field-independent basis, Debye-Ang):
   XX=           -105.5702   YY=            -78.8502   ZZ=            -82.1922
   XY=             -0.9522   XZ=             -2.2169   YZ=              1.4838
 Traceless Quadrupole moment (field-independent basis, Debye-Ang):
   XX=            -16.6993   YY=             10.0206   ZZ=              6.6787
   XY=             -0.9522   XZ=             -2.2169   YZ=              1.4838
 Octapole moment (field-independent basis, Debye-Ang**2):
  XXX=             86.5458  YYY=             33.8950  ZZZ=              0.2494  XYY=             -5.1820
  XXY=              7.1419  XXZ=             16.0779  XZZ=             -8.3132  YZZ=             -1.0972
  YYZ=              8.2111  XYZ=              0.9507
 Hexadecapole moment (field-independent basis, Debye-Ang**3):
 XXXX=          -3304.4380 YYYY=           -597.6894 ZZZZ=           -328.8054 XXXY=              5.7903
 XXXZ=           -104.6109 YYYX=             10.9880 YYYZ=             22.9679 ZZZX=            -48.3292
 ZZZY=              2.7499 XXYY=           -617.4948 XXZZ=           -526.1175 YYZZ=           -162.9330
 XXYZ=             -2.1374 YYXZ=            -16.9513 ZZXY=              8.6483
 N-N= 9.322858241906D+02 E-N=-3.411292780417D+03  KE= 6.596238094993D+02
 Unable to Open any file for archive entry.
 1\1\GINC-LOTUS\FOpt\RMP2-FC\6-31G(d)\C9H13N3O2\ALEXEY\01-Jul-2023\0\\#
 MP2/6-31G* SCF=Tight Opt=(ModRedun, MaxCycle=20 ) NoSymm\\MolName:\\0,
 1\O,-3.4903330457,-1.3353364138,-0.5654397949\N,-3.0900761069,-0.18143
 18001,-0.3176149371\O,-3.8384121369,0.8147524343,-0.2907531747\C,-1.67
 19461188,-0.0169171232,-0.0344013347\C,-1.2766638665,1.2689319376,0.23
 40589315\N,-0.0585049376,1.7008369758,0.6026287693\C,1.2239747203,1.01
 59749947,0.4881992041\H,1.9272301775,1.6213299704,1.0767911075\C,1.808
 0734673,1.0302635322,-0.9318523424\C,3.2161896772,0.4238401714,-0.8841
 324252\C,3.2249761277,-0.9721863748,-0.2554669404\C,2.543714089,-0.987
 1498917,1.1138031075\C,1.1179559448,-0.4383232156,0.9786367184\H,0.591
 3202146,-0.4536608709,1.9431451528\N,0.4297587341,-1.3054323518,0.0260
 060724\C,-0.8278098443,-1.1757889582,-0.2475905102\H,-2.0578505782,2.0
 233659449,0.2589819545\H,0.0048088977,2.704186964,0.7376778765\H,1.158
 0167588,0.4563055182,-1.6003909907\H,1.8427674831,2.0611202354,-1.3063
 951722\H,3.6384485906,0.3871224826,-1.8949485964\H,3.8658683955,1.0911
 55654,-0.2996643205\H,2.6941270691,-1.6718624373,-0.907964336\H,4.2576
 910515,-1.3300184443,-0.1657942828\H,2.4948833172,-2.0098791997,1.5017
 666283\H,3.1071605947,-0.3836633474,1.8384400323\H,-1.2743486756,-1.97
 44963869,-0.8397463969\\Version=ES64L-G16RevC.02\HF=-661.2945316\MP2=-
 663.3300781\RMSD=4.782e-09\RMSF=3.383e-03\Dipole=1.9648599,1.6296071,0
 .5510103\PG=C01 [X(C9H13N3O2)]\\@
 The archive entry for this job was punched.


 IT IS NOT EASY TO DESCRIBE
     THE SEA WITH THE MOUTH

                   -- KOKYU
 Job cpu time:       0 days  1 hours  5 minutes 56.8 seconds.
 Elapsed time:       0 days  0 hours 19 minutes 45.3 seconds.
 File lengths (MBytes):  RWF=     36 Int=      0 D2E=      0 Chk=      7 Scr=      1
 Normal termination of Gaussian 16 at Sat Jul  1 02:57:00 2023.
