 Entering Gaussian System, Link 0=g16
 Initial command:
 /home/alexey/programs//g16/l1.exe "/home/alexey/tmp/Gau-1372209.inp" -scrdir="/home/alexey/tmp/"
 Entering Link 1 = /home/alexey/programs//g16/l1.exe PID=   1372211.
  
 Copyright (c) 1988-2021, Gaussian, Inc.  All Rights Reserved.
  
 This is part of the Gaussian(R) 16 program.  It is based on
 the Gaussian(R) 09 system (copyright 2009, Gaussian, Inc.),
 the Gaussian(R) 03 system (copyright 2003, Gaussian, Inc.),
 the Gaussian(R) 98 system (copyright 1998, Gaussian, Inc.),
 the Gaussian(R) 94 system (copyright 1995, Gaussian, Inc.),
 the Gaussian 92(TM) system (copyright 1992, Gaussian, Inc.),
 the Gaussian 90(TM) system (copyright 1990, Gaussian, Inc.),
 the Gaussian 88(TM) system (copyright 1988, Gaussian, Inc.),
 the Gaussian 86(TM) system (copyright 1986, Carnegie Mellon
 University), and the Gaussian 82(TM) system (copyright 1983,
 Carnegie Mellon University). Gaussian is a federally registered
 trademark of Gaussian, Inc.
  
 This software contains proprietary and confidential information,
 including trade secrets, belonging to Gaussian, Inc.
  
 This software is provided under written license and may be
 used, copied, transmitted, or stored only in accord with that
 written license.
  
 The following legend is applicable only to US Government
 contracts under FAR:
  
                    RESTRICTED RIGHTS LEGEND
  
 Use, reproduction and disclosure by the US Government is
 subject to restrictions as set forth in subparagraphs (a)
 and (c) of the Commercial Computer Software - Restricted
 Rights clause in FAR 52.227-19.
  
 Gaussian, Inc.
 340 Quinnipiac St., Bldg. 40, Wallingford CT 06492
  
  
 ---------------------------------------------------------------
 Warning -- This program may not be used in any manner that
 competes with the business of Gaussian, Inc. or will provide
 assistance to any competitor of Gaussian, Inc.  The licensee
 of this program is prohibited from giving any competitor of
 Gaussian, Inc. access to this program.  By using this program,
 the user acknowledges that Gaussian, Inc. is engaged in the
 business of creating and licensing software in the field of
 computational chemistry and represents and warrants to the
 licensee that it is not a competitor of Gaussian, Inc. and that
 it will not use this program in any manner prohibited above.
 ---------------------------------------------------------------
  

 Cite this work as:
 Gaussian 16, Revision C.02,
 M. J. Frisch, G. W. Trucks, H. B. Schlegel, G. E. Scuseria, 
 M. A. Robb, J. R. Cheeseman, G. Scalmani, V. Barone, 
 G. A. Petersson, H. Nakatsuji, X. Li, M. Caricato, A. V. Marenich, 
 J. Bloino, B. G. Janesko, R. Gomperts, B. Mennucci, H. P. Hratchian, 
 J. V. Ortiz, A. F. Izmaylov, J. L. Sonnenberg, D. Williams-Young, 
 F. Ding, F. Lipparini, F. Egidi, J. Goings, B. Peng, A. Petrone, 
 T. Henderson, D. Ranasinghe, V. G. Zakrzewski, J. Gao, N. Rega, 
 G. Zheng, W. Liang, M. Hada, M. Ehara, K. Toyota, R. Fukuda, 
 J. Hasegawa, M. Ishida, T. Nakajima, Y. Honda, O. Kitao, H. Nakai, 
 T. Vreven, K. Throssell, J. A. Montgomery, Jr., J. E. Peralta, 
 F. Ogliaro, M. J. Bearpark, J. J. Heyd, E. N. Brothers, K. N. Kudin, 
 V. N. Staroverov, T. A. Keith, R. Kobayashi, J. Normand, 
 K. Raghavachari, A. P. Rendell, J. C. Burant, S. S. Iyengar, 
 J. Tomasi, M. Cossi, J. M. Millam, M. Klene, C. Adamo, R. Cammi, 
 J. W. Ochterski, R. L. Martin, K. Morokuma, O. Farkas, 
 J. B. Foresman, and D. J. Fox, Gaussian, Inc., Wallingford CT, 2019.
 
 ******************************************
 Gaussian 16:  ES64L-G16RevC.02  7-Dec-2021
                 1-Jul-2023 
 ******************************************
 %mem=8GB
 %NPROCS=4
 Will use up to    4 processors via shared memory.
 %NoSave
 ---------------------------------------------------------
 #MP2/6-31G* SCF=Tight Opt=(ModRedun, MaxCycle=20 ) NoSymm
 ---------------------------------------------------------
 1/6=20,18=120,19=15,38=1/1,3;
 2/9=110,12=2,15=1,17=6,18=5,40=1/2;
 3/5=1,6=6,7=1,11=9,25=1,30=1,71=1/1,2,3;
 4//1;
 5/5=2,32=2,38=5/2;
 8/6=4,10=2/1;
 9/15=2,16=-3/6;
 10/5=1,31=1/2;
 6/7=2,8=2,9=2,10=2/1;
 7/12=2,30=1/1,2,3,16;
 1/6=20,18=20,19=15/3(2);
 2/9=110,15=1/2;
 99//99;
 2/9=110,15=1/2;
 3/5=1,6=6,7=1,11=9,25=1,30=1,71=1/1,2,3;
 4/5=5,16=3,69=1/1;
 5/5=2,32=2,38=5/2;
 8/6=4,10=2/1;
 9/15=2,16=-3/6;
 10/5=1,31=1/2;
 7/12=2,30=1/1,2,3,16;
 1/6=20,18=20,19=15/3(-8);
 2/9=110,15=1/2;
 6/7=2,8=2,9=2,10=2/1;
 99/9=10/99;
 --------
 MolName:
 --------
 Symbolic Z-matrix:
 Charge =  0 Multiplicity = 1
 8                    0    -3.63227  -1.48636  -0.16081 
 7                    0    -3.29532  -0.32265   0.0448 
 8                    0    -4.07313   0.59327   0.30934 
 6                    0    -1.81956  -0.00557  -0.01962 
 6                    0    -1.3654    1.28769   0.28906 
 7                    0    -0.0777    1.7647    0.32852 
 6                    0     1.20438   1.00388   0.32728 
 1                    0     1.85163   1.50719   1.09223 
 6                    0     2.00017   1.04476  -1.00107 
 6                    0     3.40299   0.44955  -0.77531 
 6                    0     3.31543  -0.96342  -0.17687 
 6                    0     2.4354   -0.98571   1.0922 
 6                    0     1.00997  -0.43316   0.81661 
 1                    0     0.44149  -0.46727   1.77567 
 7                    0     0.36879  -1.28222  -0.18322 
 6                    0    -0.86291  -1.04505  -0.50375 
 1                    0    -2.13313   2.0249    0.57693 
 1                    0     0.13941   2.73868   0.10417 
 1                    0     1.46627   0.47038  -1.7876 
 1                    0     2.10237   2.09319  -1.35324 
 1                    0     3.96108   0.41763  -1.73656 
 1                    0     3.96774   1.10192  -0.07239 
 1                    0     2.87999  -1.65173  -0.93612 
 1                    0     4.33466  -1.33518   0.06607 
 1                    0     2.35665  -2.03093   1.46371 
 1                    0     2.91889  -0.37958   1.8869 
 1                    0    -1.33491  -1.74391  -1.21093 
 
 The following ModRedundant input section has been read:
 A       5       4      16 F                                                   
 D       1       2       4      16 F                                           
 D       7      13      15      16 F                                           
 D       7       9      10      11 F                                           
 D       9      10      11      12 F                                           
 D       6       7      13      15 F                                           
 

 GradGradGradGradGradGradGradGradGradGradGradGradGradGradGradGradGradGrad
 Berny optimization.
 Initialization pass.
                           ----------------------------
                           !    Initial Parameters    !
                           ! (Angstroms and Degrees)  !
 --------------------------                            --------------------------
 ! Name  Definition              Value          Derivative Info.                !
 --------------------------------------------------------------------------------
 ! R1    R(1,2)                  1.2288         estimate D2E/DX2                !
 ! R2    R(2,3)                  1.2304         estimate D2E/DX2                !
 ! R3    R(2,4)                  1.5108         estimate D2E/DX2                !
 ! R4    R(4,5)                  1.405          estimate D2E/DX2                !
 ! R5    R(4,16)                 1.4933         estimate D2E/DX2                !
 ! R6    R(5,6)                  1.3738         estimate D2E/DX2                !
 ! R7    R(5,17)                 1.1026         estimate D2E/DX2                !
 ! R8    R(6,7)                  1.4908         estimate D2E/DX2                !
 ! R9    R(6,18)                 1.0228         estimate D2E/DX2                !
 ! R10   R(7,8)                  1.1213         estimate D2E/DX2                !
 ! R11   R(7,9)                  1.549          estimate D2E/DX2                !
 ! R12   R(7,13)                 1.5305         estimate D2E/DX2                !
 ! R13   R(9,10)                 1.5405         estimate D2E/DX2                !
 ! R14   R(9,19)                 1.1107         estimate D2E/DX2                !
 ! R15   R(9,20)                 1.1107         estimate D2E/DX2                !
 ! R16   R(10,11)                1.537          estimate D2E/DX2                !
 ! R17   R(10,21)                1.112          estimate D2E/DX2                !
 ! R18   R(10,22)                1.1129         estimate D2E/DX2                !
 ! R19   R(11,12)                1.5445         estimate D2E/DX2                !
 ! R20   R(11,23)                1.1135         estimate D2E/DX2                !
 ! R21   R(11,24)                1.1118         estimate D2E/DX2                !
 ! R22   R(12,13)                1.5534         estimate D2E/DX2                !
 ! R23   R(12,25)                1.1121         estimate D2E/DX2                !
 ! R24   R(12,26)                1.1103         estimate D2E/DX2                !
 ! R25   R(13,14)                1.1154         estimate D2E/DX2                !
 ! R26   R(13,15)                1.46           estimate D2E/DX2                !
 ! R27   R(15,16)                1.2946         estimate D2E/DX2                !
 ! R28   R(16,27)                1.1006         estimate D2E/DX2                !
 ! A1    A(1,2,3)              124.5825         estimate D2E/DX2                !
 ! A2    A(1,2,4)              117.3521         estimate D2E/DX2                !
 ! A3    A(3,2,4)              118.0622         estimate D2E/DX2                !
 ! A4    A(2,4,5)              119.9706         estimate D2E/DX2                !
 ! A5    A(2,4,16)             119.5696         estimate D2E/DX2                !
 ! A6    A(5,4,16)             120.3222         Frozen                          !
 ! A7    A(4,5,6)              128.9694         estimate D2E/DX2                !
 ! A8    A(4,5,17)             116.597          estimate D2E/DX2                !
 ! A9    A(6,5,17)             114.3934         estimate D2E/DX2                !
 ! A10   A(5,6,7)              128.9667         estimate D2E/DX2                !
 ! A11   A(5,6,18)             121.5555         estimate D2E/DX2                !
 ! A12   A(7,6,18)             107.6527         estimate D2E/DX2                !
 ! A13   A(6,7,8)              105.4715         estimate D2E/DX2                !
 ! A14   A(6,7,9)              115.4071         estimate D2E/DX2                !
 ! A15   A(6,7,13)             111.6955         estimate D2E/DX2                !
 ! A16   A(8,7,9)              106.0582         estimate D2E/DX2                !
 ! A17   A(8,7,13)             106.061          estimate D2E/DX2                !
 ! A18   A(9,7,13)             111.3594         estimate D2E/DX2                !
 ! A19   A(7,9,10)             109.3874         estimate D2E/DX2                !
 ! A20   A(7,9,19)             110.2839         estimate D2E/DX2                !
 ! A21   A(7,9,20)             110.1257         estimate D2E/DX2                !
 ! A22   A(10,9,19)            109.9808         estimate D2E/DX2                !
 ! A23   A(10,9,20)            109.1102         estimate D2E/DX2                !
 ! A24   A(19,9,20)            107.9295         estimate D2E/DX2                !
 ! A25   A(9,10,11)            111.1239         estimate D2E/DX2                !
 ! A26   A(9,10,21)            109.9647         estimate D2E/DX2                !
 ! A27   A(9,10,22)            109.1576         estimate D2E/DX2                !
 ! A28   A(11,10,21)           109.8031         estimate D2E/DX2                !
 ! A29   A(11,10,22)           108.776          estimate D2E/DX2                !
 ! A30   A(21,10,22)           107.9464         estimate D2E/DX2                !
 ! A31   A(10,11,12)           111.4479         estimate D2E/DX2                !
 ! A32   A(10,11,23)           108.9699         estimate D2E/DX2                !
 ! A33   A(10,11,24)           109.8927         estimate D2E/DX2                !
 ! A34   A(12,11,23)           109.1796         estimate D2E/DX2                !
 ! A35   A(12,11,24)           109.7538         estimate D2E/DX2                !
 ! A36   A(23,11,24)           107.5059         estimate D2E/DX2                !
 ! A37   A(11,12,13)           111.8348         estimate D2E/DX2                !
 ! A38   A(11,12,25)           109.1721         estimate D2E/DX2                !
 ! A39   A(11,12,26)           109.3978         estimate D2E/DX2                !
 ! A40   A(13,12,25)           109.1841         estimate D2E/DX2                !
 ! A41   A(13,12,26)           109.4138         estimate D2E/DX2                !
 ! A42   A(25,12,26)           107.748          estimate D2E/DX2                !
 ! A43   A(7,13,12)            105.9112         estimate D2E/DX2                !
 ! A44   A(7,13,14)            111.6148         estimate D2E/DX2                !
 ! A45   A(7,13,15)            112.5118         estimate D2E/DX2                !
 ! A46   A(12,13,14)           107.7131         estimate D2E/DX2                !
 ! A47   A(12,13,15)           108.5185         estimate D2E/DX2                !
 ! A48   A(14,13,15)           110.3167         estimate D2E/DX2                !
 ! A49   A(13,15,16)           118.739          estimate D2E/DX2                !
 ! A50   A(4,16,15)            131.0503         estimate D2E/DX2                !
 ! A51   A(4,16,27)            112.0599         estimate D2E/DX2                !
 ! A52   A(15,16,27)           116.7933         estimate D2E/DX2                !
 ! D1    D(1,2,4,5)           -175.9914         estimate D2E/DX2                !
 ! D2    D(1,2,4,16)             8.2585         Frozen                          !
 ! D3    D(3,2,4,5)              3.3932         estimate D2E/DX2                !
 ! D4    D(3,2,4,16)          -172.3569         estimate D2E/DX2                !
 ! D5    D(2,4,5,6)            177.9081         estimate D2E/DX2                !
 ! D6    D(2,4,5,17)             0.3621         estimate D2E/DX2                !
 ! D7    D(16,4,5,6)            -6.3741         estimate D2E/DX2                !
 ! D8    D(16,4,5,17)          176.0799         estimate D2E/DX2                !
 ! D9    D(2,4,16,15)         -147.9977         estimate D2E/DX2                !
 ! D10   D(2,4,16,27)           28.2426         estimate D2E/DX2                !
 ! D11   D(5,4,16,15)           36.2674         estimate D2E/DX2                !
 ! D12   D(5,4,16,27)         -147.4923         estimate D2E/DX2                !
 ! D13   D(4,5,6,7)            -13.6443         estimate D2E/DX2                !
 ! D14   D(4,5,6,18)           148.9906         estimate D2E/DX2                !
 ! D15   D(17,5,6,7)           163.9463         estimate D2E/DX2                !
 ! D16   D(17,5,6,18)          -33.4187         estimate D2E/DX2                !
 ! D17   D(5,6,7,8)           -137.0788         estimate D2E/DX2                !
 ! D18   D(5,6,7,9)            106.2277         estimate D2E/DX2                !
 ! D19   D(5,6,7,13)           -22.3029         estimate D2E/DX2                !
 ! D20   D(18,6,7,8)            58.4007         estimate D2E/DX2                !
 ! D21   D(18,6,7,9)           -58.2927         estimate D2E/DX2                !
 ! D22   D(18,6,7,13)          173.1766         estimate D2E/DX2                !
 ! D23   D(6,7,9,10)           169.4837         estimate D2E/DX2                !
 ! D24   D(6,7,9,19)           -69.4346         estimate D2E/DX2                !
 ! D25   D(6,7,9,20)            49.5767         estimate D2E/DX2                !
 ! D26   D(8,7,9,10)            53.1221         estimate D2E/DX2                !
 ! D27   D(8,7,9,19)           174.2037         estimate D2E/DX2                !
 ! D28   D(8,7,9,20)           -66.785          estimate D2E/DX2                !
 ! D29   D(13,7,9,10)          -61.8196         estimate D2E/DX2                !
 ! D30   D(13,7,9,19)           59.262          estimate D2E/DX2                !
 ! D31   D(13,7,9,20)          178.2733         estimate D2E/DX2                !
 ! D32   D(6,7,13,12)         -166.577          estimate D2E/DX2                !
 ! D33   D(6,7,13,14)          -49.6244         estimate D2E/DX2                !
 ! D34   D(6,7,13,15)           75.021          Frozen                          !
 ! D35   D(8,7,13,12)          -52.1647         estimate D2E/DX2                !
 ! D36   D(8,7,13,14)           64.788          estimate D2E/DX2                !
 ! D37   D(8,7,13,15)         -170.5666         estimate D2E/DX2                !
 ! D38   D(9,7,13,12)           62.7753         estimate D2E/DX2                !
 ! D39   D(9,7,13,14)          179.7279         estimate D2E/DX2                !
 ! D40   D(9,7,13,15)          -55.6267         estimate D2E/DX2                !
 ! D41   D(7,9,10,11)           54.8122         Frozen                          !
 ! D42   D(7,9,10,21)          176.5994         estimate D2E/DX2                !
 ! D43   D(7,9,10,22)          -65.155          estimate D2E/DX2                !
 ! D44   D(19,9,10,11)         -66.453          estimate D2E/DX2                !
 ! D45   D(19,9,10,21)          55.3341         estimate D2E/DX2                !
 ! D46   D(19,9,10,22)         173.5797         estimate D2E/DX2                !
 ! D47   D(20,9,10,11)         175.3408         estimate D2E/DX2                !
 ! D48   D(20,9,10,21)         -62.872          estimate D2E/DX2                !
 ! D49   D(20,9,10,22)          55.3735         estimate D2E/DX2                !
 ! D50   D(9,10,11,12)         -52.8227         Frozen                          !
 ! D51   D(9,10,11,23)          67.7271         estimate D2E/DX2                !
 ! D52   D(9,10,11,24)        -174.7149         estimate D2E/DX2                !
 ! D53   D(21,10,11,12)       -174.704          estimate D2E/DX2                !
 ! D54   D(21,10,11,23)        -54.1542         estimate D2E/DX2                !
 ! D55   D(21,10,11,24)         63.4037         estimate D2E/DX2                !
 ! D56   D(22,10,11,12)         67.371          estimate D2E/DX2                !
 ! D57   D(22,10,11,23)       -172.0792         estimate D2E/DX2                !
 ! D58   D(22,10,11,24)        -54.5213         estimate D2E/DX2                !
 ! D59   D(10,11,12,13)         56.2659         estimate D2E/DX2                !
 ! D60   D(10,11,12,25)        177.2031         estimate D2E/DX2                !
 ! D61   D(10,11,12,26)        -65.1139         estimate D2E/DX2                !
 ! D62   D(23,11,12,13)        -64.1607         estimate D2E/DX2                !
 ! D63   D(23,11,12,25)         56.7765         estimate D2E/DX2                !
 ! D64   D(23,11,12,26)        174.4595         estimate D2E/DX2                !
 ! D65   D(24,11,12,13)        178.2385         estimate D2E/DX2                !
 ! D66   D(24,11,12,25)        -60.8243         estimate D2E/DX2                !
 ! D67   D(24,11,12,26)         56.8587         estimate D2E/DX2                !
 ! D68   D(11,12,13,7)         -59.6842         estimate D2E/DX2                !
 ! D69   D(11,12,13,14)       -179.2322         estimate D2E/DX2                !
 ! D70   D(11,12,13,15)         61.3368         estimate D2E/DX2                !
 ! D71   D(25,12,13,7)         179.3854         estimate D2E/DX2                !
 ! D72   D(25,12,13,14)         59.8374         estimate D2E/DX2                !
 ! D73   D(25,12,13,15)        -59.5935         estimate D2E/DX2                !
 ! D74   D(26,12,13,7)          61.6863         estimate D2E/DX2                !
 ! D75   D(26,12,13,14)        -57.8617         estimate D2E/DX2                !
 ! D76   D(26,12,13,15)       -177.2927         estimate D2E/DX2                !
 ! D77   D(7,13,15,16)         -67.1599         Frozen                          !
 ! D78   D(12,13,15,16)        175.9816         estimate D2E/DX2                !
 ! D79   D(14,13,15,16)         58.1959         estimate D2E/DX2                !
 ! D80   D(13,15,16,4)          -0.0197         estimate D2E/DX2                !
 ! D81   D(13,15,16,27)       -176.116          estimate D2E/DX2                !
 --------------------------------------------------------------------------------
 Trust Radius=3.00D-01 FncErr=1.00D-07 GrdErr=1.00D-07 EigMax=2.50D+02 EigMin=1.00D-04
 Number of steps in this run=     20 maximum allowed number of steps=    162.
 GradGradGradGradGradGradGradGradGradGradGradGradGradGradGradGradGradGrad

                          Input orientation:                          
 ---------------------------------------------------------------------
 Center     Atomic      Atomic             Coordinates (Angstroms)
 Number     Number       Type             X           Y           Z
 ---------------------------------------------------------------------
      1          8           0       -3.632270   -1.486360   -0.160810
      2          7           0       -3.295320   -0.322650    0.044800
      3          8           0       -4.073130    0.593270    0.309340
      4          6           0       -1.819560   -0.005570   -0.019620
      5          6           0       -1.365400    1.287690    0.289060
      6          7           0       -0.077700    1.764700    0.328520
      7          6           0        1.204380    1.003880    0.327280
      8          1           0        1.851630    1.507190    1.092230
      9          6           0        2.000170    1.044760   -1.001070
     10          6           0        3.402990    0.449550   -0.775310
     11          6           0        3.315430   -0.963420   -0.176870
     12          6           0        2.435400   -0.985710    1.092200
     13          6           0        1.009970   -0.433160    0.816610
     14          1           0        0.441490   -0.467270    1.775670
     15          7           0        0.368790   -1.282220   -0.183220
     16          6           0       -0.862910   -1.045050   -0.503750
     17          1           0       -2.133130    2.024900    0.576930
     18          1           0        0.139410    2.738680    0.104170
     19          1           0        1.466270    0.470380   -1.787600
     20          1           0        2.102370    2.093190   -1.353240
     21          1           0        3.961080    0.417630   -1.736560
     22          1           0        3.967740    1.101920   -0.072390
     23          1           0        2.879990   -1.651730   -0.936120
     24          1           0        4.334660   -1.335180    0.066070
     25          1           0        2.356650   -2.030930    1.463710
     26          1           0        2.918890   -0.379580    1.886900
     27          1           0       -1.334910   -1.743910   -1.210930
 ---------------------------------------------------------------------
                    Distance matrix (angstroms):
                    1          2          3          4          5
     1  O    0.000000
     2  N    1.228833   0.000000
     3  O    2.177214   1.230398   0.000000
     4  C    2.344908   1.510813   2.354868   0.000000
     5  C    3.610601   2.525361   2.795431   1.405015   0.000000
     6  N    4.841880   3.845856   4.163661   2.507815   1.373778
     7  C    5.461933   4.699657   5.293490   3.206796   2.585687
     8  H    6.372175   5.562061   6.045738   4.123383   3.323032
     9  C    6.231933   5.568291   6.229445   4.081271   3.612549
    10  C    7.322584   6.792366   7.555759   5.296530   4.957107
    11  C    6.967371   6.645430   7.566406   5.225928   5.214859
    12  C    6.215891   5.863262   6.742923   4.505719   4.501051
    13  C    4.859524   4.375320   5.210450   2.981334   2.980271
    14  H    4.624286   4.120749   4.863812   2.923796   2.924850
    15  N    4.006327   3.794532   4.846724   2.538794   3.136065
    16  C    2.825193   2.596033   3.694688   1.493345   2.514502
    17  H    3.888525   2.672983   2.425854   2.139394   1.102614
    18  H    5.669810   4.601373   4.731847   3.373988   2.098573
    19  H    5.698279   5.163267   5.924290   3.761510   3.605394
    20  H    6.864486   6.076665   6.568922   4.643799   3.920639
    21  H    7.985432   7.508435   8.292472   6.045062   5.764680
    22  H    8.029145   7.402376   8.065980   5.892551   5.348602
    23  H    6.560334   6.392426   7.411955   5.063160   5.307032
    24  H    7.971594   7.696900   8.629544   6.296795   6.278523
    25  H    6.229188   6.072585   7.039962   4.872687   5.123153
    26  H    6.952394   6.481742   7.233497   5.121290   4.867034
    27  H    2.539084   2.727645   3.907874   2.162390   3.382528
                    6          7          8          9         10
     6  N    0.000000
     7  C    1.490831   0.000000
     8  H    2.090904   1.121339   0.000000
     9  C    2.569760   1.549021   2.148909   0.000000
    10  C    3.881142   2.521284   2.648212   1.540502   0.000000
    11  C    4.383080   2.929329   3.139624   2.538110   1.536972
    12  C    3.803108   2.461500   2.560339   2.948561   2.546330
    13  C    2.500369   1.530465   2.132913   2.543365   3.006648
    14  H    2.710257   2.200935   2.520730   3.525054   4.014790
    15  N    3.121691   2.486981   3.406816   2.957214   3.543440
    16  C    3.033797   3.026948   4.053370   3.579366   4.528297
    17  H    2.086673   3.499111   4.051157   4.531548   5.912606
    18  H    1.022794   2.047796   2.329062   2.748336   4.082224
    19  H    2.921827   2.196799   3.084947   1.110671   2.185417
    20  H    2.772892   2.194796   2.527170   1.110709   2.174205
    21  H    4.731902   3.493210   3.693098   2.186185   1.111973
    22  H    4.118931   2.793834   2.449185   2.176475   1.112936
    23  H    4.692466   3.384688   3.892365   2.837139   2.171351
    24  H    5.398801   3.916387   3.911203   3.500392   2.182015
    25  H    4.649895   3.439371   3.593235   3.957536   3.501545
    26  H    4.000755   2.699244   2.308776   3.348606   2.830048
    27  H    4.032472   4.045298   5.101787   4.352411   5.239153
                   11         12         13         14         15
    11  C    0.000000
    12  C    1.544503   0.000000
    13  C    2.565799   1.553419   0.000000
    14  H    3.509716   2.170619   1.115405   0.000000
    15  N    2.963842   2.446526   1.460026   2.122894   0.000000
    16  C    4.191902   3.664618   2.371801   2.689060   1.294633
    17  H    6.259798   5.495520   3.997322   3.778433   4.215978
    18  H    4.885860   4.485405   3.365414   3.628123   4.037678
    19  H    2.840709   3.369371   2.794012   3.824429   2.617270
    20  H    3.492596   3.945974   3.504858   4.370876   3.970849
    21  H    2.181008   3.506985   3.993942   5.050378   4.266955
    22  H    2.168422   2.839460   3.448941   4.279267   4.318431
    23  H    1.113481   2.180671   2.837948   3.834453   2.647550
    24  H    1.111780   2.186838   3.525693   4.339674   3.974050
    25  H    2.179527   1.112073   2.187500   2.492025   2.687849
    26  H    2.181114   1.110272   2.189148   2.481446   3.406342
    27  H    4.827433   4.482690   3.365627   3.702052   2.042533
                   16         17         18         19         20
    16  C    0.000000
    17  H    3.493697   0.000000
    18  H    3.961165   2.428461   0.000000
    19  H    3.061026   4.578560   3.237983   0.000000
    20  H    4.400349   4.655070   2.528619   1.796331   0.000000
    21  H    5.189425   6.713788   4.835362   2.495890   2.531647
    22  H    5.303841   6.204363   4.167285   3.098087   2.470384
    23  H    3.816321   6.398305   5.279080   2.688303   3.847481
    24  H    5.236755   7.306396   5.847898   3.863134   4.330275
    25  H    3.899798   6.115085   5.432650   4.197659   5.000823
    26  H    4.523281   5.746342   4.541716   4.041595   4.156898
    27  H    1.100588   4.247061   4.898645   3.616938   5.153492
                   21         22         23         24         25
    21  H    0.000000
    22  H    1.799377   0.000000
    23  H    2.468139   3.084124   0.000000
    24  H    2.541924   2.468453   1.794618   0.000000
    25  H    4.337208   3.843171   2.485329   2.519918   0.000000
    26  H    3.853721   2.670907   3.096663   2.496597   1.795038
    27  H    5.744219   6.124795   4.224855   5.825960   4.567679
                   26         27
    26  H    0.000000
    27  H    5.436245   0.000000
 Symmetry turned off by external request.
 Stoichiometry    C9H13N3O2
 Framework group  C1[X(C9H13N3O2)]
 Deg. of freedom    75
 Full point group                 C1      NOp   1
 Rotational constants (GHZ):           1.6999645           0.3951647           0.3524475
 Standard basis: 6-31G(d) (6D, 7F)
   236 basis functions,   444 primitive gaussians,   236 cartesian basis functions
    52 alpha electrons       52 beta electrons
       nuclear repulsion energy       916.8362011322 Hartrees.
 NAtoms=   27 NActive=   27 NUniq=   27 SFac= 1.00D+00 NAtFMM=   60 NAOKFM=F Big=F
 Integral buffers will be    131072 words long.
 Raffenetti 1 integral format.
 Two-electron integral symmetry is turned off.
 One-electron integrals computed using PRISM.
 NBasis=   236 RedAO= T EigKep=  1.32D-03  NBF=   236
 NBsUse=   236 1.00D-06 EigRej= -1.00D+00 NBFU=   236
 ExpMin= 1.61D-01 ExpMax= 5.48D+03 ExpMxC= 8.25D+02 IAcc=3 IRadAn=         5 AccDes= 0.00D+00
 Harris functional with IExCor=  205 and IRadAn=       5 diagonalized for initial guess.
 HarFok:  IExCor=  205 AccDes= 0.00D+00 IRadAn=         5 IDoV= 1 UseB2=F ITyADJ=14
 ICtDFT=  3500011 ScaDFX=  1.000000  1.000000  1.000000  1.000000
 FoFCou: FMM=F IPFlag=           0 FMFlag=      100000 FMFlg1=           0
         NFxFlg=           0 DoJE=T BraDBF=F KetDBF=T FulRan=T
         wScrn=  0.000000 ICntrl=       500 IOpCl=  0 I1Cent=   200000004 NGrid=           0
         NMat0=    1 NMatS0=      1 NMatT0=    0 NMatD0=    1 NMtDS0=    0 NMtDT0=    0
 Symmetry not used in FoFCou.
 Keep R1 ints in memory in canonical form, NReq=397720213.
 Requested convergence on RMS density matrix=1.00D-08 within 128 cycles.
 Requested convergence on MAX density matrix=1.00D-06.
 Requested convergence on             energy=1.00D-06.
 No special actions if energy rises.
 SCF Done:  E(RHF) =  -661.275248759     A.U. after   16 cycles
            NFock= 16  Conv=0.75D-08     -V/T= 2.0037
 ExpMin= 1.61D-01 ExpMax= 5.48D+03 ExpMxC= 8.25D+02 IAcc=3 IRadAn=         5 AccDes= 0.00D+00
 HarFok:  IExCor=  205 AccDes= 0.00D+00 IRadAn=         5 IDoV=-2 UseB2=F ITyADJ=14
 ICtDFT= 12500011 ScaDFX=  1.000000  1.000000  1.000000  1.000000
 Range of M.O.s used for correlation:    15   236
 NBasis=   236 NAE=    52 NBE=    52 NFC=    14 NFV=     0
 NROrb=    222 NOA=    38 NOB=    38 NVA=   184 NVB=   184
 Fully direct method using O(ONN) memory.
 JobTyp=1 Pass  1:  I=  15 to  52 NPSUse=  4 ParTrn=T ParDer=T DoDerP=T.
 Spin components of T(2) and E(2):
     alpha-alpha T2 =       0.9198238556D-01 E2=     -0.2718370270D+00
     alpha-beta  T2 =       0.5000909055D+00 E2=     -0.1494301651D+01
     beta-beta   T2 =       0.9198238556D-01 E2=     -0.2718370270D+00
 ANorm=    0.1297711708D+01
 E2 =    -0.2037975705D+01 EUMP2 =    -0.66331322446343D+03
          IDoAtm=111111111111111111111111111
          Differentiating once with respect to electric field.
                with respect to dipole field.
          Differentiating once with respect to nuclear coordinates.
 Keep R1 ints in memory in canonical form, NReq=397723379.
          There are     1 degrees of freedom in the 1st order CPHF.  IDoFFX=0 NUNeed=     1.
 LinEq1:  Iter=  0 NonCon=     1 RMS=4.60D-03 Max=1.13D-01 NDo=     1
 AX will form     1 AO Fock derivatives at one time.
 LinEq1:  Iter=  1 NonCon=     1 RMS=1.56D-03 Max=3.43D-02 NDo=     1
 LinEq1:  Iter=  2 NonCon=     1 RMS=6.36D-04 Max=1.76D-02 NDo=     1
 LinEq1:  Iter=  3 NonCon=     1 RMS=2.98D-04 Max=9.73D-03 NDo=     1
 LinEq1:  Iter=  4 NonCon=     1 RMS=9.15D-05 Max=1.98D-03 NDo=     1
 LinEq1:  Iter=  5 NonCon=     1 RMS=3.86D-05 Max=2.04D-03 NDo=     1
 LinEq1:  Iter=  6 NonCon=     1 RMS=1.54D-05 Max=5.44D-04 NDo=     1
 LinEq1:  Iter=  7 NonCon=     1 RMS=6.04D-06 Max=1.02D-04 NDo=     1
 LinEq1:  Iter=  8 NonCon=     1 RMS=2.39D-06 Max=6.34D-05 NDo=     1
 LinEq1:  Iter=  9 NonCon=     1 RMS=8.86D-07 Max=2.50D-05 NDo=     1
 LinEq1:  Iter= 10 NonCon=     1 RMS=4.38D-07 Max=1.58D-05 NDo=     1
 LinEq1:  Iter= 11 NonCon=     1 RMS=1.54D-07 Max=5.74D-06 NDo=     1
 LinEq1:  Iter= 12 NonCon=     1 RMS=5.47D-08 Max=8.73D-07 NDo=     1
 LinEq1:  Iter= 13 NonCon=     1 RMS=1.72D-08 Max=3.11D-07 NDo=     1
 LinEq1:  Iter= 14 NonCon=     1 RMS=5.67D-09 Max=1.19D-07 NDo=     1
 LinEq1:  Iter= 15 NonCon=     1 RMS=2.22D-09 Max=4.82D-08 NDo=     1
 LinEq1:  Iter= 16 NonCon=     1 RMS=8.67D-10 Max=1.38D-08 NDo=     1
 LinEq1:  Iter= 17 NonCon=     1 RMS=2.73D-10 Max=4.15D-09 NDo=     1
 LinEq1:  Iter= 18 NonCon=     1 RMS=9.22D-11 Max=1.25D-09 NDo=     1
 LinEq1:  Iter= 19 NonCon=     0 RMS=2.96D-11 Max=5.52D-10 NDo=     1
 Linear equations converged to 1.000D-10 1.000D-09 after    19 iterations.
 End of Minotr F.D. properties file   721 does not exist.
 End of Minotr F.D. properties file   722 does not exist.
 End of Minotr F.D. properties file   788 does not exist.

 **********************************************************************

            Population analysis using the SCF Density.

 **********************************************************************

 Alpha  occ. eigenvalues --  -20.60158 -20.59720 -15.85825 -15.63260 -15.57072
 Alpha  occ. eigenvalues --  -11.35882 -11.30444 -11.30196 -11.29957 -11.27550
 Alpha  occ. eigenvalues --  -11.24590 -11.23854 -11.23370 -11.22838  -1.58920
 Alpha  occ. eigenvalues --   -1.38499  -1.28597  -1.22756  -1.13301  -1.08528
 Alpha  occ. eigenvalues --   -1.01758  -1.00768  -0.93681  -0.89311  -0.84983
 Alpha  occ. eigenvalues --   -0.81418  -0.78350  -0.76806  -0.74241  -0.71471
 Alpha  occ. eigenvalues --   -0.70680  -0.70162  -0.67505  -0.64345  -0.63259
 Alpha  occ. eigenvalues --   -0.61449  -0.59874  -0.57415  -0.56446  -0.54909
 Alpha  occ. eigenvalues --   -0.53259  -0.50718  -0.49198  -0.48583  -0.48031
 Alpha  occ. eigenvalues --   -0.47658  -0.46043  -0.45717  -0.44280  -0.42047
 Alpha  occ. eigenvalues --   -0.40138  -0.33976
 Alpha virt. eigenvalues --    0.07013   0.11833   0.18437   0.21382   0.23090
 Alpha virt. eigenvalues --    0.24182   0.26422   0.27679   0.28514   0.28932
 Alpha virt. eigenvalues --    0.30114   0.31150   0.31840   0.32248   0.33376
 Alpha virt. eigenvalues --    0.33702   0.33932   0.35560   0.37634   0.38536
 Alpha virt. eigenvalues --    0.40760   0.41902   0.44189   0.45201   0.45844
 Alpha virt. eigenvalues --    0.46159   0.49388   0.52805   0.57369   0.59018
 Alpha virt. eigenvalues --    0.63236   0.69298   0.70297   0.72196   0.74219
 Alpha virt. eigenvalues --    0.75631   0.75890   0.76146   0.78083   0.79296
 Alpha virt. eigenvalues --    0.79778   0.83573   0.85182   0.85592   0.87938
 Alpha virt. eigenvalues --    0.88717   0.89860   0.91211   0.92303   0.93463
 Alpha virt. eigenvalues --    0.95634   0.97289   0.98543   1.00272   1.01743
 Alpha virt. eigenvalues --    1.02647   1.05402   1.05998   1.06489   1.09065
 Alpha virt. eigenvalues --    1.09232   1.10463   1.11415   1.11584   1.13225
 Alpha virt. eigenvalues --    1.13723   1.14276   1.15054   1.16367   1.17464
 Alpha virt. eigenvalues --    1.17724   1.19877   1.20807   1.22093   1.22742
 Alpha virt. eigenvalues --    1.23830   1.24177   1.25674   1.26934   1.27852
 Alpha virt. eigenvalues --    1.29441   1.31253   1.32759   1.34481   1.39943
 Alpha virt. eigenvalues --    1.43028   1.45835   1.46527   1.48602   1.52049
 Alpha virt. eigenvalues --    1.54202   1.55547   1.60611   1.62191   1.66618
 Alpha virt. eigenvalues --    1.69073   1.69610   1.71977   1.73402   1.77151
 Alpha virt. eigenvalues --    1.78693   1.79271   1.84174   1.89573   1.92681
 Alpha virt. eigenvalues --    1.93654   1.97103   1.97645   1.98705   2.02490
 Alpha virt. eigenvalues --    2.03051   2.03397   2.05996   2.09103   2.11455
 Alpha virt. eigenvalues --    2.13157   2.13391   2.17551   2.18563   2.18837
 Alpha virt. eigenvalues --    2.21526   2.22456   2.24355   2.24883   2.26975
 Alpha virt. eigenvalues --    2.28642   2.32641   2.34121   2.35111   2.35882
 Alpha virt. eigenvalues --    2.38544   2.40027   2.41357   2.42186   2.46163
 Alpha virt. eigenvalues --    2.48470   2.50316   2.51495   2.56503   2.58397
 Alpha virt. eigenvalues --    2.61230   2.62969   2.66260   2.67466   2.68882
 Alpha virt. eigenvalues --    2.70289   2.71541   2.74252   2.76710   2.80923
 Alpha virt. eigenvalues --    2.84483   2.87058   2.90236   2.92250   2.95532
 Alpha virt. eigenvalues --    2.97393   2.99559   3.00936   3.03126   3.05837
 Alpha virt. eigenvalues --    3.06619   3.12660   3.19818   3.22847   3.26995
 Alpha virt. eigenvalues --    3.31408   3.32075   3.36877   3.47509   3.57511
 Alpha virt. eigenvalues --    4.10813   4.25000   4.31294   4.35835   4.44259
 Alpha virt. eigenvalues --    4.53444   4.60090   4.60796   4.70917   4.78153
 Alpha virt. eigenvalues --    4.95210   4.99331   5.02343   5.10515
          Condensed to atoms (all electrons):
               1          2          3          4          5          6
     1  O    8.295223   0.315368  -0.086646  -0.081906   0.003295  -0.000010
     2  N    0.315368   5.683430   0.311623   0.259698  -0.040780   0.000856
     3  O   -0.086646   0.311623   8.325188  -0.089745   0.007666   0.000400
     4  C   -0.081906   0.259698  -0.089745   5.256378   0.555421  -0.042769
     5  C    0.003295  -0.040780   0.007666   0.555421   4.669064   0.309383
     6  N   -0.000010   0.000856   0.000400  -0.042769   0.309383   7.198581
     7  C    0.000003  -0.000065   0.000002   0.004640  -0.030067   0.195899
     8  H   -0.000000   0.000001  -0.000000  -0.000256   0.002350  -0.051399
     9  C   -0.000000  -0.000002   0.000000   0.000608   0.001485  -0.054215
    10  C   -0.000000   0.000000  -0.000000  -0.000023  -0.000053   0.003283
    11  C   -0.000000  -0.000000  -0.000000  -0.000006   0.000010  -0.000157
    12  C   -0.000000   0.000002  -0.000000  -0.000132  -0.000040   0.003709
    13  C   -0.000019  -0.000039  -0.000003  -0.010895   0.000239  -0.045575
    14  H   -0.000004  -0.000055  -0.000000   0.003620   0.005091  -0.005897
    15  N    0.000082   0.001498  -0.000010  -0.058419  -0.002098   0.000865
    16  C    0.003800  -0.025990   0.001846   0.309428  -0.043897  -0.003213
    17  H    0.000097  -0.003816   0.010751  -0.031846   0.381097  -0.037753
    18  H    0.000000  -0.000028   0.000007   0.000709  -0.024269   0.328536
    19  H    0.000000  -0.000000   0.000000  -0.000652   0.000541   0.000812
    20  H    0.000000  -0.000000   0.000000  -0.000016   0.000005  -0.001968
    21  H   -0.000000  -0.000000   0.000000   0.000000   0.000001  -0.000057
    22  H   -0.000000   0.000000  -0.000000  -0.000000  -0.000003  -0.000097
    23  H    0.000000  -0.000000   0.000000   0.000023  -0.000002  -0.000025
    24  H    0.000000   0.000000   0.000000   0.000000  -0.000000   0.000004
    25  H    0.000000  -0.000000   0.000000   0.000017  -0.000002  -0.000075
    26  H    0.000000  -0.000000   0.000000   0.000008  -0.000005  -0.000069
    27  H    0.004680  -0.000271  -0.000005  -0.070830   0.002874   0.000091
               7          8          9         10         11         12
     1  O    0.000003  -0.000000  -0.000000  -0.000000  -0.000000  -0.000000
     2  N   -0.000065   0.000001  -0.000002   0.000000  -0.000000   0.000002
     3  O    0.000002  -0.000000   0.000000  -0.000000  -0.000000  -0.000000
     4  C    0.004640  -0.000256   0.000608  -0.000023  -0.000006  -0.000132
     5  C   -0.030067   0.002350   0.001485  -0.000053   0.000010  -0.000040
     6  N    0.195899  -0.051399  -0.054215   0.003283  -0.000157   0.003709
     7  C    4.993923   0.418014   0.340926  -0.049411  -0.007689  -0.064387
     8  H    0.418014   0.549845  -0.061178   0.001728  -0.000377  -0.002581
     9  C    0.340926  -0.061178   5.181640   0.317535  -0.052996  -0.006594
    10  C   -0.049411   0.001728   0.317535   5.126417   0.332803  -0.059764
    11  C   -0.007689  -0.000377  -0.052996   0.332803   5.122842   0.330832
    12  C   -0.064387  -0.002581  -0.006594  -0.059764   0.330832   5.136856
    13  C    0.337370  -0.042272  -0.048563  -0.001982  -0.047634   0.368141
    14  H   -0.039604  -0.000974   0.003868  -0.000398   0.003932  -0.040637
    15  N   -0.057578   0.004198  -0.013460   0.001420  -0.007437  -0.074625
    16  C   -0.004069   0.000178  -0.001645   0.000020  -0.000036   0.002929
    17  H    0.001622  -0.000001  -0.000076   0.000001   0.000000   0.000001
    18  H   -0.028450  -0.002320   0.000845  -0.000122   0.000012  -0.000139
    19  H   -0.034741   0.004110   0.385585  -0.032156  -0.002324   0.000670
    20  H   -0.041634  -0.001972   0.397145  -0.037442   0.004165  -0.000362
    21  H    0.004040  -0.000084  -0.035810   0.400166  -0.035801   0.004191
    22  H   -0.004095   0.003495  -0.045716   0.396068  -0.045715  -0.001199
    23  H    0.000411   0.000033  -0.002013  -0.040040   0.396681  -0.036637
    24  H   -0.000143  -0.000097   0.004402  -0.038508   0.400370  -0.037818
    25  H    0.004990  -0.000005  -0.000363   0.004094  -0.034099   0.395459
    26  H   -0.004442   0.001679   0.001013  -0.002335  -0.042408   0.394876
    27  H   -0.000468   0.000011  -0.000073   0.000007   0.000003  -0.000013
              13         14         15         16         17         18
     1  O   -0.000019  -0.000004   0.000082   0.003800   0.000097   0.000000
     2  N   -0.000039  -0.000055   0.001498  -0.025990  -0.003816  -0.000028
     3  O   -0.000003  -0.000000  -0.000010   0.001846   0.010751   0.000007
     4  C   -0.010895   0.003620  -0.058419   0.309428  -0.031846   0.000709
     5  C    0.000239   0.005091  -0.002098  -0.043897   0.381097  -0.024269
     6  N   -0.045575  -0.005897   0.000865  -0.003213  -0.037753   0.328536
     7  C    0.337370  -0.039604  -0.057578  -0.004069   0.001622  -0.028450
     8  H   -0.042272  -0.000974   0.004198   0.000178  -0.000001  -0.002320
     9  C   -0.048563   0.003868  -0.013460  -0.001645  -0.000076   0.000845
    10  C   -0.001982  -0.000398   0.001420   0.000020   0.000001  -0.000122
    11  C   -0.047634   0.003932  -0.007437  -0.000036   0.000000   0.000012
    12  C    0.368141  -0.040637  -0.074625   0.002929   0.000001  -0.000139
    13  C    5.034320   0.400847   0.234575  -0.071475  -0.000053   0.003834
    14  H    0.400847   0.521319  -0.036276  -0.004569   0.000089   0.000019
    15  N    0.234575  -0.036276   6.929401   0.588879  -0.000064  -0.000122
    16  C   -0.071475  -0.004569   0.588879   4.714282   0.002494  -0.000284
    17  H   -0.000053   0.000089  -0.000064   0.002494   0.404710  -0.002069
    18  H    0.003834   0.000019  -0.000122  -0.000284  -0.002069   0.321778
    19  H   -0.006359   0.000061   0.006929   0.002817   0.000011  -0.000129
    20  H    0.003869  -0.000046   0.000090  -0.000032  -0.000001   0.003037
    21  H   -0.000362   0.000008  -0.000027   0.000002  -0.000000  -0.000000
    22  H    0.000297  -0.000046  -0.000001  -0.000002   0.000000   0.000002
    23  H   -0.005757   0.000006   0.006599   0.000040   0.000000   0.000000
    24  H    0.004110  -0.000056   0.000052   0.000006   0.000000  -0.000000
    25  H   -0.034664  -0.002616   0.000509  -0.000075  -0.000000   0.000002
    26  H   -0.044773  -0.000928   0.004200  -0.000070   0.000000  -0.000001
    27  H    0.005440  -0.000220  -0.042569   0.404452  -0.000069   0.000004
              19         20         21         22         23         24
     1  O    0.000000   0.000000  -0.000000  -0.000000   0.000000   0.000000
     2  N   -0.000000  -0.000000  -0.000000   0.000000  -0.000000   0.000000
     3  O    0.000000   0.000000   0.000000  -0.000000   0.000000   0.000000
     4  C   -0.000652  -0.000016   0.000000  -0.000000   0.000023   0.000000
     5  C    0.000541   0.000005   0.000001  -0.000003  -0.000002  -0.000000
     6  N    0.000812  -0.001968  -0.000057  -0.000097  -0.000025   0.000004
     7  C   -0.034741  -0.041634   0.004040  -0.004095   0.000411  -0.000143
     8  H    0.004110  -0.001972  -0.000084   0.003495   0.000033  -0.000097
     9  C    0.385585   0.397145  -0.035810  -0.045716  -0.002013   0.004402
    10  C   -0.032156  -0.037442   0.400166   0.396068  -0.040040  -0.038508
    11  C   -0.002324   0.004165  -0.035801  -0.045715   0.396681   0.400370
    12  C    0.000670  -0.000362   0.004191  -0.001199  -0.036637  -0.037818
    13  C   -0.006359   0.003869  -0.000362   0.000297  -0.005757   0.004110
    14  H    0.000061  -0.000046   0.000008  -0.000046   0.000006  -0.000056
    15  N    0.006929   0.000090  -0.000027  -0.000001   0.006599   0.000052
    16  C    0.002817  -0.000032   0.000002  -0.000002   0.000040   0.000006
    17  H    0.000011  -0.000001  -0.000000   0.000000   0.000000   0.000000
    18  H   -0.000129   0.003037  -0.000000   0.000002   0.000000  -0.000000
    19  H    0.505765  -0.024268  -0.002606   0.003747   0.001628  -0.000068
    20  H   -0.024268   0.551504  -0.002569  -0.003014  -0.000050  -0.000090
    21  H   -0.002606  -0.002569   0.526091  -0.024701  -0.002810  -0.002036
    22  H    0.003747  -0.003014  -0.024701   0.568620   0.004067  -0.003599
    23  H    0.001628  -0.000050  -0.002810   0.004067   0.510282  -0.025080
    24  H   -0.000068  -0.000090  -0.002036  -0.003599  -0.025080   0.541075
    25  H   -0.000027   0.000011  -0.000086  -0.000081  -0.002125  -0.002359
    26  H    0.000023  -0.000036  -0.000075   0.002469   0.003829  -0.002813
    27  H    0.000081  -0.000000  -0.000000   0.000000  -0.000023  -0.000000
              25         26         27
     1  O    0.000000   0.000000   0.004680
     2  N   -0.000000  -0.000000  -0.000271
     3  O    0.000000   0.000000  -0.000005
     4  C    0.000017   0.000008  -0.070830
     5  C   -0.000002  -0.000005   0.002874
     6  N   -0.000075  -0.000069   0.000091
     7  C    0.004990  -0.004442  -0.000468
     8  H   -0.000005   0.001679   0.000011
     9  C   -0.000363   0.001013  -0.000073
    10  C    0.004094  -0.002335   0.000007
    11  C   -0.034099  -0.042408   0.000003
    12  C    0.395459   0.394876  -0.000013
    13  C   -0.034664  -0.044773   0.005440
    14  H   -0.002616  -0.000928  -0.000220
    15  N    0.000509   0.004200  -0.042569
    16  C   -0.000075  -0.000070   0.404452
    17  H   -0.000000   0.000000  -0.000069
    18  H    0.000002  -0.000001   0.000004
    19  H   -0.000027   0.000023   0.000081
    20  H    0.000011  -0.000036  -0.000000
    21  H   -0.000086  -0.000075  -0.000000
    22  H   -0.000081   0.002469   0.000000
    23  H   -0.002125   0.003829  -0.000023
    24  H   -0.002359  -0.002813  -0.000000
    25  H    0.512103  -0.023050  -0.000009
    26  H   -0.023050   0.560549   0.000001
    27  H   -0.000009   0.000001   0.469554
 Mulliken charges:
               1
     1  O   -0.453962
     2  N    0.498570
     3  O   -0.481074
     4  C   -0.003056
     5  C    0.202693
     6  N   -0.799143
     7  C    0.065002
     8  H    0.177873
     9  C   -0.312350
    10  C   -0.321307
    11  C   -0.314971
    12  C   -0.312738
    13  C   -0.032616
    14  H    0.193464
    15  N   -0.486610
    16  C    0.124184
    17  H    0.274875
    18  H    0.399146
    19  H    0.190549
    20  H    0.153673
    21  H    0.172524
    22  H    0.149505
    23  H    0.190961
    24  H    0.162648
    25  H    0.182449
    26  H    0.152357
    27  H    0.227354
 Sum of Mulliken charges =  -0.00000
 Mulliken charges with hydrogens summed into heavy atoms:
               1
     1  O   -0.453962
     2  N    0.498570
     3  O   -0.481074
     4  C   -0.003056
     5  C    0.477567
     6  N   -0.399997
     7  C    0.242875
     9  C    0.031872
    10  C    0.000722
    11  C    0.038638
    12  C    0.022069
    13  C    0.160848
    15  N   -0.486610
    16  C    0.351537
 Electronic spatial extent (au):  <R**2>=           3147.1282
 Charge=             -0.0000 electrons
 Dipole moment (field-independent basis, Debye):
    X=              5.2654    Y=              4.5044    Z=              0.2740  Tot=              6.9346
 Quadrupole moment (field-independent basis, Debye-Ang):
   XX=           -105.2078   YY=            -80.7381   ZZ=            -82.2730
   XY=             -2.2317   XZ=              1.7607   YZ=             -0.5112
 Traceless Quadrupole moment (field-independent basis, Debye-Ang):
   XX=            -15.8015   YY=              8.6682   ZZ=              7.1333
   XY=             -2.2317   XZ=              1.7607   YZ=             -0.5112
 Octapole moment (field-independent basis, Debye-Ang**2):
  XXX=            101.6809  YYY=             37.2331  ZZZ=             -7.0658  XYY=              0.3209
  XXY=             13.0915  XXZ=             -5.4715  XZZ=             -7.8124  YZZ=             -2.5666
  YYZ=             -0.4062  XYZ=             -0.8319
 Hexadecapole moment (field-independent basis, Debye-Ang**3):
 XXXX=          -3594.4961 YYYY=           -612.9032 ZZZZ=           -301.7802 XXXY=            -56.0907
 XXXZ=             62.4680 YYYX=            -33.0620 YYYZ=              6.7573 ZZZX=             38.5270
 ZZZY=              9.5401 XXYY=           -663.2166 XXZZ=           -551.3869 YYZZ=           -163.0157
 XXYZ=             -0.7946 YYXZ=             15.1365 ZZXY=             -0.5890
 N-N= 9.168362011322D+02 E-N=-3.379610776281D+03  KE= 6.588638525290D+02
 Calling FoFJK, ICntrl=  10002127 FMM=F ISym2X=0 I1Cent= 0 IOpClX= 0 NMat=1 NMatS=1 NMatT=0.
 -------------------------------------------------------------------
 Center     Atomic                   Forces (Hartrees/Bohr)
 Number     Number              X              Y              Z
 -------------------------------------------------------------------
      1        8           0.000838310   -0.018922698   -0.005665407
      2        7           0.042264876    0.015398145    0.000762183
      3        8          -0.007651464    0.015194355    0.003801629
      4        6           0.028912981    0.016916296    0.008101470
      5        6          -0.014582486   -0.009919479   -0.003152043
      6        7           0.013406044   -0.015773470   -0.006975480
      7        6          -0.003766459    0.005583978    0.004009284
      8        1          -0.009395372   -0.001804723   -0.007859478
      9        6          -0.004180612    0.000041233   -0.002185125
     10        6           0.002813874   -0.000824260    0.001191810
     11        6          -0.001620302   -0.004716254   -0.002605554
     12        6           0.001036500   -0.008837854   -0.002181082
     13        6           0.011771400   -0.005410170    0.008256410
     14        1           0.001158500    0.005416759   -0.009397362
     15        7          -0.004401251    0.008590294   -0.004342317
     16        6          -0.031007232   -0.008953568    0.003251474
     17        1           0.006030119   -0.003482097   -0.007696390
     18        1          -0.018492669   -0.001191141    0.007544438
     19        1           0.003010869    0.005930244    0.007899902
     20        1          -0.003317209   -0.007152229    0.002621375
     21        1          -0.004547885    0.002470524    0.009513023
     22        1          -0.003812471   -0.004011951   -0.007479019
     23        1           0.004001163    0.006219457    0.009282218
     24        1          -0.009320266    0.002694092   -0.002266156
     25        1          -0.000390633    0.010472478   -0.002308542
     26        1          -0.004786483   -0.004853562   -0.004406948
     27        1           0.006028158    0.000925601    0.002285685
 -------------------------------------------------------------------
 Cartesian Forces:  Max     0.042264876 RMS     0.009899249

 GradGradGradGradGradGradGradGradGradGradGradGradGradGradGradGradGradGrad
 Berny optimization.
 FormGI is forming the generalized inverse of G from B-inverse, IUseBI=4.
 Internal  Forces:  Max     0.039011209 RMS     0.007578378
 Search for a local minimum.
 Step number   1 out of a maximum of   20
 All quantities printed in internal units (Hartrees-Bohrs-Radians)
 Mixed Optimization -- RFO/linear search
 Second derivative matrix not updated -- first step.
 ITU=  0
     Eigenvalues ---    0.00230   0.00772   0.00988   0.01139   0.01196
     Eigenvalues ---    0.01524   0.01548   0.01698   0.01967   0.02028
     Eigenvalues ---    0.02034   0.02733   0.03716   0.04503   0.04693
     Eigenvalues ---    0.04842   0.05107   0.05139   0.05313   0.05954
     Eigenvalues ---    0.06235   0.07347   0.07694   0.07743   0.07902
     Eigenvalues ---    0.07984   0.08054   0.08092   0.10453   0.11743
     Eigenvalues ---    0.12265   0.13812   0.15444   0.15984   0.15991
     Eigenvalues ---    0.16647   0.20114   0.21898   0.24923   0.25000
     Eigenvalues ---    0.25000   0.25464   0.26249   0.26639   0.27954
     Eigenvalues ---    0.28090   0.28480   0.29995   0.31269   0.31428
     Eigenvalues ---    0.32034   0.32234   0.32291   0.32382   0.32392
     Eigenvalues ---    0.32412   0.32525   0.32529   0.32571   0.33107
     Eigenvalues ---    0.33395   0.33617   0.35662   0.43110   0.43895
     Eigenvalues ---    0.48364   0.65918   0.90921   0.915741000.00000
     Eigenvalues --- 1000.000001000.000001000.000001000.000001000.00000
     Eigenvalues --- 1000.000001000.000001000.000001000.000001000.00000
     Eigenvalues --- 1000.000001000.000001000.000001000.000001000.00000
     Eigenvalues --- 1000.000001000.000001000.000001000.000001000.00000
     Eigenvalues --- 1000.000001000.000001000.000001000.000001000.00000
     Eigenvalues --- 1000.000001000.000001000.000001000.000001000.00000
     Eigenvalues --- 1000.000001000.000001000.000001000.000001000.00000
     Eigenvalues --- 1000.000001000.000001000.000001000.000001000.00000
     Eigenvalues --- 1000.000001000.000001000.000001000.000001000.00000
     Eigenvalues --- 1000.000001000.000001000.000001000.000001000.00000
     Eigenvalues --- 1000.000001000.000001000.000001000.000001000.00000
     Eigenvalues --- 1000.000001000.000001000.000001000.000001000.00000
     Eigenvalues --- 1000.000001000.000001000.000001000.000001000.00000
     Eigenvalues --- 1000.000001000.000001000.000001000.000001000.00000
     Eigenvalues --- 1000.000001000.000001000.000001000.000001000.00000
     Eigenvalues --- 1000.000001000.000001000.000001000.000001000.00000
     Eigenvalues --- 1000.000001000.000001000.000001000.000001000.00000
     Eigenvalues --- 1000.000001000.000001000.000001000.000001000.00000
     Eigenvalues --- 1000.00000
 RFO step:  Lambda=-2.34372673D-02 EMin= 2.30431520D-03
 Linear search not attempted -- first point.
 Iteration  1 RMS(Cart)=  0.05246343 RMS(Int)=  0.00118317
 Iteration  2 RMS(Cart)=  0.00128413 RMS(Int)=  0.00024515
 Iteration  3 RMS(Cart)=  0.00000107 RMS(Int)=  0.00024515
 Iteration  4 RMS(Cart)=  0.00000000 RMS(Int)=  0.00024515
 Iteration  1 RMS(Cart)=  0.00003450 RMS(Int)=  0.00003393
 Iteration  2 RMS(Cart)=  0.00002276 RMS(Int)=  0.00003656
 Iteration  3 RMS(Cart)=  0.00001595 RMS(Int)=  0.00004130
 Iteration  4 RMS(Cart)=  0.00001196 RMS(Int)=  0.00004607
 Iteration  5 RMS(Cart)=  0.00000951 RMS(Int)=  0.00005039
 Iteration  6 RMS(Cart)=  0.00000787 RMS(Int)=  0.00005420
 Iteration  7 RMS(Cart)=  0.00000667 RMS(Int)=  0.00005754
 Iteration  8 RMS(Cart)=  0.00000572 RMS(Int)=  0.00006047
 Iteration  9 RMS(Cart)=  0.00000494 RMS(Int)=  0.00006304
 Iteration 10 RMS(Cart)=  0.00000427 RMS(Int)=  0.00006529
 Iteration 11 RMS(Cart)=  0.00000370 RMS(Int)=  0.00006726
 Iteration 12 RMS(Cart)=  0.00000321 RMS(Int)=  0.00006899
 Iteration 13 RMS(Cart)=  0.00000279 RMS(Int)=  0.00007050
 Iteration 14 RMS(Cart)=  0.00000242 RMS(Int)=  0.00007182
 Iteration 15 RMS(Cart)=  0.00000210 RMS(Int)=  0.00007297
 Iteration 16 RMS(Cart)=  0.00000183 RMS(Int)=  0.00007398
 Iteration 17 RMS(Cart)=  0.00000159 RMS(Int)=  0.00007486
 Iteration 18 RMS(Cart)=  0.00000139 RMS(Int)=  0.00007562
 Iteration 19 RMS(Cart)=  0.00000121 RMS(Int)=  0.00007629
 Iteration 20 RMS(Cart)=  0.00000105 RMS(Int)=  0.00007687
 Iteration 21 RMS(Cart)=  0.00000092 RMS(Int)=  0.00007737
 Variable       Old X    -DE/DX   Delta X   Delta X   Delta X     New X
                                 (Linear)    (Quad)   (Total)
    R1        2.32216   0.01864   0.00000   0.01984   0.01984   2.34200
    R2        2.32512   0.01697   0.00000   0.01819   0.01819   2.34331
    R3        2.85502  -0.03713   0.00000  -0.11045  -0.11045   2.74457
    R4        2.65509  -0.03901   0.00000  -0.07490  -0.07489   2.58021
    R5        2.82201  -0.02246   0.00000  -0.04902  -0.04913   2.77289
    R6        2.59606  -0.02661   0.00000  -0.05161  -0.05146   2.54460
    R7        2.08364  -0.00854   0.00000  -0.02389  -0.02389   2.05975
    R8        2.81726  -0.01556   0.00000  -0.05516  -0.05496   2.76231
    R9        1.93280  -0.00671   0.00000  -0.01452  -0.01452   1.91828
   R10        2.11902  -0.01159   0.00000  -0.03433  -0.03433   2.08469
   R11        2.92723  -0.01338   0.00000  -0.04639  -0.04638   2.88085
   R12        2.89216  -0.00215   0.00000  -0.01472  -0.01450   2.87766
   R13        2.91113  -0.00449   0.00000  -0.01388  -0.01395   2.89717
   R14        2.09886  -0.01011   0.00000  -0.02899  -0.02899   2.06988
   R15        2.09894  -0.00789   0.00000  -0.02262  -0.02262   2.07631
   R16        2.90446  -0.00157   0.00000  -0.00663  -0.00671   2.89775
   R17        2.10133  -0.01058   0.00000  -0.03045  -0.03045   2.07088
   R18        2.10314  -0.00901   0.00000  -0.02601  -0.02601   2.07713
   R19        2.91869  -0.00920   0.00000  -0.02848  -0.02849   2.89020
   R20        2.10417  -0.01174   0.00000  -0.03395  -0.03395   2.07023
   R21        2.10096  -0.00994   0.00000  -0.02860  -0.02860   2.07236
   R22        2.93554  -0.01044   0.00000  -0.03607  -0.03599   2.89954
   R23        2.10151  -0.01059   0.00000  -0.03049  -0.03049   2.07103
   R24        2.09811  -0.00789   0.00000  -0.02259  -0.02259   2.07552
   R25        2.10781  -0.00884   0.00000  -0.02570  -0.02570   2.08211
   R26        2.75905  -0.00105   0.00000  -0.01008  -0.01025   2.74880
   R27        2.44650  -0.01035   0.00000  -0.01116  -0.01141   2.43509
   R28        2.07981  -0.00464   0.00000  -0.01291  -0.01291   2.06690
    A1        2.17438   0.00804   0.00000   0.02948   0.02929   2.20367
    A2        2.04818  -0.00674   0.00000  -0.02456  -0.02475   2.02343
    A3        2.06057  -0.00128   0.00000  -0.00457  -0.00476   2.05581
    A4        2.09388  -0.01625   0.00000  -0.01215  -0.01293   2.08095
    A5        2.08688  -0.01091   0.00000   0.00808   0.00713   2.09401
    A6        2.10002   0.02705   0.00000   0.00000  -0.00000   2.10001
    A7        2.25094  -0.00459   0.00000   0.02511   0.02498   2.27592
    A8        2.03500   0.00321   0.00000  -0.00738  -0.00744   2.02756
    A9        1.99654   0.00140   0.00000  -0.01687  -0.01695   1.97959
   A10        2.25089  -0.00418   0.00000  -0.00606  -0.00605   2.24484
   A11        2.12154  -0.01421   0.00000  -0.08492  -0.08525   2.03630
   A12        1.87889   0.01871   0.00000   0.09665   0.09679   1.97568
   A13        1.84083  -0.00176   0.00000  -0.01607  -0.01580   1.82503
   A14        2.01423  -0.00164   0.00000  -0.01041  -0.01056   2.00367
   A15        1.94945   0.00244   0.00000  -0.00011  -0.00052   1.94894
   A16        1.85106   0.00290   0.00000   0.02222   0.02202   1.87309
   A17        1.85111   0.00053   0.00000   0.01530   0.01517   1.86628
   A18        1.94359  -0.00221   0.00000  -0.00743  -0.00709   1.93650
   A19        1.90917   0.00022   0.00000  -0.00519  -0.00539   1.90378
   A20        1.92482  -0.00074   0.00000  -0.01317  -0.01312   1.91169
   A21        1.92206  -0.00175   0.00000  -0.00736  -0.00733   1.91473
   A22        1.91953  -0.00045   0.00000   0.00572   0.00568   1.92521
   A23        1.90433   0.00307   0.00000   0.02483   0.02486   1.92919
   A24        1.88373  -0.00032   0.00000  -0.00433  -0.00461   1.87912
   A25        1.93948  -0.00043   0.00000   0.00603   0.00590   1.94538
   A26        1.91925  -0.00082   0.00000  -0.00682  -0.00683   1.91242
   A27        1.90516   0.00020   0.00000  -0.00282  -0.00289   1.90227
   A28        1.91643   0.00061   0.00000   0.00689   0.00694   1.92337
   A29        1.89850   0.00160   0.00000   0.01096   0.01100   1.90950
   A30        1.88402  -0.00116   0.00000  -0.01473  -0.01481   1.86921
   A31        1.94513   0.00076   0.00000   0.00656   0.00674   1.95188
   A32        1.90188   0.00058   0.00000   0.00393   0.00390   1.90578
   A33        1.91799   0.00030   0.00000   0.00609   0.00601   1.92400
   A34        1.90554  -0.00100   0.00000  -0.01342  -0.01349   1.89205
   A35        1.91556  -0.00061   0.00000  -0.00071  -0.00083   1.91474
   A36        1.87633  -0.00006   0.00000  -0.00290  -0.00292   1.87342
   A37        1.95189  -0.00358   0.00000  -0.01910  -0.01915   1.93274
   A38        1.90541   0.00274   0.00000   0.01663   0.01649   1.92191
   A39        1.90935   0.00152   0.00000   0.01381   0.01379   1.92314
   A40        1.90562   0.00045   0.00000  -0.00002   0.00012   1.90574
   A41        1.90963  -0.00000   0.00000  -0.00603  -0.00593   1.90370
   A42        1.88056  -0.00104   0.00000  -0.00480  -0.00498   1.87557
   A43        1.84850   0.00502   0.00000   0.02917   0.02918   1.87768
   A44        1.94805  -0.00534   0.00000  -0.03234  -0.03299   1.91506
   A45        1.96370   0.00127   0.00000  -0.01219  -0.01214   1.95156
   A46        1.87995   0.00226   0.00000   0.03226   0.03262   1.91257
   A47        1.89401  -0.00406   0.00000  -0.02084  -0.02063   1.87338
   A48        1.92539   0.00104   0.00000   0.00705   0.00672   1.93211
   A49        2.07239  -0.00458   0.00000  -0.00179  -0.00201   2.07037
   A50        2.28726  -0.01360   0.00000  -0.01369  -0.01375   2.27351
   A51        1.95581   0.01173   0.00000   0.03291   0.03291   1.98873
   A52        2.03843   0.00210   0.00000  -0.01856  -0.01855   2.01988
    D1       -3.07163  -0.00204   0.00000  -0.06272  -0.06271  -3.13434
    D2        0.14414  -0.00145   0.00000   0.00000   0.00000   0.14414
    D3        0.05922  -0.00022   0.00000  -0.02840  -0.02840   0.03082
    D4       -3.00820   0.00037   0.00000   0.03432   0.03431  -2.97389
    D5        3.10508  -0.00086   0.00000   0.01566   0.01503   3.12012
    D6        0.00632  -0.00150   0.00000  -0.00995  -0.01052  -0.00420
    D7       -0.11125  -0.00310   0.00000  -0.04719  -0.04759  -0.15884
    D8        3.07317  -0.00374   0.00000  -0.07280  -0.07315   3.00003
    D9       -2.58305  -0.00434   0.00000  -0.03902  -0.03982  -2.62287
   D10        0.49293   0.00038   0.00000  -0.02637  -0.02668   0.46625
   D11        0.63298  -0.00187   0.00000   0.02445   0.02413   0.65712
   D12       -2.57423   0.00285   0.00000   0.03709   0.03728  -2.53695
   D13       -0.23814  -0.00004   0.00000   0.03964   0.03986  -0.19828
   D14        2.60038   0.00434   0.00000   0.08035   0.07950   2.67987
   D15        2.86140   0.00064   0.00000   0.06495   0.06502   2.92642
   D16       -0.58327   0.00502   0.00000   0.10566   0.10465  -0.47862
   D17       -2.39248  -0.00069   0.00000  -0.03130  -0.03077  -2.42325
   D18        1.85402  -0.00220   0.00000  -0.04225  -0.04167   1.81235
   D19       -0.38926   0.00013   0.00000  -0.02237  -0.02205  -0.41131
   D20        1.01928  -0.00051   0.00000  -0.04439  -0.04499   0.97430
   D21       -1.01740  -0.00201   0.00000  -0.05535  -0.05589  -1.07329
   D22        3.02250   0.00032   0.00000  -0.03546  -0.03626   2.98624
   D23        2.95805   0.00199   0.00000   0.02695   0.02691   2.98496
   D24       -1.21186   0.00110   0.00000   0.02236   0.02232  -1.18954
   D25        0.86528  -0.00086   0.00000   0.00418   0.00422   0.86950
   D26        0.92716   0.00313   0.00000   0.03772   0.03772   0.96488
   D27        3.04043   0.00224   0.00000   0.03313   0.03314   3.07357
   D28       -1.16562   0.00028   0.00000   0.01494   0.01504  -1.15058
   D29       -1.07896   0.00196   0.00000   0.01076   0.01069  -1.06826
   D30        1.03432   0.00107   0.00000   0.00616   0.00610   1.04042
   D31        3.11146  -0.00088   0.00000  -0.01202  -0.01199   3.09946
   D32       -2.90732  -0.00090   0.00000  -0.01374  -0.01370  -2.92101
   D33       -0.86611   0.00198   0.00000   0.02516   0.02468  -0.84143
   D34        1.30936   0.00019   0.00000   0.00000   0.00001   1.30938
   D35       -0.91045  -0.00147   0.00000  -0.02416  -0.02410  -0.93455
   D36        1.13076   0.00141   0.00000   0.01473   0.01428   1.14504
   D37       -2.97695  -0.00038   0.00000  -0.01042  -0.01039  -2.98734
   D38        1.09563   0.00116   0.00000   0.00708   0.00714   1.10278
   D39        3.13684   0.00404   0.00000   0.04598   0.04552  -3.10082
   D40       -0.97087   0.00225   0.00000   0.02082   0.02085  -0.95002
   D41        0.95665   0.00073   0.00000   0.00000   0.00001   0.95666
   D42        3.08224   0.00066   0.00000   0.00809   0.00805   3.09029
   D43       -1.13717  -0.00112   0.00000  -0.01554  -0.01550  -1.15267
   D44       -1.15982   0.00179   0.00000   0.01601   0.01609  -1.14374
   D45        0.96576   0.00172   0.00000   0.02409   0.02413   0.98989
   D46        3.02954  -0.00006   0.00000   0.00047   0.00058   3.03011
   D47        3.06027   0.00062   0.00000   0.00305   0.00301   3.06328
   D48       -1.09732   0.00054   0.00000   0.01114   0.01105  -1.08628
   D49        0.96645  -0.00123   0.00000  -0.01248  -0.01250   0.95395
   D50       -0.92193  -0.00093   0.00000   0.00000   0.00001  -0.92192
   D51        1.18206  -0.00132   0.00000  -0.01000  -0.00999   1.17207
   D52       -3.04935  -0.00088   0.00000  -0.00768  -0.00772  -3.05707
   D53       -3.04916  -0.00003   0.00000  -0.00008  -0.00007  -3.04923
   D54       -0.94517  -0.00042   0.00000  -0.01008  -0.01006  -0.95523
   D55        1.10660   0.00003   0.00000  -0.00777  -0.00779   1.09881
   D56        1.17584   0.00008   0.00000   0.00730   0.00733   1.18318
   D57       -3.00335  -0.00031   0.00000  -0.00269  -0.00266  -3.00601
   D58       -0.95158   0.00014   0.00000  -0.00038  -0.00039  -0.95197
   D59        0.98202  -0.00073   0.00000  -0.01772  -0.01770   0.96433
   D60        3.09278  -0.00062   0.00000  -0.01884  -0.01896   3.07382
   D61       -1.13645   0.00059   0.00000  -0.00702  -0.00696  -1.14341
   D62       -1.11982  -0.00128   0.00000  -0.01793  -0.01788  -1.13770
   D63        0.99094  -0.00117   0.00000  -0.01904  -0.01915   0.97179
   D64        3.04489   0.00004   0.00000  -0.00722  -0.00714   3.03775
   D65        3.11085  -0.00026   0.00000  -0.00613  -0.00609   3.10476
   D66       -1.06158  -0.00015   0.00000  -0.00725  -0.00735  -1.06894
   D67        0.99237   0.00106   0.00000   0.00458   0.00465   0.99702
   D68       -1.04169  -0.00034   0.00000   0.00674   0.00682  -1.03487
   D69       -3.12819   0.00208   0.00000   0.01263   0.01215  -3.11604
   D70        1.07053   0.00182   0.00000  -0.00241  -0.00253   1.06800
   D71        3.13087  -0.00178   0.00000  -0.00180  -0.00159   3.12928
   D72        1.04436   0.00064   0.00000   0.00409   0.00374   1.04810
   D73       -1.04010   0.00038   0.00000  -0.01095  -0.01094  -1.05104
   D74        1.07663  -0.00079   0.00000   0.00749   0.00774   1.08437
   D75       -1.00988   0.00164   0.00000   0.01338   0.01307  -0.99681
   D76       -3.09434   0.00137   0.00000  -0.00165  -0.00161  -3.09595
   D77       -1.17216   0.00498   0.00000   0.00000   0.00001  -1.17215
   D78        3.07146   0.00063   0.00000  -0.01554  -0.01580   3.05566
   D79        1.01571  -0.00028   0.00000  -0.04624  -0.04674   0.96897
   D80       -0.00034   0.00765   0.00000   0.00463   0.00473   0.00439
   D81       -3.07380   0.00251   0.00000  -0.01005  -0.01017  -3.08397
         Item               Value     Threshold  Converged?
 Maximum Force            0.037125     0.000450     NO 
 RMS     Force            0.006857     0.000300     NO 
 Maximum Displacement     0.230191     0.001800     NO 
 RMS     Displacement     0.052860     0.001200     NO 
 Predicted change in Energy=-1.332129D-02
 GradGradGradGradGradGradGradGradGradGradGradGradGradGradGradGradGradGrad

                          Input orientation:                          
 ---------------------------------------------------------------------
 Center     Atomic      Atomic             Coordinates (Angstroms)
 Number     Number       Type             X           Y           Z
 ---------------------------------------------------------------------
      1          8           0       -3.520945   -1.456869   -0.219855
      2          7           0       -3.186939   -0.290839    0.034633
      3          8           0       -3.951318    0.653390    0.283260
      4          6           0       -1.760834   -0.017595    0.004171
      5          6           0       -1.317477    1.243390    0.282795
      6          7           0       -0.065364    1.735388    0.340526
      7          6           0        1.202036    1.007099    0.339103
      8          1           0        1.823637    1.530514    1.085183
      9          6           0        1.957324    1.040543   -0.984700
     10          6           0        3.352640    0.438869   -0.780903
     11          6           0        3.274037   -0.968646   -0.177490
     12          6           0        2.428013   -0.995000    1.096363
     13          6           0        1.028925   -0.423520    0.831298
     14          1           0        0.445375   -0.427196    1.765872
     15          7           0        0.398755   -1.267746   -0.171712
     16          6           0       -0.829070   -1.038475   -0.488512
     17          1           0       -2.084603    1.982965    0.512121
     18          1           0        0.043352    2.727517    0.155300
     19          1           0        1.403123    0.469071   -1.737052
     20          1           0        2.032887    2.076793   -1.342053
     21          1           0        3.883828    0.410723   -1.739004
     22          1           0        3.929369    1.091860   -0.110709
     23          1           0        2.821451   -1.648692   -0.907461
     24          1           0        4.280924   -1.345133    0.039461
     25          1           0        2.333473   -2.022788    1.464874
     26          1           0        2.913017   -0.405140    1.885752
     27          1           0       -1.272638   -1.735485   -1.205260
 ---------------------------------------------------------------------
                    Distance matrix (angstroms):
                    1          2          3          4          5
     1  O    0.000000
     2  N    1.239335   0.000000
     3  O    2.211682   1.240024   0.000000
     4  C    2.284664   1.452365   2.307885   0.000000
     5  C    3.521268   2.431117   2.699114   1.365387   0.000000
     6  N    4.737676   3.734085   4.034184   2.461850   1.346544
     7  C    5.356317   4.586987   5.165781   3.152900   2.531196
     8  H    6.260363   5.433862   5.895977   4.051378   3.254669
     9  C    6.069060   5.410643   6.055548   3.990266   3.517388
    10  C    7.152257   6.630510   7.384191   5.193488   4.856821
    11  C    6.812631   6.499894   7.419505   5.127126   5.117320
    12  C    6.110308   5.757673   6.638840   4.437865   4.438579
    13  C    4.782683   4.292527   5.124734   2.937970   2.930025
    14  H    4.553574   4.026101   4.764107   2.852844   2.845702
    15  N    3.924555   3.722113   4.777122   2.501526   3.075359
    16  C    2.737411   2.528277   3.634071   1.467349   2.457715
    17  H    3.798859   2.571638   2.303209   2.089278   1.089974
    18  H    5.509450   4.422647   4.502862   3.288399   2.017608
    19  H    5.500689   4.978454   5.725878   3.644081   3.475776
    20  H    6.677661   5.894703   6.362266   4.537742   3.815709
    21  H    7.786294   7.323505   8.095551   5.923202   5.642214
    22  H    7.874968   7.250850   7.902702   5.798491   5.263763
    23  H    6.382444   6.231537   7.251745   4.948624   5.187637
    24  H    7.806977   7.541918   8.474865   6.185987   6.172662
    25  H    6.118234   5.959881   6.932297   4.787254   5.039312
    26  H    6.850955   6.375670   7.127943   5.053258   4.814998
    27  H    2.470533   2.699793   3.885581   2.156897   3.330168
                    6          7          8          9         10
     6  N    0.000000
     7  C    1.461750   0.000000
     8  H    2.040788   1.103172   0.000000
     9  C    2.516010   1.524478   2.131282   0.000000
    10  C    3.823784   2.490461   2.647984   1.533118   0.000000
    11  C    4.328018   2.909230   3.153380   2.534198   1.533422
    12  C    3.774022   2.466752   2.596848   2.948866   2.536739
    13  C    2.469658   1.522791   2.124682   2.510629   2.956782
    14  H    2.639931   2.159955   2.489090   3.464952   3.960849
    15  N    3.081657   2.465992   3.382357   2.901429   3.465414
    16  C    2.994139   2.999118   4.014110   3.511768   4.444631
    17  H    2.041584   3.432820   3.975859   4.412008   5.798255
    18  H    1.015109   2.082347   2.338143   2.794418   4.131074
    19  H    2.841892   2.154143   3.044423   1.095332   2.171578
    20  H    2.711142   2.158899   2.496735   1.098738   2.177024
    21  H    4.655674   3.444735   3.670742   2.162652   1.095860
    22  H    4.071319   2.765476   2.461033   2.157650   1.099170
    23  H    4.619867   3.351067   3.882475   2.825715   2.157798
    24  H    5.335773   3.886171   3.924428   3.484174   2.171951
    25  H    4.598094   3.424576   3.609716   3.940291   3.484533
    26  H    3.979993   2.704440   2.361020   3.353035   2.831373
    27  H    3.986719   4.003853   5.049733   4.264696   5.128459
                   11         12         13         14         15
    11  C    0.000000
    12  C    1.529429   0.000000
    13  C    2.520981   1.534372   0.000000
    14  H    3.474356   2.168294   1.101804   0.000000
    15  N    2.890803   2.408381   1.454601   2.112565   0.000000
    16  C    4.115471   3.622473   2.360554   2.660849   1.288597
    17  H    6.156508   5.438136   3.948051   3.712352   4.147508
    18  H    4.920334   4.519883   3.370068   3.564796   4.024348
    19  H    2.828354   3.349947   2.744662   3.740462   2.544716
    20  H    3.488748   3.941816   3.461642   4.295271   3.902055
    21  H    2.170905   3.483498   3.931016   4.980885   4.173656
    22  H    2.163240   2.840085   3.405339   4.238786   4.246964
    23  H    1.095516   2.144159   2.781633   3.779484   2.560450
    24  H    1.096645   2.161692   3.471581   4.305176   3.888679
    25  H    2.166387   1.095940   2.158917   2.490267   2.644170
    26  H    2.169065   1.098316   2.159170   2.470651   3.361364
    27  H    4.724046   4.420476   3.341559   3.672985   2.020038
                   16         17         18         19         20
    16  C    0.000000
    17  H    3.421510   0.000000
    18  H    3.918967   2.282514   0.000000
    19  H    2.968878   4.417566   3.245081   0.000000
    20  H    4.315580   4.516690   2.573666   1.771270   0.000000
    21  H    5.086779   6.569755   4.868796   2.481392   2.521774
    22  H    5.227218   6.111452   4.224602   3.068351   2.466363
    23  H    3.724807   6.266858   5.291360   2.680447   3.832746
    24  H    5.146342   7.198582   5.878512   3.837847   4.321091
    25  H    3.845292   6.039304   5.433694   4.162600   4.977525
    26  H    4.476769   5.706673   4.587263   4.021037   4.165735
    27  H    1.093757   4.175591   4.847818   3.507502   5.047641
                   21         22         23         24         25
    21  H    0.000000
    22  H    1.765606   0.000000
    23  H    2.461971   3.061523   0.000000
    24  H    2.530544   2.466795   1.766032   0.000000
    25  H    4.311659   3.838017   2.450723   2.506708   0.000000
    26  H    3.840177   2.694409   3.058896   2.482649   1.769122
    27  H    5.610725   6.021030   4.105823   5.704713   4.496243
                   26         27
    26  H    0.000000
    27  H    5.370651   0.000000
 Symmetry turned off by external request.
 Stoichiometry    C9H13N3O2
 Framework group  C1[X(C9H13N3O2)]
 Deg. of freedom    75
 Full point group                 C1      NOp   1
 Rotational constants (GHZ):           1.7210400           0.4125518           0.3672392
 Standard basis: 6-31G(d) (6D, 7F)
   236 basis functions,   444 primitive gaussians,   236 cartesian basis functions
    52 alpha electrons       52 beta electrons
       nuclear repulsion energy       930.3554330384 Hartrees.
 NAtoms=   27 NActive=   27 NUniq=   27 SFac= 1.00D+00 NAtFMM=   60 NAOKFM=F Big=F
 Integral buffers will be    131072 words long.
 Raffenetti 1 integral format.
 Two-electron integral symmetry is turned off.
 One-electron integrals computed using PRISM.
 NBasis=   236 RedAO= T EigKep=  1.11D-03  NBF=   236
 NBsUse=   236 1.00D-06 EigRej= -1.00D+00 NBFU=   236
 Initial guess from the checkpoint file:  "/home/alexey/tmp/Gau-1372211.chk"
 B after Tr=     0.047648    0.007186   -0.002428
         Rot=    0.999997   -0.001556    0.001392    0.001371 Ang=  -0.29 deg.
 ExpMin= 1.61D-01 ExpMax= 5.48D+03 ExpMxC= 8.25D+02 IAcc=3 IRadAn=         5 AccDes= 0.00D+00
 Harris functional with IExCor=  205 and IRadAn=       5 diagonalized for initial guess.
 HarFok:  IExCor=  205 AccDes= 0.00D+00 IRadAn=         5 IDoV= 1 UseB2=F ITyADJ=14
 ICtDFT=  3500011 ScaDFX=  1.000000  1.000000  1.000000  1.000000
 FoFCou: FMM=F IPFlag=           0 FMFlag=      100000 FMFlg1=           0
         NFxFlg=           0 DoJE=T BraDBF=F KetDBF=T FulRan=T
         wScrn=  0.000000 ICntrl=       500 IOpCl=  0 I1Cent=   200000004 NGrid=           0
         NMat0=    1 NMatS0=      1 NMatT0=    0 NMatD0=    1 NMtDS0=    0 NMtDT0=    0
 Symmetry not used in FoFCou.
 Keep R1 ints in memory in canonical form, NReq=397720213.
 Requested convergence on RMS density matrix=1.00D-08 within 128 cycles.
 Requested convergence on MAX density matrix=1.00D-06.
 Requested convergence on             energy=1.00D-06.
 No special actions if energy rises.
 SCF Done:  E(RHF) =  -661.293479404     A.U. after   15 cycles
            NFock= 15  Conv=0.47D-08     -V/T= 2.0025
 ExpMin= 1.61D-01 ExpMax= 5.48D+03 ExpMxC= 8.25D+02 IAcc=3 IRadAn=         5 AccDes= 0.00D+00
 HarFok:  IExCor=  205 AccDes= 0.00D+00 IRadAn=         5 IDoV=-2 UseB2=F ITyADJ=14
 ICtDFT= 12500011 ScaDFX=  1.000000  1.000000  1.000000  1.000000
 Range of M.O.s used for correlation:    15   236
 NBasis=   236 NAE=    52 NBE=    52 NFC=    14 NFV=     0
 NROrb=    222 NOA=    38 NOB=    38 NVA=   184 NVB=   184
 Fully direct method using O(ONN) memory.
 JobTyp=1 Pass  1:  I=  15 to  52 NPSUse=  4 ParTrn=T ParDer=T DoDerP=T.
 Spin components of T(2) and E(2):
     alpha-alpha T2 =       0.9123836873D-01 E2=     -0.2723173448D+00
     alpha-beta  T2 =       0.4918129641D+00 E2=     -0.1488586104D+01
     beta-beta   T2 =       0.9123836873D-01 E2=     -0.2723173448D+00
 ANorm=    0.1293943469D+01
 E2 =    -0.2033220794D+01 EUMP2 =    -0.66332670019750D+03
          IDoAtm=111111111111111111111111111
          Differentiating once with respect to electric field.
                with respect to dipole field.
          Differentiating once with respect to nuclear coordinates.
 Keep R1 ints in memory in canonical form, NReq=397723379.
          There are     1 degrees of freedom in the 1st order CPHF.  IDoFFX=0 NUNeed=     1.
[...]
    26  H    2.175826   1.098853   2.163554   2.493617   3.363336
    27  H    4.695239   4.412810   3.352844   3.680673   2.019250
                   16         17         18         19         20
    16  C    0.000000
    17  H    3.413719   0.000000
    18  H    4.005033   2.201298   0.000000
    19  H    2.954051   4.313655   3.475039   0.000000
    20  H    4.326694   4.454162   2.851175   1.768569   0.000000
    21  H    5.073093   6.512784   5.066342   2.498643   2.521529
    22  H    5.220775   6.090523   4.310710   3.070089   2.459142
    23  H    3.704754   6.234976   5.406549   2.708796   3.844566
    24  H    5.137936   7.191419   5.933269   3.852748   4.316543
    25  H    3.837421   6.070369   5.377662   4.174327   4.986551
    26  H    4.496265   5.770477   4.516177   4.048678   4.193644
    27  H    1.091882   4.167726   4.977784   3.493062   5.056527
                   21         22         23         24         25
    21  H    0.000000
    22  H    1.758729   0.000000
    23  H    2.467779   3.061449   0.000000
    24  H    2.516544   2.458762   1.764543   0.000000
    25  H    4.312451   3.843484   2.442026   2.522508   0.000000
    26  H    3.852047   2.712525   3.060448   2.486838   1.767382
    27  H    5.583041   6.001450   4.066661   5.675694   4.470145
                   26         27
    26  H    0.000000
    27  H    5.373963   0.000000
 Symmetry turned off by external request.
 Stoichiometry    C9H13N3O2
 Framework group  C1[X(C9H13N3O2)]
 Deg. of freedom    75
 Full point group                 C1      NOp   1
 Rotational constants (GHZ):           1.7083001           0.4117807           0.3687187

 **********************************************************************

            Population analysis using the SCF Density.

 **********************************************************************

 Alpha  occ. eigenvalues --  -20.59295 -20.58980 -15.84957 -15.64418 -15.56157
 Alpha  occ. eigenvalues --  -11.35194 -11.29611 -11.29610 -11.28636 -11.27090
 Alpha  occ. eigenvalues --  -11.23772 -11.23262 -11.22748 -11.22139  -1.57225
 Alpha  occ. eigenvalues --   -1.36815  -1.31263  -1.23133  -1.14821  -1.09944
 Alpha  occ. eigenvalues --   -1.02890  -1.01515  -0.94506  -0.89997  -0.85763
 Alpha  occ. eigenvalues --   -0.82309  -0.78612  -0.77409  -0.75067  -0.72489
 Alpha  occ. eigenvalues --   -0.69811  -0.69636  -0.67969  -0.64918  -0.63754
 Alpha  occ. eigenvalues --   -0.62323  -0.59763  -0.57798  -0.57038  -0.54956
 Alpha  occ. eigenvalues --   -0.54588  -0.50888  -0.50046  -0.48734  -0.48060
 Alpha  occ. eigenvalues --   -0.47443  -0.46263  -0.46135  -0.43717  -0.41692
 Alpha  occ. eigenvalues --   -0.39847  -0.33977
 Alpha virt. eigenvalues --    0.07362   0.12071   0.17273   0.21826   0.23827
 Alpha virt. eigenvalues --    0.25291   0.27142   0.28409   0.29040   0.29678
 Alpha virt. eigenvalues --    0.30774   0.31852   0.32051   0.32720   0.33804
 Alpha virt. eigenvalues --    0.34299   0.35928   0.37077   0.38625   0.40022
 Alpha virt. eigenvalues --    0.41356   0.42625   0.44766   0.45866   0.46472
 Alpha virt. eigenvalues --    0.47338   0.48641   0.53469   0.57229   0.59439
 Alpha virt. eigenvalues --    0.63981   0.69655   0.70559   0.72753   0.74176
 Alpha virt. eigenvalues --    0.75696   0.75944   0.76870   0.79021   0.79194
 Alpha virt. eigenvalues --    0.80623   0.84600   0.85483   0.86284   0.88072
 Alpha virt. eigenvalues --    0.89287   0.90628   0.92057   0.92600   0.94215
 Alpha virt. eigenvalues --    0.95919   0.98124   0.98791   1.01396   1.02179
 Alpha virt. eigenvalues --    1.03048   1.05810   1.06794   1.07158   1.08757
 Alpha virt. eigenvalues --    1.09777   1.11715   1.12021   1.12236   1.13868
 Alpha virt. eigenvalues --    1.14614   1.14818   1.15969   1.16645   1.18527
 Alpha virt. eigenvalues --    1.19227   1.21126   1.21734   1.23261   1.24158
 Alpha virt. eigenvalues --    1.25022   1.26227   1.26844   1.28048   1.29705
 Alpha virt. eigenvalues --    1.30192   1.32313   1.35091   1.36207   1.39712
 Alpha virt. eigenvalues --    1.41058   1.43283   1.48453   1.51381   1.53533
 Alpha virt. eigenvalues --    1.57070   1.59025   1.59745   1.62872   1.67420
 Alpha virt. eigenvalues --    1.68864   1.70612   1.71917   1.74265   1.77373
 Alpha virt. eigenvalues --    1.80803   1.83745   1.87279   1.91326   1.94571
 Alpha virt. eigenvalues --    1.96103   1.97035   1.99073   2.00785   2.03405
 Alpha virt. eigenvalues --    2.03897   2.06941   2.08746   2.09798   2.12519
 Alpha virt. eigenvalues --    2.13137   2.15335   2.19087   2.20194   2.22431
 Alpha virt. eigenvalues --    2.22776   2.24710   2.26207   2.27982   2.29641
 Alpha virt. eigenvalues --    2.30786   2.34011   2.34873   2.35770   2.38876
 Alpha virt. eigenvalues --    2.39374   2.41413   2.42580   2.43732   2.47289
 Alpha virt. eigenvalues --    2.50577   2.51646   2.53421   2.54853   2.62024
 Alpha virt. eigenvalues --    2.63426   2.65179   2.66892   2.70399   2.70622
 Alpha virt. eigenvalues --    2.72115   2.73838   2.75690   2.78840   2.85422
 Alpha virt. eigenvalues --    2.88190   2.89259   2.92666   2.94066   2.96854
 Alpha virt. eigenvalues --    2.98787   3.01970   3.03769   3.05046   3.07835
 Alpha virt. eigenvalues --    3.09362   3.15561   3.21117   3.25086   3.27253
 Alpha virt. eigenvalues --    3.34374   3.38013   3.40259   3.53789   3.62884
 Alpha virt. eigenvalues --    4.13552   4.29431   4.30894   4.38199   4.47365
 Alpha virt. eigenvalues --    4.57173   4.62264   4.63090   4.73274   4.80662
 Alpha virt. eigenvalues --    4.98215   5.00786   5.03762   5.11728
          Condensed to atoms (all electrons):
               1          2          3          4          5          6
     1  O    8.310623   0.308126  -0.079552  -0.085898   0.004295  -0.000014
     2  N    0.308126   5.738521   0.298292   0.251897  -0.045122   0.001094
     3  O   -0.079552   0.298292   8.348375  -0.091319   0.003223   0.000689
     4  C   -0.085898   0.251897  -0.091319   5.248498   0.535851  -0.043654
     5  C    0.004295  -0.045122   0.003223   0.535851   4.714605   0.321911
     6  N   -0.000014   0.001094   0.000689  -0.043654   0.321911   7.196374
     7  C    0.000003  -0.000089   0.000003   0.005540  -0.029798   0.165976
     8  H   -0.000000   0.000001  -0.000000  -0.000381   0.003469  -0.051401
     9  C   -0.000000  -0.000002  -0.000000   0.001142   0.000013  -0.059679
    10  C    0.000000   0.000000   0.000000  -0.000047  -0.000029   0.003726
    11  C   -0.000000  -0.000000  -0.000000  -0.000008   0.000015  -0.000183
    12  C   -0.000000   0.000002  -0.000000  -0.000193  -0.000097   0.003831
    13  C   -0.000019  -0.000044  -0.000003  -0.010921  -0.000931  -0.049580
    14  H   -0.000003  -0.000113   0.000001   0.003246   0.005443  -0.007233
    15  N    0.000347   0.002030  -0.000013  -0.062584  -0.002928   0.000353
    16  C    0.001639  -0.027188   0.002663   0.318612  -0.052918  -0.005490
    17  H    0.000201  -0.007067   0.016322  -0.026579   0.378394  -0.037875
    18  H    0.000001  -0.000042   0.000009   0.001460  -0.032518   0.339504
    19  H    0.000001  -0.000005   0.000000  -0.001186   0.001235  -0.000247
    20  H    0.000000  -0.000000   0.000000  -0.000054   0.000095  -0.000533
    21  H   -0.000000   0.000000  -0.000000   0.000001   0.000001  -0.000076
    22  H   -0.000000   0.000000  -0.000000  -0.000000  -0.000003  -0.000114
    23  H    0.000000  -0.000000   0.000000   0.000035  -0.000003  -0.000030
    24  H    0.000000   0.000000   0.000000   0.000000  -0.000000   0.000006
    25  H    0.000000  -0.000000   0.000000   0.000019  -0.000000  -0.000093
    26  H    0.000000  -0.000000   0.000000   0.000008  -0.000006  -0.000061
    27  H    0.006562  -0.000457   0.000029  -0.067256   0.002728   0.000055
               7          8          9         10         11         12
     1  O    0.000003  -0.000000  -0.000000   0.000000  -0.000000  -0.000000
     2  N   -0.000089   0.000001  -0.000002   0.000000  -0.000000   0.000002
     3  O    0.000003  -0.000000  -0.000000   0.000000  -0.000000  -0.000000
     4  C    0.005540  -0.000381   0.001142  -0.000047  -0.000008  -0.000193
     5  C   -0.029798   0.003469   0.000013  -0.000029   0.000015  -0.000097
     6  N    0.165976  -0.051401  -0.059679   0.003726  -0.000183   0.003831
     7  C    5.014917   0.418832   0.351222  -0.055066  -0.009126  -0.060964
     8  H    0.418832   0.539626  -0.055993   0.001007  -0.000364  -0.001716
     9  C    0.351222  -0.055993   5.159024   0.324323  -0.050068  -0.005721
    10  C   -0.055066   0.001007   0.324323   5.119226   0.337291  -0.060358
    11  C   -0.009126  -0.000364  -0.050068   0.337291   5.118198   0.335676
    12  C   -0.060964  -0.001716  -0.005721  -0.060358   0.335676   5.117095
    13  C    0.343226  -0.039215  -0.058559  -0.000396  -0.050319   0.371866
    14  H   -0.045816  -0.000861   0.004422  -0.000415   0.004187  -0.036460
    15  N   -0.058853   0.004198  -0.016530   0.001437  -0.012405  -0.081660
    16  C   -0.002944   0.000163  -0.002267   0.000014  -0.000033   0.002763
    17  H    0.001809  -0.000030  -0.000093   0.000001   0.000000   0.000001
    18  H   -0.021443  -0.004313   0.001150  -0.000082   0.000004  -0.000115
    19  H   -0.036595   0.004358   0.390038  -0.031428  -0.002200   0.000740
    20  H   -0.042995  -0.002319   0.399545  -0.035453   0.003948  -0.000421
    21  H    0.004615  -0.000082  -0.036265   0.402433  -0.034823   0.004314
    22  H   -0.004711   0.003553  -0.047050   0.397860  -0.045612  -0.000890
    23  H    0.000577   0.000030  -0.001929  -0.038956   0.399044  -0.037478
    24  H   -0.000131  -0.000100   0.004392  -0.038533   0.402424  -0.038826
    25  H    0.005136  -0.000035  -0.000408   0.004155  -0.033522   0.398166
    26  H   -0.003794   0.001712   0.000942  -0.002103  -0.041513   0.397077
    27  H   -0.000474   0.000011  -0.000082   0.000010   0.000010  -0.000025
              13         14         15         16         17         18
     1  O   -0.000019  -0.000003   0.000347   0.001639   0.000201   0.000001
     2  N   -0.000044  -0.000113   0.002030  -0.027188  -0.007067  -0.000042
     3  O   -0.000003   0.000001  -0.000013   0.002663   0.016322   0.000009
     4  C   -0.010921   0.003246  -0.062584   0.318612  -0.026579   0.001460
     5  C   -0.000931   0.005443  -0.002928  -0.052918   0.378394  -0.032518
     6  N   -0.049580  -0.007233   0.000353  -0.005490  -0.037875   0.339504
     7  C    0.343226  -0.045816  -0.058853  -0.002944   0.001809  -0.021443
     8  H   -0.039215  -0.000861   0.004198   0.000163  -0.000030  -0.004313
     9  C   -0.058559   0.004422  -0.016530  -0.002267  -0.000093   0.001150
    10  C   -0.000396  -0.000415   0.001437   0.000014   0.000001  -0.000082
    11  C   -0.050319   0.004187  -0.012405  -0.000033   0.000000   0.000004
    12  C    0.371866  -0.036460  -0.081660   0.002763   0.000001  -0.000115
    13  C    5.040809   0.402236   0.240215  -0.071544  -0.000029   0.003267
    14  H    0.402236   0.525936  -0.037204  -0.003502   0.000114  -0.000101
    15  N    0.240215  -0.037204   6.964662   0.586937  -0.000062  -0.000143
    16  C   -0.071544  -0.003502   0.586937   4.734759   0.003104  -0.000254
    17  H   -0.000029   0.000114  -0.000062   0.003104   0.394191  -0.003519
    18  H    0.003267  -0.000101  -0.000143  -0.000254  -0.003519   0.309539
    19  H   -0.007443   0.000091   0.007767   0.003299   0.000018  -0.000150
    20  H    0.004348  -0.000061   0.000152  -0.000038   0.000002   0.000986
    21  H   -0.000418   0.000010  -0.000043   0.000003  -0.000000   0.000001
    22  H   -0.000028  -0.000058   0.000018  -0.000002   0.000000   0.000001
    23  H   -0.007374  -0.000004   0.008343   0.000073   0.000000   0.000000
    24  H    0.004684  -0.000054   0.000152   0.000008   0.000000  -0.000000
    25  H   -0.035473  -0.002737   0.000121  -0.000027  -0.000000   0.000002
    26  H   -0.047461  -0.001061   0.004877  -0.000070   0.000000  -0.000001
    27  H    0.005459  -0.000220  -0.042764   0.404759  -0.000093   0.000002
              19         20         21         22         23         24
     1  O    0.000001   0.000000  -0.000000  -0.000000   0.000000   0.000000
     2  N   -0.000005  -0.000000   0.000000   0.000000  -0.000000   0.000000
     3  O    0.000000   0.000000  -0.000000  -0.000000   0.000000   0.000000
     4  C   -0.001186  -0.000054   0.000001  -0.000000   0.000035   0.000000
     5  C    0.001235   0.000095   0.000001  -0.000003  -0.000003  -0.000000
     6  N   -0.000247  -0.000533  -0.000076  -0.000114  -0.000030   0.000006
     7  C   -0.036595  -0.042995   0.004615  -0.004711   0.000577  -0.000131
     8  H    0.004358  -0.002319  -0.000082   0.003553   0.000030  -0.000100
     9  C    0.390038   0.399545  -0.036265  -0.047050  -0.001929   0.004392
    10  C   -0.031428  -0.035453   0.402433   0.397860  -0.038956  -0.038533
    11  C   -0.002200   0.003948  -0.034823  -0.045612   0.399044   0.402424
    12  C    0.000740  -0.000421   0.004314  -0.000890  -0.037478  -0.038826
    13  C   -0.007443   0.004348  -0.000418  -0.000028  -0.007374   0.004684
    14  H    0.000091  -0.000061   0.000010  -0.000058  -0.000004  -0.000054
    15  N    0.007767   0.000152  -0.000043   0.000018   0.008343   0.000152
    16  C    0.003299  -0.000038   0.000003  -0.000002   0.000073   0.000008
    17  H    0.000018   0.000002  -0.000000   0.000000   0.000000   0.000000
    18  H   -0.000150   0.000986   0.000001   0.000001   0.000000  -0.000000
    19  H    0.502057  -0.024922  -0.002817   0.003937   0.001476  -0.000066
    20  H   -0.024922   0.543855  -0.002652  -0.003055  -0.000045  -0.000083
    21  H   -0.002817  -0.002652   0.523490  -0.027389  -0.002905  -0.002221
    22  H    0.003937  -0.003055  -0.027389   0.571286   0.004151  -0.003695
    23  H    0.001476  -0.000045  -0.002905   0.004151   0.499291  -0.025579
    24  H   -0.000066  -0.000083  -0.002221  -0.003695  -0.025579   0.538427
    25  H   -0.000028   0.000012  -0.000086  -0.000079  -0.002381  -0.002221
    26  H    0.000019  -0.000030  -0.000082   0.002363   0.004057  -0.003128
    27  H    0.000100  -0.000000  -0.000000   0.000000  -0.000040  -0.000000
              25         26         27
     1  O    0.000000   0.000000   0.006562
     2  N   -0.000000  -0.000000  -0.000457
     3  O    0.000000   0.000000   0.000029
     4  C    0.000019   0.000008  -0.067256
     5  C   -0.000000  -0.000006   0.002728
     6  N   -0.000093  -0.000061   0.000055
     7  C    0.005136  -0.003794  -0.000474
     8  H   -0.000035   0.001712   0.000011
     9  C   -0.000408   0.000942  -0.000082
    10  C    0.004155  -0.002103   0.000010
    11  C   -0.033522  -0.041513   0.000010
    12  C    0.398166   0.397077  -0.000025
    13  C   -0.035473  -0.047461   0.005459
    14  H   -0.002737  -0.001061  -0.000220
    15  N    0.000121   0.004877  -0.042764
    16  C   -0.000027  -0.000070   0.404759
    17  H   -0.000000   0.000000  -0.000093
    18  H    0.000002  -0.000001   0.000002
    19  H   -0.000028   0.000019   0.000100
    20  H    0.000012  -0.000030  -0.000000
    21  H   -0.000086  -0.000082  -0.000000
    22  H   -0.000079   0.002363   0.000000
    23  H   -0.002381   0.004057  -0.000040
    24  H   -0.002221  -0.003128  -0.000000
    25  H    0.507385  -0.024152  -0.000012
    26  H   -0.024152   0.561395   0.000001
    27  H   -0.000012   0.000001   0.450318
 Mulliken charges:
               1
     1  O   -0.466311
     2  N    0.480167
     3  O   -0.498719
     4  C    0.023769
     5  C    0.193075
     6  N   -0.777256
     7  C    0.060945
     8  H    0.179849
     9  C   -0.301565
    10  C   -0.328616
    11  C   -0.320619
    12  C   -0.306608
    13  C   -0.036352
    14  H    0.190216
    15  N   -0.506420
    16  C    0.107482
    17  H    0.281189
    18  H    0.406756
    19  H    0.191951
    20  H    0.159718
    21  H    0.174993
    22  H    0.149519
    23  H    0.199644
    24  H    0.164545
    25  H    0.186256
    26  H    0.151010
    27  H    0.241380
 Sum of Mulliken charges =  -0.00000
 Mulliken charges with hydrogens summed into heavy atoms:
               1
     1  O   -0.466311
     2  N    0.480167
     3  O   -0.498719
     4  C    0.023769
     5  C    0.474264
     6  N   -0.370500
     7  C    0.240794
     9  C    0.050104
    10  C   -0.004104
    11  C    0.043570
    12  C    0.030659
    13  C    0.153864
    15  N   -0.506420
    16  C    0.348862
 Electronic spatial extent (au):  <R**2>=           3033.3998
 Charge=             -0.0000 electrons
 Dipole moment (field-independent basis, Debye):
    X=              5.5478    Y=              4.8394    Z=              1.0832  Tot=              7.4412
 Quadrupole moment (field-independent basis, Debye-Ang):
   XX=           -106.6500   YY=            -79.0465   ZZ=            -81.8886
   XY=             -2.0150   XZ=              0.2631   YZ=              0.8751
 Traceless Quadrupole moment (field-independent basis, Debye-Ang):
   XX=            -17.4550   YY=             10.1485   ZZ=              7.3065
   XY=             -2.0150   XZ=              0.2631   YZ=              0.8751
 Octapole moment (field-independent basis, Debye-Ang**2):
  XXX=             97.6614  YYY=             36.7915  ZZZ=             -3.4542  XYY=             -3.5986
  XXY=              9.9825  XXZ=              2.9576  XZZ=             -8.1313  YZZ=             -0.5233
  YYZ=              6.7794  XYZ=              2.1780
 Hexadecapole moment (field-independent basis, Debye-Ang**3):
 XXXX=          -3444.7304 YYYY=           -583.2777 ZZZZ=           -309.5963 XXXY=            -25.0619
 XXXZ=             -2.2296 YYYX=            -12.7581 YYYZ=             18.0729 ZZZX=              7.3848
 ZZZY=              4.2669 XXYY=           -632.3758 XXZZ=           -535.6344 YYZZ=           -156.8606
 XXYZ=            -12.1654 YYXZ=              2.6344 ZZXY=              3.1343
 N-N= 9.300889403431D+02 E-N=-3.406819802913D+03  KE= 6.596277685397D+02
 Unable to Open any file for archive entry.
 1\1\GINC-LOTUS\FOpt\RMP2-FC\6-31G(d)\C9H13N3O2\ALEXEY\01-Jul-2023\0\\#
 MP2/6-31G* SCF=Tight Opt=(ModRedun, MaxCycle=20 ) NoSymm\\MolName:\\0,
 1\O,-3.546053891,-1.3773354002,-0.4618676488\N,-3.16929001,-0.25002629
 34,-0.086577142\O,-3.9426745802,0.6866651527,0.1925639481\C,-1.7505534
 356,-0.050127125,0.0549487883\C,-1.3034201098,1.2320790806,0.278846715
 5\N,-0.0596959355,1.7239655876,0.3728753081\C,1.2127722249,1.021340153
 6,0.3467088699\H,1.8541116272,1.5685375603,1.055339536\C,1.9216007086,
 1.0246954479,-1.0054698677\C,3.3192921977,0.4198449485,-0.8273029699\C
 ,3.2696179917,-0.9721239946,-0.1907575436\C,2.4666077056,-0.9775317202
 ,1.1124773699\C,1.0630211724,-0.4129780876,0.8735417846\H,0.4838028447
 ,-0.3822298845,1.810439262\N,0.4130013804,-1.2779678032,-0.1017960016\
 C,-0.8273207948,-1.0826177761,-0.4100668021\H,-2.0794547893,1.98283246
 64,0.419784393\H,-0.0094924098,2.7236590357,0.5299858908\H,1.333395514
 9,0.4446147833,-1.7235678653\H,1.9913352982,2.0513191224,-1.3867422307
 \H,3.8300204589,0.3750449719,-1.795948804\H,3.9143272223,1.0912400638,
 -0.1918648007\H,2.7988402726,-1.673975618,-0.8859397065\H,4.2885099259
 ,-1.3316337029,-0.0042937598\H,2.3742388376,-1.9988675933,1.4968424456
 \H,2.9763610317,-0.3827290244,1.8830872818\H,-1.2599204591,-1.81069435
 14,-1.0992464507\\Version=ES64L-G16RevC.02\HF=-661.2969576\MP2=-663.33
 14992\RMSD=4.774e-09\RMSF=4.755e-03\Dipole=2.0238121,1.6986053,0.40831
 86\PG=C01 [X(C9H13N3O2)]\\@
 The archive entry for this job was punched.


 THE LENGTH OF A MEETING IS PROPORTIONAL TO THE
 SQUARE OF THE PARTICIPANTS.
 Job cpu time:       0 days  1 hours 24 minutes 11.6 seconds.
 Elapsed time:       0 days  0 hours 25 minutes 18.2 seconds.
 File lengths (MBytes):  RWF=     36 Int=      0 D2E=      0 Chk=      7 Scr=      1
 Normal termination of Gaussian 16 at Sat Jul  1 19:31:41 2023.
