 Entering Gaussian System, Link 0=g16
 Initial command:
 /home/alexey/programs//g16/l1.exe "/home/alexey/tmp/Gau-1369715.inp" -scrdir="/home/alexey/tmp/"
 Entering Link 1 = /home/alexey/programs//g16/l1.exe PID=   1369717.
  
 Copyright (c) 1988-2021, Gaussian, Inc.  All Rights Reserved.
  
 This is part of the Gaussian(R) 16 program.  It is based on
 the Gaussian(R) 09 system (copyright 2009, Gaussian, Inc.),
 the Gaussian(R) 03 system (copyright 2003, Gaussian, Inc.),
 the Gaussian(R) 98 system (copyright 1998, Gaussian, Inc.),
 the Gaussian(R) 94 system (copyright 1995, Gaussian, Inc.),
 the Gaussian 92(TM) system (copyright 1992, Gaussian, Inc.),
 the Gaussian 90(TM) system (copyright 1990, Gaussian, Inc.),
 the Gaussian 88(TM) system (copyright 1988, Gaussian, Inc.),
 the Gaussian 86(TM) system (copyright 1986, Carnegie Mellon
 University), and the Gaussian 82(TM) system (copyright 1983,
 Carnegie Mellon University). Gaussian is a federally registered
 trademark of Gaussian, Inc.
  
 This software contains proprietary and confidential information,
 including trade secrets, belonging to Gaussian, Inc.
  
 This software is provided under written license and may be
 used, copied, transmitted, or stored only in accord with that
 written license.
  
 The following legend is applicable only to US Government
 contracts under FAR:
  
                    RESTRICTED RIGHTS LEGEND
  
 Use, reproduction and disclosure by the US Government is
 subject to restrictions as set forth in subparagraphs (a)
 and (c) of the Commercial Computer Software - Restricted
 Rights clause in FAR 52.227-19.
  
 Gaussian, Inc.
 340 Quinnipiac St., Bldg. 40, Wallingford CT 06492
  
  
 ---------------------------------------------------------------
 Warning -- This program may not be used in any manner that
 competes with the business of Gaussian, Inc. or will provide
 assistance to any competitor of Gaussian, Inc.  The licensee
 of this program is prohibited from giving any competitor of
 Gaussian, Inc. access to this program.  By using this program,
 the user acknowledges that Gaussian, Inc. is engaged in the
 business of creating and licensing software in the field of
 computational chemistry and represents and warrants to the
 licensee that it is not a competitor of Gaussian, Inc. and that
 it will not use this program in any manner prohibited above.
 ---------------------------------------------------------------
  

 Cite this work as:
 Gaussian 16, Revision C.02,
 M. J. Frisch, G. W. Trucks, H. B. Schlegel, G. E. Scuseria, 
 M. A. Robb, J. R. Cheeseman, G. Scalmani, V. Barone, 
 G. A. Petersson, H. Nakatsuji, X. Li, M. Caricato, A. V. Marenich, 
 J. Bloino, B. G. Janesko, R. Gomperts, B. Mennucci, H. P. Hratchian, 
 J. V. Ortiz, A. F. Izmaylov, J. L. Sonnenberg, D. Williams-Young, 
 F. Ding, F. Lipparini, F. Egidi, J. Goings, B. Peng, A. Petrone, 
 T. Henderson, D. Ranasinghe, V. G. Zakrzewski, J. Gao, N. Rega, 
 G. Zheng, W. Liang, M. Hada, M. Ehara, K. Toyota, R. Fukuda, 
 J. Hasegawa, M. Ishida, T. Nakajima, Y. Honda, O. Kitao, H. Nakai, 
 T. Vreven, K. Throssell, J. A. Montgomery, Jr., J. E. Peralta, 
 F. Ogliaro, M. J. Bearpark, J. J. Heyd, E. N. Brothers, K. N. Kudin, 
 V. N. Staroverov, T. A. Keith, R. Kobayashi, J. Normand, 
 K. Raghavachari, A. P. Rendell, J. C. Burant, S. S. Iyengar, 
 J. Tomasi, M. Cossi, J. M. Millam, M. Klene, C. Adamo, R. Cammi, 
 J. W. Ochterski, R. L. Martin, K. Morokuma, O. Farkas, 
 J. B. Foresman, and D. J. Fox, Gaussian, Inc., Wallingford CT, 2019.
 
 ******************************************
 Gaussian 16:  ES64L-G16RevC.02  7-Dec-2021
                 1-Jul-2023 
 ******************************************
 %mem=8GB
 %NPROCS=4
 Will use up to    4 processors via shared memory.
 %NoSave
 ---------------------------------------------------------
 #MP2/6-31G* SCF=Tight Opt=(ModRedun, MaxCycle=20 ) NoSymm
 ---------------------------------------------------------
 1/6=20,18=120,19=15,38=1/1,3;
 2/9=110,12=2,15=1,17=6,18=5,40=1/2;
 3/5=1,6=6,7=1,11=9,25=1,30=1,71=1/1,2,3;
 4//1;
 5/5=2,32=2,38=5/2;
 8/6=4,10=2/1;
 9/15=2,16=-3/6;
 10/5=1,31=1/2;
 6/7=2,8=2,9=2,10=2/1;
 7/12=2,30=1/1,2,3,16;
 1/6=20,18=20,19=15/3(2);
 2/9=110,15=1/2;
 99//99;
 2/9=110,15=1/2;
 3/5=1,6=6,7=1,11=9,25=1,30=1,71=1/1,2,3;
 4/5=5,16=3,69=1/1;
 5/5=2,32=2,38=5/2;
 8/6=4,10=2/1;
 9/15=2,16=-3/6;
 10/5=1,31=1/2;
 7/12=2,30=1/1,2,3,16;
 1/6=20,18=20,19=15/3(-8);
 2/9=110,15=1/2;
 6/7=2,8=2,9=2,10=2/1;
 99/9=10/99;
 --------
 MolName:
 --------
 Symbolic Z-matrix:
 Charge =  0 Multiplicity = 1
 8                    0    -3.62335  -1.46567  -0.17051 
 7                    0    -3.275    -0.30073   0.01079 
 8                    0    -4.05483   0.62808   0.22196 
 6                    0    -1.78641   0.0018   -0.03287 
 6                    0    -1.36825   1.30247   0.28158 
 7                    0    -0.07963   1.76767   0.35835 
 6                    0     1.20046   0.99959   0.34401 
 1                    0     1.85537   1.49885   1.10484 
 6                    0     1.9822    1.04712  -0.99249 
 6                    0     3.38937   0.45563  -0.78413 
 6                    0     3.31367  -0.95962  -0.18959 
 6                    0     2.44805  -0.98902   1.08886 
 6                    0     1.01715  -0.44437   0.82656 
 1                    0     0.45739  -0.48183   1.79054 
 7                    0     0.36932  -1.30306  -0.16449 
 6                    0    -0.867    -1.08362  -0.47487 
 1                    0    -2.1471    2.03964   0.53806 
 1                    0     0.14586   2.74611   0.1634 
 1                    0     1.44114   0.47272  -1.7742 
 1                    0     2.07718   2.09674  -1.3431 
 1                    0     3.93685   0.42882  -1.75164 
 1                    0     3.95974   1.10766  -0.08544 
 1                    0     2.873    -1.64734  -0.94632 
 1                    0     4.33702  -1.32797   0.04108 
 1                    0     2.37891  -2.03523   1.4595 
 1                    0     2.93606  -0.3814    1.87957 
 1                    0    -1.35517  -1.80903  -1.14345 
 
 The following ModRedundant input section has been read:
 A       5       4      16 F                                                   
 D       1       2       4      16 F                                           
 D       7      13      15      16 F                                           
 D       7       9      10      11 F                                           
 D       9      10      11      12 F                                           
 D       6       7      13      15 F                                           
 

 GradGradGradGradGradGradGradGradGradGradGradGradGradGradGradGradGradGrad
 Berny optimization.
 Initialization pass.
                           ----------------------------
                           !    Initial Parameters    !
                           ! (Angstroms and Degrees)  !
 --------------------------                            --------------------------
 ! Name  Definition              Value          Derivative Info.                !
 --------------------------------------------------------------------------------
 ! R1    R(1,2)                  1.2294         estimate D2E/DX2                !
 ! R2    R(2,3)                  1.231          estimate D2E/DX2                !
 ! R3    R(2,4)                  1.5196         estimate D2E/DX2                !
 ! R4    R(4,5)                  1.402          estimate D2E/DX2                !
 ! R5    R(4,16)                 1.4896         estimate D2E/DX2                !
 ! R6    R(5,6)                  1.3722         estimate D2E/DX2                !
 ! R7    R(5,17)                 1.1026         estimate D2E/DX2                !
 ! R8    R(6,7)                  1.4929         estimate D2E/DX2                !
 ! R9    R(6,18)                 1.0228         estimate D2E/DX2                !
 ! R10   R(7,8)                  1.1212         estimate D2E/DX2                !
 ! R11   R(7,9)                  1.5491         estimate D2E/DX2                !
 ! R12   R(7,13)                 1.5335         estimate D2E/DX2                !
 ! R13   R(9,10)                 1.5406         estimate D2E/DX2                !
 ! R14   R(9,19)                 1.1107         estimate D2E/DX2                !
 ! R15   R(9,20)                 1.1107         estimate D2E/DX2                !
 ! R16   R(10,11)                1.5369         estimate D2E/DX2                !
 ! R17   R(10,21)                1.112          estimate D2E/DX2                !
 ! R18   R(10,22)                1.1129         estimate D2E/DX2                !
 ! R19   R(11,12)                1.5442         estimate D2E/DX2                !
 ! R20   R(11,23)                1.1135         estimate D2E/DX2                !
 ! R21   R(11,24)                1.1118         estimate D2E/DX2                !
 ! R22   R(12,13)                1.5534         estimate D2E/DX2                !
 ! R23   R(12,25)                1.1121         estimate D2E/DX2                !
 ! R24   R(12,26)                1.1102         estimate D2E/DX2                !
 ! R25   R(13,14)                1.1153         estimate D2E/DX2                !
 ! R26   R(13,15)                1.4626         estimate D2E/DX2                !
 ! R27   R(15,16)                1.2934         estimate D2E/DX2                !
 ! R28   R(16,27)                1.1007         estimate D2E/DX2                !
 ! A1    A(1,2,3)              124.1088         estimate D2E/DX2                !
 ! A2    A(1,2,4)              117.515          estimate D2E/DX2                !
 ! A3    A(3,2,4)              118.3761         estimate D2E/DX2                !
 ! A4    A(2,4,5)              118.0619         estimate D2E/DX2                !
 ! A5    A(2,4,16)             117.9096         estimate D2E/DX2                !
 ! A6    A(5,4,16)             123.9514         Frozen                          !
 ! A7    A(4,5,6)              127.3865         estimate D2E/DX2                !
 ! A8    A(4,5,17)             117.4995         estimate D2E/DX2                !
 ! A9    A(6,5,17)             115.0668         estimate D2E/DX2                !
 ! A10   A(5,6,7)              129.0705         estimate D2E/DX2                !
 ! A11   A(5,6,18)             121.3778         estimate D2E/DX2                !
 ! A12   A(7,6,18)             107.5353         estimate D2E/DX2                !
 ! A13   A(6,7,8)              105.3812         estimate D2E/DX2                !
 ! A14   A(6,7,9)              115.1642         estimate D2E/DX2                !
 ! A15   A(6,7,13)             112.2679         estimate D2E/DX2                !
 ! A16   A(8,7,9)              106.0834         estimate D2E/DX2                !
 ! A17   A(8,7,13)             105.9976         estimate D2E/DX2                !
 ! A18   A(9,7,13)             111.1444         estimate D2E/DX2                !
 ! A19   A(7,9,10)             109.4194         estimate D2E/DX2                !
 ! A20   A(7,9,19)             110.2128         estimate D2E/DX2                !
 ! A21   A(7,9,20)             110.1513         estimate D2E/DX2                !
 ! A22   A(10,9,19)            109.9724         estimate D2E/DX2                !
 ! A23   A(10,9,20)            109.1117         estimate D2E/DX2                !
 ! A24   A(19,9,20)            107.9503         estimate D2E/DX2                !
 ! A25   A(9,10,11)            111.1538         estimate D2E/DX2                !
 ! A26   A(9,10,21)            109.9553         estimate D2E/DX2                !
 ! A27   A(9,10,22)            109.1522         estimate D2E/DX2                !
 ! A28   A(11,10,21)           109.793          estimate D2E/DX2                !
 ! A29   A(11,10,22)           108.7762         estimate D2E/DX2                !
 ! A30   A(21,10,22)           107.9402         estimate D2E/DX2                !
 ! A31   A(10,11,12)           111.4324         estimate D2E/DX2                !
 ! A32   A(10,11,23)           108.9859         estimate D2E/DX2                !
 ! A33   A(10,11,24)           109.8768         estimate D2E/DX2                !
 ! A34   A(12,11,23)           109.211          estimate D2E/DX2                !
 ! A35   A(12,11,24)           109.7479         estimate D2E/DX2                !
 ! A36   A(23,11,24)           107.4966         estimate D2E/DX2                !
 ! A37   A(11,12,13)           111.7089         estimate D2E/DX2                !
 ! A38   A(11,12,25)           109.1893         estimate D2E/DX2                !
 ! A39   A(11,12,26)           109.44           estimate D2E/DX2                !
 ! A40   A(13,12,25)           109.2001         estimate D2E/DX2                !
 ! A41   A(13,12,26)           109.4678         estimate D2E/DX2                !
 ! A42   A(25,12,26)           107.7486         estimate D2E/DX2                !
 ! A43   A(7,13,12)            105.8539         estimate D2E/DX2                !
 ! A44   A(7,13,14)            111.3212         estimate D2E/DX2                !
 ! A45   A(7,13,15)            113.1136         estimate D2E/DX2                !
 ! A46   A(12,13,14)           107.7333         estimate D2E/DX2                !
 ! A47   A(12,13,15)           108.4561         estimate D2E/DX2                !
 ! A48   A(14,13,15)           110.0978         estimate D2E/DX2                !
 ! A49   A(13,15,16)           119.1019         estimate D2E/DX2                !
 ! A50   A(4,16,15)            129.9708         estimate D2E/DX2                !
 ! A51   A(4,16,27)            112.7509         estimate D2E/DX2                !
 ! A52   A(15,16,27)           117.25           estimate D2E/DX2                !
 ! D1    D(1,2,4,5)           -174.8064         estimate D2E/DX2                !
 ! D2    D(1,2,4,16)             8.2583         Frozen                          !
 ! D3    D(3,2,4,5)              5.2987         estimate D2E/DX2                !
 ! D4    D(3,2,4,16)          -171.6366         estimate D2E/DX2                !
 ! D5    D(2,4,5,6)            176.9672         estimate D2E/DX2                !
 ! D6    D(2,4,5,17)            -0.3957         estimate D2E/DX2                !
 ! D7    D(16,4,5,6)            -6.2978         estimate D2E/DX2                !
 ! D8    D(16,4,5,17)          176.3392         estimate D2E/DX2                !
 ! D9    D(2,4,16,15)         -151.4612         estimate D2E/DX2                !
 ! D10   D(2,4,16,27)           26.5151         estimate D2E/DX2                !
 ! D11   D(5,4,16,15)           31.7993         estimate D2E/DX2                !
 ! D12   D(5,4,16,27)         -150.2244         estimate D2E/DX2                !
 ! D13   D(4,5,6,7)            -10.5629         estimate D2E/DX2                !
 ! D14   D(4,5,6,18)           151.181          estimate D2E/DX2                !
 ! D15   D(17,5,6,7)           166.8548         estimate D2E/DX2                !
 ! D16   D(17,5,6,18)          -31.4013         estimate D2E/DX2                !
 ! D17   D(5,6,7,8)           -139.6311         estimate D2E/DX2                !
 ! D18   D(5,6,7,9)            103.837          estimate D2E/DX2                !
 ! D19   D(5,6,7,13)           -24.701          estimate D2E/DX2                !
 ! D20   D(18,6,7,8)            56.658          estimate D2E/DX2                !
 ! D21   D(18,6,7,9)           -59.8739         estimate D2E/DX2                !
 ! D22   D(18,6,7,13)          171.5882         estimate D2E/DX2                !
 ! D23   D(6,7,9,10)           169.045          estimate D2E/DX2                !
 ! D24   D(6,7,9,19)           -69.9083         estimate D2E/DX2                !
 ! D25   D(6,7,9,20)            49.1003         estimate D2E/DX2                !
 ! D26   D(8,7,9,10)            52.9128         estimate D2E/DX2                !
 ! D27   D(8,7,9,19)           173.9595         estimate D2E/DX2                !
 ! D28   D(8,7,9,20)           -67.032          estimate D2E/DX2                !
 ! D29   D(13,7,9,10)          -61.8611         estimate D2E/DX2                !
 ! D30   D(13,7,9,19)           59.1856         estimate D2E/DX2                !
 ! D31   D(13,7,9,20)          178.1941         estimate D2E/DX2                !
 ! D32   D(6,7,13,12)         -166.3564         estimate D2E/DX2                !
 ! D33   D(6,7,13,14)          -49.5653         estimate D2E/DX2                !
 ! D34   D(6,7,13,15)           75.0216         Frozen                          !
 ! D35   D(8,7,13,12)          -51.8019         estimate D2E/DX2                !
 ! D36   D(8,7,13,14)           64.9891         estimate D2E/DX2                !
 ! D37   D(8,7,13,15)         -170.4239         estimate D2E/DX2                !
 ! D38   D(9,7,13,12)           63.0254         estimate D2E/DX2                !
 ! D39   D(9,7,13,14)          179.8165         estimate D2E/DX2                !
 ! D40   D(9,7,13,15)          -55.5966         estimate D2E/DX2                !
 ! D41   D(7,9,10,11)           54.8126         Frozen                          !
 ! D42   D(7,9,10,21)          176.6007         estimate D2E/DX2                !
 ! D43   D(7,9,10,22)          -65.1701         estimate D2E/DX2                !
 ! D44   D(19,9,10,11)         -66.3797         estimate D2E/DX2                !
 ! D45   D(19,9,10,21)          55.4083         estimate D2E/DX2                !
 ! D46   D(19,9,10,22)         173.6376         estimate D2E/DX2                !
 ! D47   D(20,9,10,11)         175.393          estimate D2E/DX2                !
 ! D48   D(20,9,10,21)         -62.819          estimate D2E/DX2                !
 ! D49   D(20,9,10,22)          55.4103         estimate D2E/DX2                !
 ! D50   D(9,10,11,12)         -52.8225         Frozen                          !
 ! D51   D(9,10,11,23)          67.7671         estimate D2E/DX2                !
 ! D52   D(9,10,11,24)        -174.6859         estimate D2E/DX2                !
 ! D53   D(21,10,11,12)       -174.705          estimate D2E/DX2                !
 ! D54   D(21,10,11,23)        -54.1154         estimate D2E/DX2                !
 ! D55   D(21,10,11,24)         63.4316         estimate D2E/DX2                !
 ! D56   D(22,10,11,12)         67.3832         estimate D2E/DX2                !
 ! D57   D(22,10,11,23)       -172.0272         estimate D2E/DX2                !
 ! D58   D(22,10,11,24)        -54.4802         estimate D2E/DX2                !
 ! D59   D(10,11,12,13)         56.4485         estimate D2E/DX2                !
 ! D60   D(10,11,12,25)        177.3364         estimate D2E/DX2                !
 ! D61   D(10,11,12,26)        -64.9455         estimate D2E/DX2                !
 ! D62   D(23,11,12,13)        -64.0089         estimate D2E/DX2                !
 ! D63   D(23,11,12,25)         56.8789         estimate D2E/DX2                !
 ! D64   D(23,11,12,26)        174.597          estimate D2E/DX2                !
 ! D65   D(24,11,12,13)        178.3866         estimate D2E/DX2                !
 ! D66   D(24,11,12,25)        -60.7256         estimate D2E/DX2                !
 ! D67   D(24,11,12,26)         56.9925         estimate D2E/DX2                !
 ! D68   D(11,12,13,7)         -60.0264         estimate D2E/DX2                !
 ! D69   D(11,12,13,14)       -179.2122         estimate D2E/DX2                !
 ! D70   D(11,12,13,15)         61.6407         estimate D2E/DX2                !
 ! D71   D(25,12,13,7)         179.0921         estimate D2E/DX2                !
 ! D72   D(25,12,13,14)         59.9063         estimate D2E/DX2                !
 ! D73   D(25,12,13,15)        -59.2408         estimate D2E/DX2                !
 ! D74   D(26,12,13,7)          61.3515         estimate D2E/DX2                !
 ! D75   D(26,12,13,14)        -57.8343         estimate D2E/DX2                !
 ! D76   D(26,12,13,15)       -176.9813         estimate D2E/DX2                !
 ! D77   D(7,13,15,16)         -67.1601         Frozen                          !
 ! D78   D(12,13,15,16)        175.7376         estimate D2E/DX2                !
 ! D79   D(14,13,15,16)         58.0894         estimate D2E/DX2                !
 ! D80   D(13,15,16,4)           4.0907         estimate D2E/DX2                !
 ! D81   D(13,15,16,27)       -173.8101         estimate D2E/DX2                !
 --------------------------------------------------------------------------------
 Trust Radius=3.00D-01 FncErr=1.00D-07 GrdErr=1.00D-07 EigMax=2.50D+02 EigMin=1.00D-04
 Number of steps in this run=     20 maximum allowed number of steps=    162.
 GradGradGradGradGradGradGradGradGradGradGradGradGradGradGradGradGradGrad

                          Input orientation:                          
 ---------------------------------------------------------------------
 Center     Atomic      Atomic             Coordinates (Angstroms)
 Number     Number       Type             X           Y           Z
 ---------------------------------------------------------------------
      1          8           0       -3.623350   -1.465670   -0.170510
      2          7           0       -3.275000   -0.300730    0.010790
      3          8           0       -4.054830    0.628080    0.221960
      4          6           0       -1.786410    0.001800   -0.032870
      5          6           0       -1.368250    1.302470    0.281580
      6          7           0       -0.079630    1.767670    0.358350
      7          6           0        1.200460    0.999590    0.344010
      8          1           0        1.855370    1.498850    1.104840
      9          6           0        1.982200    1.047120   -0.992490
     10          6           0        3.389370    0.455630   -0.784130
     11          6           0        3.313670   -0.959620   -0.189590
     12          6           0        2.448050   -0.989020    1.088860
     13          6           0        1.017150   -0.444370    0.826560
     14          1           0        0.457390   -0.481830    1.790540
     15          7           0        0.369320   -1.303060   -0.164490
     16          6           0       -0.867000   -1.083620   -0.474870
     17          1           0       -2.147100    2.039640    0.538060
     18          1           0        0.145860    2.746110    0.163400
     19          1           0        1.441140    0.472720   -1.774200
     20          1           0        2.077180    2.096740   -1.343100
     21          1           0        3.936850    0.428820   -1.751640
     22          1           0        3.959740    1.107660   -0.085440
     23          1           0        2.873000   -1.647340   -0.946320
     24          1           0        4.337020   -1.327970    0.041080
     25          1           0        2.378910   -2.035230    1.459500
     26          1           0        2.936060   -0.381400    1.879570
     27          1           0       -1.355170   -1.809030   -1.143450
 ---------------------------------------------------------------------
                    Distance matrix (angstroms):
                    1          2          3          4          5
     1  O    0.000000
     2  N    1.229350   0.000000
     3  O    2.173476   1.231022   0.000000
     4  C    2.355156   1.519648   2.367043   0.000000
     5  C    3.598953   2.505848   2.770572   1.401955   0.000000
     6  N    4.826192   3.822233   4.137570   2.486855   1.372168
     7  C    5.441634   4.672431   5.269819   3.171595   2.587258
     8  H    6.358559   5.545821   6.038889   4.098549   3.332874
     9  C    6.197738   5.519187   6.172213   4.026908   3.593602
    10  C    7.296997   6.754095   7.513859   5.249672   4.948517
    11  C    6.955480   6.624565   7.548838   5.192274   5.221056
    12  C    6.218931   5.864237   6.756773   4.491175   4.524022
    13  C    4.855043   4.371346   5.219260   2.966081   3.006424
    14  H    4.633152   4.138966   4.904332   2.931443   2.965409
    15  N    3.995984   3.783709   4.842701   2.523322   3.163371
    16  C    2.799297   2.578225   3.684800   1.489569   2.552821
    17  H    3.868925   2.650944   2.394129   2.146823   1.102637
    18  H    5.661937   4.583537   4.704814   3.362057   2.095374
    19  H    5.654930   5.101607   5.849314   3.697442   3.578741
    20  H    6.823619   6.018863   6.496762   4.586154   3.891200
    21  H    7.952716   7.459838   8.234182   5.991012   5.748159
    22  H    8.008278   7.371179   8.034788   5.851831   5.344168
    23  H    6.545032   6.366107   7.384934   5.026346   5.310115
    24  H    7.964372   7.681080   8.618700   6.266590   6.287063
    25  H    6.245675   6.088838   7.072322   4.870991   5.154507
    26  H    6.957322   6.486610   7.255292   5.109402   4.890406
    27  H    2.491816   2.700553   3.884844   2.167593   3.422326
                    6          7          8          9         10
     6  N    0.000000
     7  C    1.492911   0.000000
     8  H    2.091348   1.121173   0.000000
     9  C    2.568093   1.549067   2.149172   0.000000
    10  C    3.880808   2.521888   2.647578   1.540585   0.000000
    11  C    4.387805   2.930681   3.137876   2.538595   1.536926
    12  C    3.810794   2.462895   2.557542   2.948712   2.545818
    13  C    2.513020   1.533453   2.134516   2.542598   3.005287
    14  H    2.720259   2.199820   2.519450   3.522498   4.013012
    15  N    3.147110   2.500313   3.416174   2.968217   3.549316
    16  C    3.073119   3.047084   4.071355   3.595264   4.536697
    17  H    2.093011   3.510772   4.078414   4.514288   5.908449
    18  H    1.022837   2.048202   2.316116   2.755865   4.082214
    19  H    2.921884   2.195981   3.084380   1.110744   2.185436
    20  H    2.766776   2.195157   2.529641   1.110698   2.174289
    21  H    4.730400   3.493617   3.692831   2.186152   1.111993
    22  H    4.116925   2.794590   2.449116   2.176481   1.112939
    23  H    4.699200   3.386529   3.891187   2.838269   2.171503
    24  H    5.402818   3.917564   3.909103   3.500642   2.181798
    25  H    4.660365   3.441394   3.590209   3.958600   3.501327
    26  H    4.003373   2.697663   2.302919   3.346528   2.828676
    27  H    4.083526   4.078251   5.128786   4.395272   5.269578
                   11         12         13         14         15
    11  C    0.000000
    12  C    1.544214   0.000000
    13  C    2.563600   1.553358   0.000000
    14  H    3.508209   2.170789   1.115344   0.000000
    15  N    2.964419   2.447575   1.462605   2.122338   0.000000
    16  C    4.192226   3.666573   2.377474   2.692256   1.293436
    17  H    6.272563   5.530964   4.033115   3.835347   4.242592
    18  H    4.887950   4.484167   3.373142   3.628255   4.068565
    19  H    2.840591   3.368629   2.790121   3.819202   2.625521
    20  H    3.492969   3.946377   3.505471   4.369490   3.983032
    21  H    2.180853   3.506456   3.991770   5.048065   4.271501
    22  H    2.168387   2.839059   3.449547   4.279280   4.325383
    23  H    1.113458   2.180808   2.834505   3.831969   2.645411
    24  H    1.111816   2.186536   3.524098   4.339135   3.973100
    25  H    2.179498   1.112075   2.187656   2.492966   2.685492
    26  H    2.181364   1.110215   2.189751   2.482301   3.408195
    27  H    4.840394   4.485544   3.372112   3.695285   2.046518
                   16         17         18         19         20
    16  C    0.000000
    17  H    3.524122   0.000000
    18  H    4.012494   2.428402   0.000000
    19  H    3.072127   4.547225   3.255817   0.000000
    20  H    4.420035   4.624561   2.534013   1.796618   0.000000
    21  H    5.195632   6.697157   4.838266   2.496198   2.531252
    22  H    5.315147   6.208932   4.158380   3.098129   2.470632
    23  H    3.811515   6.403016   5.288778   2.688915   3.848233
    24  H    5.235240   7.323360   5.846273   3.863140   4.330297
    25  H    3.896573   6.159414   5.433930   4.198338   5.001878
    26  H    4.527667   5.787884   4.528993   4.039102   4.155052
    27  H    1.100695   4.273978   4.970940   3.663820   5.203453
                   21         22         23         24         25
    21  H    0.000000
    22  H    1.799325   0.000000
    23  H    2.467946   3.084176   0.000000
    24  H    2.541710   2.467922   1.794522   0.000000
    25  H    4.337066   3.842346   2.486474   2.519192   0.000000
    26  H    3.852755   2.669548   3.097133   2.497745   1.795001
    27  H    5.777832   6.154245   4.235850   5.834000   4.557397
                   26         27
    26  H    0.000000
    27  H    5.439801   0.000000
 Symmetry turned off by external request.
 Stoichiometry    C9H13N3O2
 Framework group  C1[X(C9H13N3O2)]
 Deg. of freedom    75
 Full point group                 C1      NOp   1
 Rotational constants (GHZ):           1.6873133           0.3978619           0.3538609
 Standard basis: 6-31G(d) (6D, 7F)
   236 basis functions,   444 primitive gaussians,   236 cartesian basis functions
    52 alpha electrons       52 beta electrons
       nuclear repulsion energy       917.1665076539 Hartrees.
 NAtoms=   27 NActive=   27 NUniq=   27 SFac= 1.00D+00 NAtFMM=   60 NAOKFM=F Big=F
 Integral buffers will be    131072 words long.
 Raffenetti 1 integral format.
 Two-electron integral symmetry is turned off.
 One-electron integrals computed using PRISM.
 NBasis=   236 RedAO= T EigKep=  1.29D-03  NBF=   236
 NBsUse=   236 1.00D-06 EigRej= -1.00D+00 NBFU=   236
 ExpMin= 1.61D-01 ExpMax= 5.48D+03 ExpMxC= 8.25D+02 IAcc=3 IRadAn=         5 AccDes= 0.00D+00
 Harris functional with IExCor=  205 and IRadAn=       5 diagonalized for initial guess.
 HarFok:  IExCor=  205 AccDes= 0.00D+00 IRadAn=         5 IDoV= 1 UseB2=F ITyADJ=14
 ICtDFT=  3500011 ScaDFX=  1.000000  1.000000  1.000000  1.000000
 FoFCou: FMM=F IPFlag=           0 FMFlag=      100000 FMFlg1=           0
         NFxFlg=           0 DoJE=T BraDBF=F KetDBF=T FulRan=T
         wScrn=  0.000000 ICntrl=       500 IOpCl=  0 I1Cent=   200000004 NGrid=           0
         NMat0=    1 NMatS0=      1 NMatT0=    0 NMatD0=    1 NMtDS0=    0 NMtDT0=    0
 Symmetry not used in FoFCou.
 Keep R1 ints in memory in canonical form, NReq=397720213.
 Requested convergence on RMS density matrix=1.00D-08 within 128 cycles.
 Requested convergence on MAX density matrix=1.00D-06.
 Requested convergence on             energy=1.00D-06.
 No special actions if energy rises.
 SCF Done:  E(RHF) =  -661.279266451     A.U. after   16 cycles
            NFock= 16  Conv=0.78D-08     -V/T= 2.0037
 ExpMin= 1.61D-01 ExpMax= 5.48D+03 ExpMxC= 8.25D+02 IAcc=3 IRadAn=         5 AccDes= 0.00D+00
 HarFok:  IExCor=  205 AccDes= 0.00D+00 IRadAn=         5 IDoV=-2 UseB2=F ITyADJ=14
 ICtDFT= 12500011 ScaDFX=  1.000000  1.000000  1.000000  1.000000
 Range of M.O.s used for correlation:    15   236
 NBasis=   236 NAE=    52 NBE=    52 NFC=    14 NFV=     0
 NROrb=    222 NOA=    38 NOB=    38 NVA=   184 NVB=   184
 Fully direct method using O(ONN) memory.
 JobTyp=1 Pass  1:  I=  15 to  52 NPSUse=  4 ParTrn=T ParDer=T DoDerP=T.
 Spin components of T(2) and E(2):
     alpha-alpha T2 =       0.9196044409D-01 E2=     -0.2717720473D+00
     alpha-beta  T2 =       0.4997918635D+00 E2=     -0.1493907084D+01
     beta-beta   T2 =       0.9196044409D-01 E2=     -0.2717720473D+00
 ANorm=    0.1297579574D+01
 E2 =    -0.2037451178D+01 EUMP2 =    -0.66331671762876D+03
          IDoAtm=111111111111111111111111111
          Differentiating once with respect to electric field.
                with respect to dipole field.
          Differentiating once with respect to nuclear coordinates.
 Keep R1 ints in memory in canonical form, NReq=397723379.
          There are     1 degrees of freedom in the 1st order CPHF.  IDoFFX=0 NUNeed=     1.
 LinEq1:  Iter=  0 NonCon=     1 RMS=4.60D-03 Max=1.13D-01 NDo=     1
 AX will form     1 AO Fock derivatives at one time.
 LinEq1:  Iter=  1 NonCon=     1 RMS=1.56D-03 Max=3.23D-02 NDo=     1
 LinEq1:  Iter=  2 NonCon=     1 RMS=6.38D-04 Max=1.79D-02 NDo=     1
 LinEq1:  Iter=  3 NonCon=     1 RMS=2.95D-04 Max=9.38D-03 NDo=     1
 LinEq1:  Iter=  4 NonCon=     1 RMS=9.07D-05 Max=2.04D-03 NDo=     1
 LinEq1:  Iter=  5 NonCon=     1 RMS=3.79D-05 Max=1.95D-03 NDo=     1
 LinEq1:  Iter=  6 NonCon=     1 RMS=1.54D-05 Max=5.67D-04 NDo=     1
 LinEq1:  Iter=  7 NonCon=     1 RMS=5.98D-06 Max=1.02D-04 NDo=     1
 LinEq1:  Iter=  8 NonCon=     1 RMS=2.37D-06 Max=6.20D-05 NDo=     1
 LinEq1:  Iter=  9 NonCon=     1 RMS=8.85D-07 Max=2.53D-05 NDo=     1
 LinEq1:  Iter= 10 NonCon=     1 RMS=4.36D-07 Max=1.54D-05 NDo=     1
 LinEq1:  Iter= 11 NonCon=     1 RMS=1.54D-07 Max=5.74D-06 NDo=     1
 LinEq1:  Iter= 12 NonCon=     1 RMS=5.41D-08 Max=8.02D-07 NDo=     1
 LinEq1:  Iter= 13 NonCon=     1 RMS=1.70D-08 Max=3.05D-07 NDo=     1
 LinEq1:  Iter= 14 NonCon=     1 RMS=5.43D-09 Max=1.41D-07 NDo=     1
 LinEq1:  Iter= 15 NonCon=     1 RMS=2.06D-09 Max=4.63D-08 NDo=     1
 LinEq1:  Iter= 16 NonCon=     1 RMS=8.15D-10 Max=1.52D-08 NDo=     1
 LinEq1:  Iter= 17 NonCon=     1 RMS=2.68D-10 Max=4.12D-09 NDo=     1
 LinEq1:  Iter= 18 NonCon=     1 RMS=9.16D-11 Max=1.23D-09 NDo=     1
 LinEq1:  Iter= 19 NonCon=     0 RMS=2.97D-11 Max=5.01D-10 NDo=     1
 Linear equations converged to 1.000D-10 1.000D-09 after    19 iterations.
 End of Minotr F.D. properties file   721 does not exist.
 End of Minotr F.D. properties file   722 does not exist.
 End of Minotr F.D. properties file   788 does not exist.

 **********************************************************************

            Population analysis using the SCF Density.

 **********************************************************************

 Alpha  occ. eigenvalues --  -20.59986 -20.59546 -15.85536 -15.63295 -15.56956
 Alpha  occ. eigenvalues --  -11.35867 -11.30453 -11.30124 -11.30024 -11.27628
 Alpha  occ. eigenvalues --  -11.24610 -11.23867 -11.23388 -11.22846  -1.58689
 Alpha  occ. eigenvalues --   -1.38230  -1.28581  -1.22747  -1.13287  -1.08445
 Alpha  occ. eigenvalues --   -1.01789  -1.00715  -0.93624  -0.89131  -0.84957
 Alpha  occ. eigenvalues --   -0.81488  -0.78177  -0.76890  -0.74269  -0.71294
 Alpha  occ. eigenvalues --   -0.70495  -0.69963  -0.67449  -0.64355  -0.63264
 Alpha  occ. eigenvalues --   -0.61546  -0.60172  -0.57423  -0.56458  -0.54898
 Alpha  occ. eigenvalues --   -0.53434  -0.50724  -0.49253  -0.48536  -0.47913
 Alpha  occ. eigenvalues --   -0.47685  -0.46099  -0.45715  -0.44138  -0.42071
 Alpha  occ. eigenvalues --   -0.40066  -0.33868
 Alpha virt. eigenvalues --    0.07205   0.11808   0.18306   0.21391   0.23286
 Alpha virt. eigenvalues --    0.24211   0.26344   0.27739   0.28544   0.28898
 Alpha virt. eigenvalues --    0.30036   0.31104   0.31849   0.32262   0.33360
 Alpha virt. eigenvalues --    0.33750   0.34126   0.35505   0.37603   0.38570
 Alpha virt. eigenvalues --    0.40695   0.41833   0.44373   0.45249   0.45862
 Alpha virt. eigenvalues --    0.45919   0.49575   0.53021   0.57502   0.58973
 Alpha virt. eigenvalues --    0.63268   0.69248   0.69749   0.72196   0.74125
 Alpha virt. eigenvalues --    0.75392   0.75701   0.75877   0.77845   0.79346
 Alpha virt. eigenvalues --    0.80169   0.83665   0.85126   0.85379   0.87972
 Alpha virt. eigenvalues --    0.88931   0.90005   0.91067   0.91979   0.93697
 Alpha virt. eigenvalues --    0.95365   0.97242   0.98729   1.00322   1.01847
 Alpha virt. eigenvalues --    1.02702   1.05239   1.06247   1.06791   1.08863
 Alpha virt. eigenvalues --    1.09413   1.10464   1.11368   1.11790   1.13249
 Alpha virt. eigenvalues --    1.13793   1.14219   1.15250   1.16366   1.17411
 Alpha virt. eigenvalues --    1.17875   1.19934   1.21047   1.22211   1.22982
 Alpha virt. eigenvalues --    1.23697   1.24219   1.25771   1.26987   1.27628
 Alpha virt. eigenvalues --    1.29572   1.31112   1.32904   1.35219   1.39841
 Alpha virt. eigenvalues --    1.43015   1.46064   1.46927   1.48921   1.52412
 Alpha virt. eigenvalues --    1.54374   1.55405   1.60947   1.61403   1.66333
 Alpha virt. eigenvalues --    1.69032   1.69900   1.72717   1.73061   1.77256
 Alpha virt. eigenvalues --    1.78131   1.79443   1.84291   1.89279   1.92701
 Alpha virt. eigenvalues --    1.93722   1.96590   1.97671   1.98826   2.01771
 Alpha virt. eigenvalues --    2.02920   2.03384   2.05984   2.08970   2.11684
 Alpha virt. eigenvalues --    2.13053   2.13581   2.17779   2.18679   2.19086
 Alpha virt. eigenvalues --    2.21164   2.22175   2.24322   2.24929   2.26664
 Alpha virt. eigenvalues --    2.28870   2.32480   2.33810   2.35415   2.35878
 Alpha virt. eigenvalues --    2.38410   2.39919   2.41480   2.42731   2.46270
 Alpha virt. eigenvalues --    2.48561   2.50428   2.50987   2.56657   2.57777
 Alpha virt. eigenvalues --    2.60956   2.62858   2.66253   2.68136   2.68812
 Alpha virt. eigenvalues --    2.69970   2.70816   2.74721   2.76669   2.80888
 Alpha virt. eigenvalues --    2.84573   2.86887   2.90127   2.91808   2.95377
 Alpha virt. eigenvalues --    2.97495   2.98936   3.01736   3.03284   3.05766
 Alpha virt. eigenvalues --    3.06806   3.12664   3.19547   3.22759   3.27109
 Alpha virt. eigenvalues --    3.31066   3.33102   3.37096   3.45095   3.58835
 Alpha virt. eigenvalues --    4.10387   4.23951   4.31746   4.36163   4.43610
 Alpha virt. eigenvalues --    4.53016   4.59905   4.60325   4.70870   4.77813
 Alpha virt. eigenvalues --    4.95864   4.99281   5.02537   5.10212
          Condensed to atoms (all electrons):
               1          2          3          4          5          6
     1  O    8.297638   0.314293  -0.088282  -0.080589   0.003406  -0.000012
     2  N    0.314293   5.681833   0.310431   0.263138  -0.043589   0.000851
     3  O   -0.088282   0.310431   8.328323  -0.088603   0.007893   0.000435
     4  C   -0.080589   0.263138  -0.088603   5.250445   0.561922  -0.045496
     5  C    0.003406  -0.043589   0.007893   0.561922   4.669198   0.308506
     6  N   -0.000012   0.000851   0.000435  -0.045496   0.308506   7.193888
     7  C    0.000003  -0.000080   0.000002   0.004416  -0.029699   0.197150
     8  H   -0.000000   0.000002  -0.000000  -0.000217   0.002319  -0.050719
     9  C   -0.000000  -0.000002   0.000000   0.000544   0.001582  -0.055251
    10  C   -0.000000   0.000000  -0.000000  -0.000021  -0.000058   0.003311
    11  C   -0.000000  -0.000000  -0.000000  -0.000010   0.000013  -0.000155
    12  C   -0.000000   0.000002  -0.000000  -0.000113  -0.000089   0.003647
    13  C   -0.000019  -0.000033  -0.000003  -0.010731   0.000424  -0.044834
    14  H   -0.000003  -0.000055   0.000000   0.003268   0.004991  -0.005724
    15  N    0.000128   0.001578  -0.000012  -0.059915  -0.002948   0.001449
    16  C    0.003624  -0.026396   0.001894   0.314273  -0.042148  -0.002113
    17  H    0.000110  -0.003930   0.011357  -0.029260   0.379077  -0.035590
    18  H    0.000000  -0.000032   0.000007   0.000820  -0.024287   0.328412
    19  H    0.000000  -0.000000   0.000000  -0.000714   0.000601   0.000731
    20  H    0.000000  -0.000000   0.000000  -0.000021   0.000018  -0.001843
    21  H   -0.000000  -0.000000   0.000000   0.000000   0.000001  -0.000058
    22  H   -0.000000   0.000000  -0.000000  -0.000000  -0.000002  -0.000098
    23  H    0.000000  -0.000000   0.000000   0.000024  -0.000001  -0.000024
    24  H    0.000000   0.000000   0.000000   0.000000  -0.000000   0.000004
    25  H    0.000000  -0.000000   0.000000   0.000018  -0.000001  -0.000073
    26  H    0.000000  -0.000000   0.000000   0.000007  -0.000003  -0.000068
    27  H    0.005034  -0.000269  -0.000002  -0.068317   0.002471   0.000062
               7          8          9         10         11         12
     1  O    0.000003  -0.000000  -0.000000  -0.000000  -0.000000  -0.000000
     2  N   -0.000080   0.000002  -0.000002   0.000000  -0.000000   0.000002
     3  O    0.000002  -0.000000   0.000000  -0.000000  -0.000000  -0.000000
     4  C    0.004416  -0.000217   0.000544  -0.000021  -0.000010  -0.000113
     5  C   -0.029699   0.002319   0.001582  -0.000058   0.000013  -0.000089
     6  N    0.197150  -0.050719  -0.055251   0.003311  -0.000155   0.003647
     7  C    4.998524   0.417356   0.340833  -0.049375  -0.007690  -0.064264
     8  H    0.417356   0.548696  -0.060918   0.001603  -0.000355  -0.002717
     9  C    0.340833  -0.060918   5.181612   0.317714  -0.053015  -0.006400
    10  C   -0.049375   0.001603   0.317714   5.126624   0.332776  -0.059976
    11  C   -0.007690  -0.000355  -0.053015   0.332776   5.123457   0.330735
    12  C   -0.064264  -0.002717  -0.006400  -0.059976   0.330735   5.136893
    13  C    0.334806  -0.041258  -0.049531  -0.001852  -0.047782   0.368249
    14  H   -0.039935  -0.000959   0.003870  -0.000394   0.003944  -0.040695
    15  N   -0.057834   0.004117  -0.013175   0.001450  -0.007613  -0.074375
    16  C   -0.003156   0.000092  -0.001239  -0.000004  -0.000015   0.002692
    17  H    0.001513  -0.000010  -0.000071   0.000001   0.000000   0.000001
    18  H   -0.028423  -0.002497   0.000840  -0.000122   0.000012  -0.000137
    19  H   -0.034876   0.004107   0.385740  -0.032372  -0.002293   0.000649
    20  H   -0.041635  -0.001906   0.397202  -0.037408   0.004151  -0.000361
    21  H    0.004041  -0.000082  -0.035823   0.400157  -0.035827   0.004202
    22  H   -0.004161   0.003503  -0.045698   0.396016  -0.045661  -0.001216
    23  H    0.000421   0.000033  -0.002006  -0.040070   0.396692  -0.036631
    24  H   -0.000141  -0.000097   0.004398  -0.038491   0.400329  -0.037846
    25  H    0.004983  -0.000005  -0.000366   0.004095  -0.034003   0.395452
    26  H   -0.004449   0.001638   0.001029  -0.002373  -0.042352   0.394774
    27  H   -0.000430   0.000010  -0.000066   0.000006   0.000004  -0.000016
              13         14         15         16         17         18
     1  O   -0.000019  -0.000003   0.000128   0.003624   0.000110   0.000000
     2  N   -0.000033  -0.000055   0.001578  -0.026396  -0.003930  -0.000032
     3  O   -0.000003   0.000000  -0.000012   0.001894   0.011357   0.000007
     4  C   -0.010731   0.003268  -0.059915   0.314273  -0.029260   0.000820
     5  C    0.000424   0.004991  -0.002948  -0.042148   0.379077  -0.024287
     6  N   -0.044834  -0.005724   0.001449  -0.002113  -0.035590   0.328412
     7  C    0.334806  -0.039935  -0.057834  -0.003156   0.001513  -0.028423
     8  H   -0.041258  -0.000959   0.004117   0.000092  -0.000010  -0.002497
     9  C   -0.049531   0.003870  -0.013175  -0.001239  -0.000071   0.000840
    10  C   -0.001852  -0.000394   0.001450  -0.000004   0.000001  -0.000122
    11  C   -0.047782   0.003944  -0.007613  -0.000015   0.000000   0.000012
    12  C    0.368249  -0.040695  -0.074375   0.002692   0.000001  -0.000137
    13  C    5.028569   0.401595   0.237323  -0.070501  -0.000046   0.003744
    14  H    0.401595   0.520251  -0.036038  -0.004708   0.000075   0.000014
    15  N    0.237323  -0.036038   6.932480   0.588683  -0.000060  -0.000121
    16  C   -0.070501  -0.004708   0.588683   4.705202   0.001995  -0.000243
    17  H   -0.000046   0.000075  -0.000060   0.001995   0.394428  -0.001949
    18  H    0.003744   0.000014  -0.000121  -0.000243  -0.001949   0.323159
    19  H   -0.006320   0.000063   0.006955   0.002680   0.000011  -0.000128
    20  H    0.003865  -0.000048   0.000083  -0.000031  -0.000001   0.002958
    21  H   -0.000369   0.000009  -0.000028   0.000002  -0.000000  -0.000000
    22  H    0.000309  -0.000045   0.000001  -0.000001   0.000000   0.000002
    23  H   -0.005816   0.000007   0.006694   0.000052   0.000000   0.000000
    24  H    0.004127  -0.000057   0.000048   0.000006   0.000000  -0.000000
    25  H   -0.034557  -0.002638   0.000645  -0.000067  -0.000000   0.000002
    26  H   -0.044789  -0.000914   0.004194  -0.000062   0.000000  -0.000001
    27  H    0.005128  -0.000195  -0.041053   0.403388  -0.000062   0.000003
              19         20         21         22         23         24
     1  O    0.000000   0.000000  -0.000000  -0.000000   0.000000   0.000000
     2  N   -0.000000  -0.000000  -0.000000   0.000000  -0.000000   0.000000
     3  O    0.000000   0.000000   0.000000  -0.000000   0.000000   0.000000
     4  C   -0.000714  -0.000021   0.000000  -0.000000   0.000024   0.000000
     5  C    0.000601   0.000018   0.000001  -0.000002  -0.000001  -0.000000
     6  N    0.000731  -0.001843  -0.000058  -0.000098  -0.000024   0.000004
     7  C   -0.034876  -0.041635   0.004041  -0.004161   0.000421  -0.000141
     8  H    0.004107  -0.001906  -0.000082   0.003503   0.000033  -0.000097
     9  C    0.385740   0.397202  -0.035823  -0.045698  -0.002006   0.004398
    10  C   -0.032372  -0.037408   0.400157   0.396016  -0.040070  -0.038491
    11  C   -0.002293   0.004151  -0.035827  -0.045661   0.396692   0.400329
    12  C    0.000649  -0.000361   0.004202  -0.001216  -0.036631  -0.037846
    13  C   -0.006320   0.003865  -0.000369   0.000309  -0.005816   0.004127
    14  H    0.000063  -0.000048   0.000009  -0.000045   0.000007  -0.000057
    15  N    0.006955   0.000083  -0.000028   0.000001   0.006694   0.000048
    16  C    0.002680  -0.000031   0.000002  -0.000001   0.000052   0.000006
    17  H    0.000011  -0.000001  -0.000000   0.000000   0.000000   0.000000
    18  H   -0.000128   0.002958  -0.000000   0.000002   0.000000  -0.000000
    19  H    0.506375  -0.024133  -0.002599   0.003752   0.001634  -0.000069
    20  H   -0.024133   0.550798  -0.002594  -0.002987  -0.000050  -0.000090
    21  H   -0.002599  -0.002594   0.526095  -0.024696  -0.002811  -0.002049
    22  H    0.003752  -0.002987  -0.024696   0.568722   0.004063  -0.003597
    23  H    0.001634  -0.000050  -0.002811   0.004063   0.509913  -0.025030
    24  H   -0.000069  -0.000090  -0.002049  -0.003597  -0.025030   0.541046
    25  H   -0.000027   0.000011  -0.000086  -0.000082  -0.002107  -0.002370
    26  H    0.000023  -0.000035  -0.000074   0.002466   0.003824  -0.002787
    27  H    0.000079  -0.000000  -0.000000   0.000000  -0.000022  -0.000000
              25         26         27
     1  O    0.000000   0.000000   0.005034
     2  N   -0.000000  -0.000000  -0.000269
     3  O    0.000000   0.000000  -0.000002
     4  C    0.000018   0.000007  -0.068317
     5  C   -0.000001  -0.000003   0.002471
     6  N   -0.000073  -0.000068   0.000062
     7  C    0.004983  -0.004449  -0.000430
     8  H   -0.000005   0.001638   0.000010
     9  C   -0.000366   0.001029  -0.000066
    10  C    0.004095  -0.002373   0.000006
    11  C   -0.034003  -0.042352   0.000004
    12  C    0.395452   0.394774  -0.000016
    13  C   -0.034557  -0.044789   0.005128
    14  H   -0.002638  -0.000914  -0.000195
    15  N    0.000645   0.004194  -0.041053
    16  C   -0.000067  -0.000062   0.403388
    17  H   -0.000000   0.000000  -0.000062
    18  H    0.000002  -0.000001   0.000003
    19  H   -0.000027   0.000023   0.000079
    20  H    0.000011  -0.000035  -0.000000
    21  H   -0.000086  -0.000074  -0.000000
    22  H   -0.000082   0.002466   0.000000
    23  H   -0.002107   0.003824  -0.000022
    24  H   -0.002370  -0.002787  -0.000000
    25  H    0.511151  -0.023077  -0.000010
    26  H   -0.023077   0.560731   0.000001
    27  H   -0.000010   0.000001   0.460348
 Mulliken charges:
               1
     1  O   -0.455332
     2  N    0.502259
     3  O   -0.483440
     4  C   -0.014866
     5  C    0.200404
     6  N   -0.796388
     7  C    0.062103
     8  H    0.178265
     9  C   -0.311801
    10  C   -0.321236
    11  C   -0.315342
    12  C   -0.312460
    13  C   -0.029699
    14  H    0.194323
    15  N   -0.492655
    16  C    0.126102
    17  H    0.282411
    18  H    0.397966
    19  H    0.190131
    20  H    0.154058
    21  H    0.172590
    22  H    0.149409
    23  H    0.191211
    24  H    0.162668
    25  H    0.183111
    26  H    0.152299
    27  H    0.233910
 Sum of Mulliken charges =  -0.00000
 Mulliken charges with hydrogens summed into heavy atoms:
               1
     1  O   -0.455332
     2  N    0.502259
     3  O   -0.483440
     4  C   -0.014866
     5  C    0.482814
     6  N   -0.398422
     7  C    0.240368
     9  C    0.032388
    10  C    0.000763
    11  C    0.038537
    12  C    0.022950
    13  C    0.164624
    15  N   -0.492655
    16  C    0.360012
 Electronic spatial extent (au):  <R**2>=           3135.7582
 Charge=             -0.0000 electrons
 Dipole moment (field-independent basis, Debye):
    X=              5.3145    Y=              4.5038    Z=              0.3896  Tot=              6.9771
 Quadrupole moment (field-independent basis, Debye-Ang):
   XX=           -105.3420   YY=            -80.4811   ZZ=            -82.2508
   XY=             -2.0448   XZ=              1.3479   YZ=             -0.2117
 Traceless Quadrupole moment (field-independent basis, Debye-Ang):
   XX=            -15.9840   YY=              8.8768   ZZ=              7.1072
   XY=             -2.0448   XZ=              1.3479   YZ=             -0.2117
 Octapole moment (field-independent basis, Debye-Ang**2):
  XXX=            101.5536  YYY=             37.0222  ZZZ=             -6.0860  XYY=             -0.5877
  XXY=             12.3781  XXZ=             -2.9584  XZZ=             -8.1382  YZZ=             -2.7538
  YYZ=              0.1973  XYZ=             -1.1816
 Hexadecapole moment (field-independent basis, Debye-Ang**3):
 XXXX=          -3576.8266 YYYY=           -616.7765 ZZZZ=           -299.8408 XXXY=            -48.1702
 XXXZ=             44.5406 YYYX=            -26.6295 YYYZ=              9.0056 ZZZX=             29.8499
 ZZZY=              9.0221 XXYY=           -659.9443 XXZZ=           -546.9476 YYZZ=           -163.7763
 XXYZ=              0.8066 YYXZ=             12.7179 ZZXY=              0.9848
 N-N= 9.171665076539D+02 E-N=-3.380311339917D+03  KE= 6.588590987451D+02
 Calling FoFJK, ICntrl=  10002127 FMM=F ISym2X=0 I1Cent= 0 IOpClX= 0 NMat=1 NMatS=1 NMatT=0.
 -------------------------------------------------------------------
 Center     Atomic                   Forces (Hartrees/Bohr)
 Number     Number              X              Y              Z
 -------------------------------------------------------------------
      1        8           0.001651317   -0.019099508   -0.004413284
      2        7           0.040763529    0.014614967   -0.000459182
      3        8          -0.006387555    0.015464150    0.003650112
      4        6           0.011627831    0.012359095    0.009123837
      5        6          -0.004855843   -0.013705876   -0.004670128
      6        7           0.014042823   -0.012791866   -0.006607761
      7        6          -0.004203840    0.005365149    0.003351955
      8        1          -0.009748741   -0.001746992   -0.007765773
      9        6          -0.004038841    0.000095383   -0.002140143
     10        6           0.002826189   -0.000850463    0.001071924
     11        6          -0.001304515   -0.004656231   -0.002496373
     12        6           0.000920620   -0.008784687   -0.002570137
     13        6           0.010154184   -0.003424594    0.006286977
     14        1           0.001004334    0.004895421   -0.009634952
     15        7          -0.001957498    0.004469963   -0.001391201
     16        6          -0.025821709    0.000110031    0.003743228
     17        1           0.006672723   -0.004821766   -0.007038331
     18        1          -0.017990192   -0.001460497    0.006906881
     19        1           0.003057851    0.005906686    0.007794601
     20        1          -0.003286352   -0.007249816    0.002599643
     21        1          -0.004456613    0.002432587    0.009566065
     22        1          -0.003898066   -0.003988701   -0.007444933
     23        1           0.003979541    0.006167463    0.009297415
     24        1          -0.009348486    0.002657777   -0.002203812
     25        1          -0.000598210    0.010536966   -0.002362721
     26        1          -0.004776629   -0.004824482   -0.004392298
     27        1           0.005972148    0.002329842    0.002198392
 -------------------------------------------------------------------
 Cartesian Forces:  Max     0.040763529 RMS     0.008778549

 GradGradGradGradGradGradGradGradGradGradGradGradGradGradGradGradGradGrad
 Berny optimization.
 FormGI is forming the generalized inverse of G from B-inverse, IUseBI=4.
 Internal  Forces:  Max     0.037511901 RMS     0.007115038
 Search for a local minimum.
 Step number   1 out of a maximum of   20
 All quantities printed in internal units (Hartrees-Bohrs-Radians)
 Mixed Optimization -- RFO/linear search
 Second derivative matrix not updated -- first step.
 ITU=  0
     Eigenvalues ---    0.00230   0.00771   0.01025   0.01141   0.01196
     Eigenvalues ---    0.01530   0.01546   0.01633   0.01984   0.02021
     Eigenvalues ---    0.02064   0.02709   0.03697   0.04507   0.04696
     Eigenvalues ---    0.04841   0.05093   0.05139   0.05308   0.05922
     Eigenvalues ---    0.06252   0.07333   0.07698   0.07733   0.07887
     Eigenvalues ---    0.07989   0.08051   0.08072   0.10457   0.11746
     Eigenvalues ---    0.12275   0.13740   0.15402   0.15988   0.15995
     Eigenvalues ---    0.16507   0.20130   0.21948   0.24962   0.25000
     Eigenvalues ---    0.25000   0.25417   0.26172   0.26646   0.27968
     Eigenvalues ---    0.28086   0.28447   0.30400   0.30451   0.31445
     Eigenvalues ---    0.32041   0.32237   0.32291   0.32381   0.32390
     Eigenvalues ---    0.32408   0.32521   0.32526   0.32577   0.33163
     Eigenvalues ---    0.33392   0.33605   0.35436   0.43578   0.43888
     Eigenvalues ---    0.48792   0.66446   0.90662   0.913581000.00000
     Eigenvalues --- 1000.000001000.000001000.000001000.000001000.00000
     Eigenvalues --- 1000.000001000.000001000.000001000.000001000.00000
     Eigenvalues --- 1000.000001000.000001000.000001000.000001000.00000
     Eigenvalues --- 1000.000001000.000001000.000001000.000001000.00000
     Eigenvalues --- 1000.000001000.000001000.000001000.000001000.00000
     Eigenvalues --- 1000.000001000.000001000.000001000.000001000.00000
     Eigenvalues --- 1000.000001000.000001000.000001000.000001000.00000
     Eigenvalues --- 1000.000001000.000001000.000001000.000001000.00000
     Eigenvalues --- 1000.000001000.000001000.000001000.000001000.00000
     Eigenvalues --- 1000.000001000.000001000.000001000.000001000.00000
     Eigenvalues --- 1000.000001000.000001000.000001000.000001000.00000
     Eigenvalues --- 1000.000001000.000001000.000001000.000001000.00000
     Eigenvalues --- 1000.000001000.000001000.000001000.000001000.00000
     Eigenvalues --- 1000.000001000.000001000.000001000.000001000.00000
     Eigenvalues --- 1000.000001000.000001000.000001000.000001000.00000
     Eigenvalues --- 1000.000001000.000001000.000001000.000001000.00000
     Eigenvalues --- 1000.000001000.000001000.000001000.000001000.00000
     Eigenvalues --- 1000.000001000.000001000.000001000.000001000.00000
     Eigenvalues --- 1000.00000
 RFO step:  Lambda=-2.31756971D-02 EMin= 2.30012334D-03
 Linear search not attempted -- first point.
 Iteration  1 RMS(Cart)=  0.05227732 RMS(Int)=  0.00112569
 Iteration  2 RMS(Cart)=  0.00121394 RMS(Int)=  0.00022095
 Iteration  3 RMS(Cart)=  0.00000097 RMS(Int)=  0.00022095
 Iteration  1 RMS(Cart)=  0.00002186 RMS(Int)=  0.00002154
 Iteration  2 RMS(Cart)=  0.00001486 RMS(Int)=  0.00002308
 Iteration  3 RMS(Cart)=  0.00001075 RMS(Int)=  0.00002601
 Iteration  4 RMS(Cart)=  0.00000827 RMS(Int)=  0.00002911
 Iteration  5 RMS(Cart)=  0.00000666 RMS(Int)=  0.00003201
 Iteration  6 RMS(Cart)=  0.00000554 RMS(Int)=  0.00003465
 Iteration  7 RMS(Cart)=  0.00000469 RMS(Int)=  0.00003699
 Iteration  8 RMS(Cart)=  0.00000402 RMS(Int)=  0.00003908
 Iteration  9 RMS(Cart)=  0.00000346 RMS(Int)=  0.00004091
 Iteration 10 RMS(Cart)=  0.00000299 RMS(Int)=  0.00004253
 Iteration 11 RMS(Cart)=  0.00000259 RMS(Int)=  0.00004395
 Iteration 12 RMS(Cart)=  0.00000225 RMS(Int)=  0.00004519
 Iteration 13 RMS(Cart)=  0.00000195 RMS(Int)=  0.00004628
 Iteration 14 RMS(Cart)=  0.00000169 RMS(Int)=  0.00004723
 Iteration 15 RMS(Cart)=  0.00000147 RMS(Int)=  0.00004806
 Iteration 16 RMS(Cart)=  0.00000128 RMS(Int)=  0.00004878
 Iteration 17 RMS(Cart)=  0.00000112 RMS(Int)=  0.00004941
 Iteration 18 RMS(Cart)=  0.00000097 RMS(Int)=  0.00004997
 Variable       Old X    -DE/DX   Delta X   Delta X   Delta X     New X
                                 (Linear)    (Quad)   (Total)
    R1        2.32314   0.01828   0.00000   0.01952   0.01952   2.34265
    R2        2.32629   0.01634   0.00000   0.01757   0.01757   2.34387
    R3        2.87172  -0.03751   0.00000  -0.11465  -0.11465   2.75707
    R4        2.64931  -0.03666   0.00000  -0.07315  -0.07304   2.57627
    R5        2.81488  -0.02205   0.00000  -0.05410  -0.05411   2.76077
    R6        2.59302  -0.02552   0.00000  -0.04910  -0.04893   2.54409
    R7        2.08368  -0.00957   0.00000  -0.02681  -0.02681   2.05687
    R8        2.82119  -0.01775   0.00000  -0.05637  -0.05625   2.76494
    R9        1.93288  -0.00668   0.00000  -0.01446  -0.01446   1.91843
   R10        2.11871  -0.01174   0.00000  -0.03478  -0.03478   2.08393
   R11        2.92731  -0.01317   0.00000  -0.04544  -0.04543   2.88188
   R12        2.89781  -0.00347   0.00000  -0.01423  -0.01413   2.88368
   R13        2.91128  -0.00459   0.00000  -0.01419  -0.01425   2.89703
   R14        2.09900  -0.01003   0.00000  -0.02879  -0.02879   2.07021
   R15        2.09892  -0.00795   0.00000  -0.02282  -0.02282   2.07609
   R16        2.90437  -0.00172   0.00000  -0.00687  -0.00695   2.89742
   R17        2.10136  -0.01058   0.00000  -0.03047  -0.03047   2.07089
   R18        2.10315  -0.00901   0.00000  -0.02603  -0.02603   2.07712
   R19        2.91814  -0.00913   0.00000  -0.02853  -0.02853   2.88961
   R20        2.10413  -0.01170   0.00000  -0.03387  -0.03387   2.07026
   R21        2.10103  -0.00994   0.00000  -0.02863  -0.02863   2.07240
   R22        2.93542  -0.01050   0.00000  -0.03629  -0.03624   2.89918
   R23        2.10152  -0.01066   0.00000  -0.03073  -0.03073   2.07079
   R24        2.09800  -0.00787   0.00000  -0.02255  -0.02255   2.07545
   R25        2.10769  -0.00900   0.00000  -0.02618  -0.02618   2.08151
   R26        2.76392  -0.00338   0.00000  -0.01223  -0.01246   2.75146
   R27        2.44424  -0.00780   0.00000  -0.00903  -0.00921   2.43503
   R28        2.08001  -0.00552   0.00000  -0.01536  -0.01536   2.06465
    A1        2.16611   0.00953   0.00000   0.03488   0.03488   2.20098
    A2        2.05102  -0.00720   0.00000  -0.02637  -0.02638   2.02465
    A3        2.06605  -0.00232   0.00000  -0.00851  -0.00851   2.05754
    A4        2.06057  -0.01145   0.00000  -0.01007  -0.01058   2.04999
    A5        2.05791  -0.00670   0.00000   0.00761   0.00699   2.06490
    A6        2.16336   0.01807   0.00000   0.00000  -0.00000   2.16336
    A7        2.22331   0.00133   0.00000   0.03047   0.03060   2.25392
    A8        2.05075  -0.00035   0.00000  -0.01330  -0.01348   2.03727
    A9        2.00829  -0.00094   0.00000  -0.01628  -0.01648   1.99182
   A10        2.25271  -0.00491   0.00000  -0.01132  -0.01123   2.24148
   A11        2.11844  -0.01328   0.00000  -0.07882  -0.07922   2.03922
   A12        1.87685   0.01845   0.00000   0.09676   0.09684   1.97369
   A13        1.83925  -0.00162   0.00000  -0.01659  -0.01633   1.82292
   A14        2.00999  -0.00138   0.00000  -0.01039  -0.01050   1.99949
   A15        1.95944   0.00162   0.00000  -0.00191  -0.00235   1.95709
   A16        1.85151   0.00277   0.00000   0.02340   0.02320   1.87471
   A17        1.85001   0.00067   0.00000   0.01699   0.01684   1.86685
   A18        1.93984  -0.00176   0.00000  -0.00753  -0.00721   1.93262
   A19        1.90973   0.00017   0.00000  -0.00525  -0.00542   1.90431
   A20        1.92358  -0.00074   0.00000  -0.01309  -0.01305   1.91053
   A21        1.92250  -0.00168   0.00000  -0.00710  -0.00708   1.91542
   A22        1.91938  -0.00042   0.00000   0.00566   0.00561   1.92499
   A23        1.90436   0.00306   0.00000   0.02495   0.02498   1.92933
   A24        1.88409  -0.00036   0.00000  -0.00470  -0.00496   1.87913
   A25        1.94000  -0.00068   0.00000   0.00553   0.00539   1.94539
   A26        1.91908  -0.00075   0.00000  -0.00681  -0.00681   1.91227
   A27        1.90507   0.00026   0.00000  -0.00279  -0.00285   1.90221
   A28        1.91625   0.00072   0.00000   0.00710   0.00715   1.92340
   A29        1.89850   0.00165   0.00000   0.01120   0.01124   1.90974
   A30        1.88391  -0.00120   0.00000  -0.01469  -0.01478   1.86913
   A31        1.94486   0.00067   0.00000   0.00596   0.00613   1.95099
   A32        1.90216   0.00062   0.00000   0.00474   0.00470   1.90686
   A33        1.91771   0.00034   0.00000   0.00585   0.00579   1.92350
   A34        1.90609  -0.00107   0.00000  -0.01397  -0.01404   1.89205
   A35        1.91546  -0.00053   0.00000  -0.00023  -0.00034   1.91512
   A36        1.87617  -0.00007   0.00000  -0.00277  -0.00279   1.87338
   A37        1.94969  -0.00320   0.00000  -0.01836  -0.01841   1.93128
   A38        1.90571   0.00263   0.00000   0.01675   0.01660   1.92231
   A39        1.91009   0.00142   0.00000   0.01353   0.01351   1.92360
   A40        1.90590   0.00028   0.00000  -0.00153  -0.00138   1.90452
   A41        1.91057  -0.00012   0.00000  -0.00559  -0.00551   1.90506
   A42        1.88057  -0.00094   0.00000  -0.00431  -0.00449   1.87608
   A43        1.84750   0.00470   0.00000   0.02668   0.02671   1.87421
   A44        1.94292  -0.00474   0.00000  -0.03095  -0.03152   1.91140
   A45        1.97420   0.00106   0.00000  -0.00298  -0.00290   1.97131
   A46        1.88030   0.00225   0.00000   0.03181   0.03214   1.91244
   A47        1.89292  -0.00393   0.00000  -0.02401  -0.02389   1.86902
   A48        1.92157   0.00086   0.00000   0.00235   0.00226   1.92383
   A49        2.07872  -0.00555   0.00000  -0.00695  -0.00717   2.07155
   A50        2.26842  -0.00899   0.00000  -0.00981  -0.00986   2.25855
   A51        1.96787   0.00847   0.00000   0.02653   0.02642   1.99429
   A52        2.04640   0.00061   0.00000  -0.01597  -0.01609   2.03031
    D1       -3.05095  -0.00146   0.00000  -0.04885  -0.04889  -3.09984
    D2        0.14414  -0.00051   0.00000   0.00000   0.00000   0.14414
    D3        0.09248  -0.00103   0.00000  -0.04622  -0.04624   0.04624
    D4       -2.99562  -0.00008   0.00000   0.00263   0.00265  -2.99297
    D5        3.08866  -0.00004   0.00000   0.01755   0.01707   3.10573
    D6       -0.00691  -0.00092   0.00000  -0.00680  -0.00723  -0.01414
    D7       -0.10992  -0.00196   0.00000  -0.03427  -0.03462  -0.14454
    D8        3.07770  -0.00284   0.00000  -0.05862  -0.05893   3.01877
    D9       -2.64350  -0.00299   0.00000  -0.03790  -0.03854  -2.68204
   D10        0.46278   0.00044   0.00000  -0.01138  -0.01153   0.45124
   D11        0.55500  -0.00093   0.00000   0.01438   0.01410   0.56910
   D12       -2.62191   0.00250   0.00000   0.04090   0.04111  -2.58080
   D13       -0.18436  -0.00005   0.00000   0.03063   0.03086  -0.15349
   D14        2.63861   0.00403   0.00000   0.07506   0.07418   2.71279
   D15        2.91217   0.00082   0.00000   0.05450   0.05468   2.96684
   D16       -0.54806   0.00490   0.00000   0.09893   0.09800  -0.45006
   D17       -2.43702  -0.00077   0.00000  -0.02551  -0.02500  -2.46203
   D18        1.81230  -0.00235   0.00000  -0.03769  -0.03713   1.77517
   D19       -0.43111  -0.00011   0.00000  -0.01588  -0.01561  -0.44672
   D20        0.98887  -0.00031   0.00000  -0.04190  -0.04247   0.94640
   D21       -1.04500  -0.00189   0.00000  -0.05408  -0.05460  -1.09959
   D22        2.99478   0.00034   0.00000  -0.03227  -0.03308   2.96170
   D23        2.95039   0.00220   0.00000   0.02800   0.02795   2.97835
   D24       -1.22013   0.00132   0.00000   0.02335   0.02332  -1.19681
   D25        0.85696  -0.00064   0.00000   0.00495   0.00499   0.86195
   D26        0.92350   0.00313   0.00000   0.03866   0.03867   0.96217
   D27        3.03617   0.00225   0.00000   0.03401   0.03403   3.07020
   D28       -1.16993   0.00029   0.00000   0.01561   0.01571  -1.15422
   D29       -1.07968   0.00166   0.00000   0.00924   0.00918  -1.07050
   D30        1.03298   0.00078   0.00000   0.00459   0.00454   1.03752
   D31        3.11007  -0.00118   0.00000  -0.01381  -0.01379   3.09629
   D32       -2.90347  -0.00101   0.00000  -0.01388  -0.01375  -2.91722
   D33       -0.86508   0.00195   0.00000   0.02354   0.02322  -0.84186
   D34        1.30937   0.00018   0.00000   0.00000   0.00001   1.30939
   D35       -0.90411  -0.00174   0.00000  -0.02473  -0.02466  -0.92877
   D36        1.13427   0.00122   0.00000   0.01269   0.01231   1.14659
   D37       -2.97446  -0.00055   0.00000  -0.01085  -0.01089  -2.98535
   D38        1.10000   0.00103   0.00000   0.00868   0.00876   1.10876
   D39        3.13839   0.00399   0.00000   0.04609   0.04573  -3.09907
   D40       -0.97034   0.00222   0.00000   0.02255   0.02252  -0.94782
   D41        0.95666   0.00067   0.00000   0.00000   0.00001   0.95667
   D42        3.08226   0.00062   0.00000   0.00802   0.00797   3.09024
   D43       -1.13743  -0.00113   0.00000  -0.01554  -0.01550  -1.15294
   D44       -1.15854   0.00174   0.00000   0.01598   0.01606  -1.14249
   D45        0.96706   0.00169   0.00000   0.02399   0.02402   0.99108
   D46        3.03055  -0.00005   0.00000   0.00044   0.00054   3.03109
   D47        3.06118   0.00060   0.00000   0.00343   0.00339   3.06457
   D48       -1.09640   0.00054   0.00000   0.01145   0.01136  -1.08504
   D49        0.96709  -0.00120   0.00000  -0.01211  -0.01212   0.95497
   D50       -0.92193  -0.00086   0.00000   0.00000   0.00001  -0.92192
   D51        1.18276  -0.00136   0.00000  -0.01052  -0.01052   1.17224
   D52       -3.04884  -0.00088   0.00000  -0.00771  -0.00775  -3.05660
   D53       -3.04918   0.00005   0.00000   0.00009   0.00012  -3.04906
   D54       -0.94449  -0.00045   0.00000  -0.01043  -0.01041  -0.95491
   D55        1.10709   0.00003   0.00000  -0.00762  -0.00764   1.09945
   D56        1.17606   0.00011   0.00000   0.00719   0.00722   1.18328
   D57       -3.00244  -0.00039   0.00000  -0.00333  -0.00331  -3.00575
   D58       -0.95086   0.00009   0.00000  -0.00052  -0.00054  -0.95140
   D59        0.98521  -0.00076   0.00000  -0.01557  -0.01557   0.96964
   D60        3.09510  -0.00070   0.00000  -0.01805  -0.01818   3.07692
   D61       -1.13351   0.00052   0.00000  -0.00569  -0.00564  -1.13916
   D62       -1.11717  -0.00126   0.00000  -0.01604  -0.01601  -1.13318
   D63        0.99272  -0.00120   0.00000  -0.01852  -0.01863   0.97410
   D64        3.04729   0.00002   0.00000  -0.00616  -0.00609   3.04121
   D65        3.11343  -0.00024   0.00000  -0.00435  -0.00432   3.10911
   D66       -1.05986  -0.00018   0.00000  -0.00683  -0.00694  -1.06680
   D67        0.99471   0.00104   0.00000   0.00553   0.00560   1.00031
   D68       -1.04766  -0.00012   0.00000   0.00442   0.00451  -1.04315
   D69       -3.12784   0.00180   0.00000   0.01044   0.01000  -3.11784
   D70        1.07583   0.00169   0.00000   0.00307   0.00294   1.07878
   D71        3.12575  -0.00155   0.00000  -0.00373  -0.00354   3.12221
   D72        1.04556   0.00037   0.00000   0.00229   0.00196   1.04752
   D73       -1.03395   0.00026   0.00000  -0.00508  -0.00510  -1.03904
   D74        1.07079  -0.00051   0.00000   0.00560   0.00583   1.07662
   D75       -1.00940   0.00141   0.00000   0.01162   0.01133  -0.99807
   D76       -3.08891   0.00130   0.00000   0.00425   0.00427  -3.08463
   D77       -1.17216   0.00416   0.00000   0.00000   0.00001  -1.17215
   D78        3.06720   0.00026   0.00000  -0.01566  -0.01578   3.05142
   D79        1.01385  -0.00063   0.00000  -0.04128  -0.04166   0.97219
   D80        0.07140   0.00443   0.00000   0.00479   0.00480   0.07620
   D81       -3.03356   0.00075   0.00000  -0.02344  -0.02338  -3.05694
         Item               Value     Threshold  Converged?
 Maximum Force            0.037512     0.000450     NO 
 RMS     Force            0.006855     0.000300     NO 
 Maximum Displacement     0.244498     0.001800     NO 
 RMS     Displacement     0.052536     0.001200     NO 
 Predicted change in Energy=-1.303371D-02
 GradGradGradGradGradGradGradGradGradGradGradGradGradGradGradGradGradGrad

                          Input orientation:                          
 ---------------------------------------------------------------------
 Center     Atomic      Atomic             Coordinates (Angstroms)
 Number     Number       Type             X           Y           Z
 ---------------------------------------------------------------------
      1          8           0       -3.507530   -1.441696   -0.224364
      2          7           0       -3.165054   -0.270806   -0.004072
      3          8           0       -3.925447    0.684034    0.216109
      4          6           0       -1.729351   -0.011467   -0.014867
      5          6           0       -1.317329    1.255736    0.273290
      6          7           0       -0.065293    1.741818    0.365927
      7          6           0        1.199172    1.005766    0.353906
      8          1           0        1.826384    1.524251    1.098136
      9          6           0        1.943066    1.045290   -0.976795
     10          6           0        3.341021    0.444951   -0.788284
     11          6           0        3.270087   -0.964916   -0.189869
     12          6           0        2.435831   -0.996301    1.091235
     13          6           0        1.032029   -0.432101    0.836815
     14          1           0        0.455309   -0.440403    1.775219
     15          7           0        0.397699   -1.292772   -0.151539
     16          6           0       -0.835731   -1.079224   -0.457210
     17          1           0       -2.095398    1.988751    0.478281
     18          1           0        0.052451    2.737878    0.209057
     19          1           0        1.382437    0.474973   -1.725511
     20          1           0        2.013624    2.082538   -1.331909
     21          1           0        3.863242    0.421436   -1.751435
     22          1           0        3.922984    1.096322   -0.121053
     23          1           0        2.812054   -1.643681   -0.917662
     24          1           0        4.279699   -1.340084    0.016544
     25          1           0        2.348087   -2.024730    1.459257
     26          1           0        2.924808   -0.405073    1.877095
     27          1           0       -1.296852   -1.796479   -1.140299
 ---------------------------------------------------------------------
                    Distance matrix (angstroms):
                    1          2          3          4          5
     1  O    0.000000
     2  N    1.239678   0.000000
     3  O    2.210747   1.240322   0.000000
     4  C    2.291585   1.458977   2.315148   0.000000
     5  C    3.510097   2.412747   2.670654   1.363305   0.000000
     6  N    4.725696   3.714307   4.005265   2.447061   1.346274
     7  C    5.336432   4.561167   5.136557   3.122019   2.530170
     8  H    6.244716   5.417706   5.879413   4.029945   3.261197
     9  C    6.038232   5.363878   5.999414   3.940646   3.498168
    10  C    7.126015   6.592140   7.339450   5.149289   4.846085
    11  C    6.794453   6.475132   7.393210   5.092550   5.117636
    12  C    6.103500   5.752908   6.637412   4.420646   4.452743
    13  C    4.770008   4.283527   5.119336   2.920191   2.947175
    14  H    4.550276   4.037533   4.783953   2.856771   2.876618
    15  N    3.908745   3.709362   4.767863   2.486918   3.101080
    16  C    2.706309   2.506914   3.620605   1.460935   2.493513
    17  H    3.775685   2.546061   2.262764   2.092381   1.088450
    18  H    5.507282   4.410208   4.476828   3.283878   2.019199
    19  H    5.462494   4.919269   5.655725   3.584153   3.448700
    20  H    6.643043   5.841240   6.294818   4.486571   3.788867
    21  H    7.754449   7.275261   8.037653   5.871982   5.624401
    22  H    7.852691   7.219627   7.866482   5.760848   5.257548
    23  H    6.360707   6.200423   7.217868   4.909534   5.184283
    24  H    7.791617   7.521178   8.453479   6.154259   6.175025
    25  H    6.120683   5.967604   6.945506   4.780353   5.059966
    26  H    6.845852   6.375205   7.132393   5.039410   4.829722
    27  H    2.419070   2.666245   3.860349   2.154047   3.363728
                    6          7          8          9         10
     6  N    0.000000
     7  C    1.463143   0.000000
     8  H    2.040075   1.102769   0.000000
     9  C    2.514271   1.525026   2.132687   0.000000
    10  C    3.823224   2.491312   2.649075   1.533043   0.000000
    11  C    4.331290   2.909977   3.152647   2.534001   1.533251
    12  C    3.778755   2.466020   2.593194   2.947484   2.535581
    13  C    2.480277   1.525975   2.127581   2.510349   2.956622
    14  H    2.649382   2.159831   2.489609   3.463277   3.960144
    15  N    3.113016   2.486184   3.396829   2.921599   3.476820
    16  C    3.037995   3.024223   4.035349   3.536275   4.458473
    17  H    2.048152   3.440337   3.997543   4.395060   5.791559
    18  H    1.015187   2.082345   2.325982   2.800986   4.131210
    19  H    2.841642   2.153904   3.044840   1.095509   2.171485
    20  H    2.705666   2.159801   2.500372   1.098620   2.176970
    21  H    4.654032   3.445457   3.672200   2.162484   1.095868
    22  H    4.069419   2.766395   2.462779   2.157539   1.099165
    23  H    4.624752   3.352290   3.882110   2.826518   2.158455
    24  H    5.338459   3.886705   3.923393   3.483760   2.171455
    25  H    4.605069   3.424283   3.605253   3.939977   3.483775
    26  H    3.979130   2.699703   2.352786   3.348441   2.828431
    27  H    4.037945   4.039228   5.078626   4.312709   5.163119
                   11         12         13         14         15
    11  C    0.000000
    12  C    1.529116   0.000000
    13  C    2.519300   1.534181   0.000000
    14  H    3.472701   2.167792   1.101489   0.000000
    15  N    2.891292   2.405487   1.456012   2.107664   0.000000
    16  C    4.116100   3.620453   2.362583   2.656806   1.288560
    17  H    6.161087   5.460612   3.971130   3.753525   4.169004
    18  H    4.921687   4.516949   3.376747   3.566038   4.061448
    19  H    2.827489   3.347887   2.740635   3.735317   2.563595
    20  H    3.488542   3.940702   3.462701   4.295093   3.923927
    21  H    2.170782   3.482565   3.929801   4.979364   4.184276
    22  H    2.163265   2.839074   3.407523   4.240536   4.258678
    23  H    1.095536   2.143901   2.777517   3.775411   2.557185
    24  H    1.096666   2.161711   3.470539   4.304454   3.885926
    25  H    2.166312   1.095813   2.157756   2.488480   2.633333
    26  H    2.169097   1.098283   2.159984   2.471852   3.360008
    27  H    4.738327   4.421872   3.345772   3.661865   2.025554
                   16         17         18         19         20
    16  C    0.000000
    17  H    3.445922   0.000000
    18  H    3.975305   2.290617   0.000000
    19  H    2.990717   4.386748   3.260698   0.000000
    20  H    4.345188   4.491063   2.578807   1.771322   0.000000
    21  H    5.099740   6.552366   4.871505   2.481518   2.521180
    22  H    5.243222   6.113637   4.217192   3.068344   2.466667
    23  H    3.719807   6.263091   5.299336   2.680508   3.833249
    24  H    5.143940   7.206678   5.876773   3.837097   4.320620
    25  H    3.834518   6.067529   5.432806   4.162180   4.977160
    26  H    4.477178   5.734941   4.572847   4.016486   4.161270
    27  H    1.092564   4.193499   4.919529   3.560978   5.103208
                   21         22         23         24         25
    21  H    0.000000
    22  H    1.765555   0.000000
    23  H    2.462698   3.062086   0.000000
    24  H    2.530245   2.466223   1.766039   0.000000
    25  H    4.311377   3.836490   2.451572   2.506249   0.000000
    26  H    3.837969   2.691309   3.059008   2.484276   1.769318
    27  H    5.649709   6.054243   4.117770   5.713537   4.482786
                   26         27
    26  H    0.000000
    27  H    5.372439   0.000000
 Symmetry turned off by external request.
 Stoichiometry    C9H13N3O2
 Framework group  C1[X(C9H13N3O2)]
 Deg. of freedom    75
 Full point group                 C1      NOp   1
 Rotational constants (GHZ):           1.7065551           0.4160104           0.3690146
 Standard basis: 6-31G(d) (6D, 7F)
   236 basis functions,   444 primitive gaussians,   236 cartesian basis functions
    52 alpha electrons       52 beta electrons
       nuclear repulsion energy       930.9114532823 Hartrees.
 NAtoms=   27 NActive=   27 NUniq=   27 SFac= 1.00D+00 NAtFMM=   60 NAOKFM=F Big=F
 Integral buffers will be    131072 words long.
 Raffenetti 1 integral format.
 Two-electron integral symmetry is turned off.
 One-electron integrals computed using PRISM.
 NBasis=   236 RedAO= T EigKep=  1.06D-03  NBF=   236
 NBsUse=   236 1.00D-06 EigRej= -1.00D+00 NBFU=   236
 Initial guess from the checkpoint file:  "/home/alexey/tmp/Gau-1369717.chk"
 B after Tr=     0.048822    0.006037   -0.001241
         Rot=    0.999998   -0.001417    0.001068    0.001209 Ang=  -0.25 deg.
 ExpMin= 1.61D-01 ExpMax= 5.48D+03 ExpMxC= 8.25D+02 IAcc=3 IRadAn=         5 AccDes= 0.00D+00
 Harris functional with IExCor=  205 and IRadAn=       5 diagonalized for initial guess.
 HarFok:  IExCor=  205 AccDes= 0.00D+00 IRadAn=         5 IDoV= 1 UseB2=F ITyADJ=14
 ICtDFT=  3500011 ScaDFX=  1.000000  1.000000  1.000000  1.000000
 FoFCou: FMM=F IPFlag=           0 FMFlag=      100000 FMFlg1=           0
         NFxFlg=           0 DoJE=T BraDBF=F KetDBF=T FulRan=T
         wScrn=  0.000000 ICntrl=       500 IOpCl=  0 I1Cent=   200000004 NGrid=           0
         NMat0=    1 NMatS0=      1 NMatT0=    0 NMatD0=    1 NMtDS0=    0 NMtDT0=    0
 Symmetry not used in FoFCou.
 Keep R1 ints in memory in canonical form, NReq=397720213.
 Requested convergence on RMS density matrix=1.00D-08 within 128 cycles.
 Requested convergence on MAX density matrix=1.00D-06.
 Requested convergence on             energy=1.00D-06.
 No special actions if energy rises.
 SCF Done:  E(RHF) =  -661.296981563     A.U. after   15 cycles
            NFock= 15  Conv=0.44D-08     -V/T= 2.0025
 ExpMin= 1.61D-01 ExpMax= 5.48D+03 ExpMxC= 8.25D+02 IAcc=3 IRadAn=         5 AccDes= 0.00D+00
 HarFok:  IExCor=  205 AccDes= 0.00D+00 IRadAn=         5 IDoV=-2 UseB2=F ITyADJ=14
 ICtDFT= 12500011 ScaDFX=  1.000000  1.000000  1.000000  1.000000
 Range of M.O.s used for correlation:    15   236
 NBasis=   236 NAE=    52 NBE=    52 NFC=    14 NFV=     0
 NROrb=    222 NOA=    38 NOB=    38 NVA=   184 NVB=   184
 Fully direct method using O(ONN) memory.
 JobTyp=1 Pass  1:  I=  15 to  52 NPSUse=  4 ParTrn=T ParDer=T DoDerP=T.
 Spin components of T(2) and E(2):
     alpha-alpha T2 =       0.9123014808D-01 E2=     -0.2722942340D+00
     alpha-beta  T2 =       0.4914950601D+00 E2=     -0.1488224830D+01
     beta-beta   T2 =       0.9123014808D-01 E2=     -0.2722942340D+00
 ANorm=    0.1293814267D+01
 E2 =    -0.2032813298D+01 EUMP2 =    -0.66332979486191D+03
          IDoAtm=111111111111111111111111111
          Differentiating once with respect to electric field.
                with respect to dipole field.
          Differentiating once with respect to nuclear coordinates.
 Keep R1 ints in memory in canonical form, NReq=397723379.
          There are     1 degrees of freedom in the 1st order CPHF.  IDoFFX=0 NUNeed=     1.
 LinEq1:  Iter=  0 NonCon=     1 RMS=4.56D-03 Max=1.06D-01 NDo=     1
 AX will form     1 AO Fock derivatives at one time.
 LinEq1:  Iter=  1 NonCon=     1 RMS=1.53D-03 Max=2.71D-02 NDo=     1
 LinEq1:  Iter=  2 NonCon=     1 RMS=6.39D-04 Max=1.76D-02 NDo=     1
[...]
    27  H    4.708528   4.414697   3.354833   3.668699   2.023760
                   16         17         18         19         20
    16  C    0.000000
    17  H    3.440280   0.000000
    18  H    4.048135   2.217475   0.000000
    19  H    2.972156   4.309555   3.495744   0.000000
    20  H    4.351404   4.452784   2.869607   1.768549   0.000000
    21  H    5.084582   6.512772   5.078371   2.498941   2.521336
    22  H    5.235141   6.095741   4.312896   3.070172   2.460453
    23  H    3.699018   6.235031   5.414361   2.706333   3.843713
    24  H    5.135541   7.195966   5.935105   3.851093   4.316923
    25  H    3.829276   6.078254   5.372223   4.172717   4.985843
    26  H    4.496205   5.774830   4.499107   4.042251   4.188115
    27  H    1.090829   4.195481   5.032283   3.539691   5.104414
                   21         22         23         24         25
    21  H    0.000000
    22  H    1.758797   0.000000
    23  H    2.468615   3.061884   0.000000
    24  H    2.516936   2.459379   1.764566   0.000000
    25  H    4.312222   3.841577   2.442985   2.521129   0.000000
    26  H    3.849441   2.708551   3.060435   2.489362   1.767721
    27  H    5.618158   6.031548   4.076672   5.683705   4.460167
                   26         27
    26  H    0.000000
    27  H    5.375642   0.000000
 Symmetry turned off by external request.
 Stoichiometry    C9H13N3O2
 Framework group  C1[X(C9H13N3O2)]
 Deg. of freedom    75
 Full point group                 C1      NOp   1
 Rotational constants (GHZ):           1.6938966           0.4154506           0.3702836

 **********************************************************************

            Population analysis using the SCF Density.

 **********************************************************************

 Alpha  occ. eigenvalues --  -20.59268 -20.58942 -15.84851 -15.64277 -15.56128
 Alpha  occ. eigenvalues --  -11.35095 -11.29614 -11.29575 -11.28626 -11.27108
 Alpha  occ. eigenvalues --  -11.23749 -11.23234 -11.22718 -11.22113  -1.57177
 Alpha  occ. eigenvalues --   -1.36766  -1.31117  -1.23094  -1.14765  -1.09886
 Alpha  occ. eigenvalues --   -1.02848  -1.01416  -0.94498  -0.89858  -0.85663
 Alpha  occ. eigenvalues --   -0.82384  -0.78611  -0.77418  -0.75138  -0.72265
 Alpha  occ. eigenvalues --   -0.69795  -0.69546  -0.67897  -0.64903  -0.63774
 Alpha  occ. eigenvalues --   -0.62330  -0.60028  -0.57753  -0.57019  -0.55014
 Alpha  occ. eigenvalues --   -0.54586  -0.50823  -0.50077  -0.48694  -0.48092
 Alpha  occ. eigenvalues --   -0.47410  -0.46200  -0.46096  -0.43701  -0.41692
 Alpha  occ. eigenvalues --   -0.39852  -0.33901
 Alpha virt. eigenvalues --    0.07399   0.11934   0.17286   0.21844   0.24020
 Alpha virt. eigenvalues --    0.25531   0.27148   0.28562   0.29047   0.29676
 Alpha virt. eigenvalues --    0.30735   0.31817   0.32039   0.32745   0.33887
 Alpha virt. eigenvalues --    0.34347   0.35903   0.37198   0.38610   0.40173
 Alpha virt. eigenvalues --    0.41379   0.42532   0.44919   0.46013   0.46584
 Alpha virt. eigenvalues --    0.47181   0.48813   0.53831   0.57354   0.59374
 Alpha virt. eigenvalues --    0.63934   0.69632   0.70283   0.72808   0.74218
 Alpha virt. eigenvalues --    0.75475   0.75758   0.76714   0.78837   0.79350
 Alpha virt. eigenvalues --    0.81028   0.84769   0.85568   0.85888   0.88309
 Alpha virt. eigenvalues --    0.89364   0.90878   0.92164   0.92734   0.94364
 Alpha virt. eigenvalues --    0.95764   0.98108   0.99319   1.01554   1.02343
 Alpha virt. eigenvalues --    1.03103   1.05853   1.06926   1.07521   1.08913
 Alpha virt. eigenvalues --    1.10027   1.11756   1.11796   1.12322   1.13885
 Alpha virt. eigenvalues --    1.14710   1.14920   1.15921   1.16780   1.18661
 Alpha virt. eigenvalues --    1.19204   1.21309   1.22229   1.23573   1.24386
 Alpha virt. eigenvalues --    1.25284   1.25844   1.26755   1.27760   1.29876
 Alpha virt. eigenvalues --    1.30006   1.32738   1.35782   1.36581   1.40590
 Alpha virt. eigenvalues --    1.41350   1.44879   1.48672   1.51676   1.54014
 Alpha virt. eigenvalues --    1.56730   1.59254   1.59367   1.63077   1.66688
 Alpha virt. eigenvalues --    1.68371   1.69515   1.72605   1.74783   1.77149
 Alpha virt. eigenvalues --    1.81269   1.84189   1.87437   1.90999   1.94064
 Alpha virt. eigenvalues --    1.95899   1.97036   1.99451   2.01237   2.02989
 Alpha virt. eigenvalues --    2.04597   2.06147   2.08681   2.09710   2.12432
 Alpha virt. eigenvalues --    2.13118   2.15333   2.18967   2.20134   2.22467
 Alpha virt. eigenvalues --    2.22540   2.24571   2.25865   2.28083   2.29618
 Alpha virt. eigenvalues --    2.31402   2.33873   2.34694   2.36065   2.38731
 Alpha virt. eigenvalues --    2.40230   2.41556   2.43057   2.44531   2.47236
 Alpha virt. eigenvalues --    2.50758   2.51842   2.53238   2.55210   2.62085
 Alpha virt. eigenvalues --    2.62640   2.65212   2.67422   2.70452   2.70498
 Alpha virt. eigenvalues --    2.72141   2.73281   2.76186   2.78686   2.84501
 Alpha virt. eigenvalues --    2.88391   2.89126   2.92847   2.93594   2.96409
 Alpha virt. eigenvalues --    2.99093   3.01691   3.04046   3.05423   3.07719
 Alpha virt. eigenvalues --    3.09389   3.15302   3.21189   3.25283   3.27345
 Alpha virt. eigenvalues --    3.33976   3.37927   3.39739   3.52797   3.64561
 Alpha virt. eigenvalues --    4.13746   4.28980   4.33094   4.38583   4.46824
 Alpha virt. eigenvalues --    4.56818   4.62175   4.62532   4.73368   4.80237
 Alpha virt. eigenvalues --    4.98934   5.00883   5.04338   5.11475
          Condensed to atoms (all electrons):
               1          2          3          4          5          6
     1  O    8.313478   0.307603  -0.081201  -0.085958   0.004510  -0.000014
     2  N    0.307603   5.729901   0.300659   0.258089  -0.049726   0.001013
     3  O   -0.081201   0.300659   8.351110  -0.092443   0.003640   0.000741
     4  C   -0.085958   0.258089  -0.092443   5.237650   0.548886  -0.044805
     5  C    0.004510  -0.049726   0.003640   0.548886   4.710436   0.319571
     6  N   -0.000014   0.001013   0.000741  -0.044805   0.319571   7.196072
     7  C    0.000003  -0.000113   0.000002   0.005244  -0.030086   0.167474
     8  H   -0.000000   0.000002  -0.000000  -0.000333   0.003308  -0.051062
     9  C   -0.000000  -0.000003  -0.000000   0.001022   0.000288  -0.060580
    10  C    0.000000   0.000000   0.000000  -0.000044  -0.000039   0.003735
    11  C   -0.000000  -0.000000  -0.000000  -0.000017   0.000020  -0.000187
    12  C   -0.000000   0.000002  -0.000000  -0.000165  -0.000135   0.003869
    13  C   -0.000022  -0.000041  -0.000004  -0.011230  -0.000699  -0.048829
    14  H   -0.000003  -0.000109   0.000001   0.002902   0.005841  -0.007137
    15  N    0.000359   0.002201  -0.000014  -0.062964  -0.004734   0.001004
    16  C    0.001197  -0.026699   0.002558   0.322584  -0.051072  -0.003573
    17  H    0.000206  -0.007091   0.016794  -0.024666   0.376383  -0.036037
    18  H    0.000001  -0.000046   0.000010   0.001483  -0.032060   0.339184
    19  H    0.000001  -0.000005   0.000000  -0.001224   0.001252  -0.000318
    20  H    0.000000  -0.000000   0.000000  -0.000066   0.000121  -0.000469
    21  H   -0.000000   0.000000  -0.000000   0.000001   0.000001  -0.000077
    22  H   -0.000000   0.000000  -0.000000  -0.000000  -0.000003  -0.000116
    23  H    0.000000  -0.000000   0.000000   0.000038  -0.000002  -0.000030
    24  H    0.000000   0.000000   0.000000   0.000000  -0.000000   0.000006
    25  H    0.000000  -0.000000   0.000000   0.000022  -0.000000  -0.000092
    26  H    0.000000  -0.000000   0.000000   0.000007  -0.000004  -0.000061
    27  H    0.006375  -0.000704   0.000024  -0.065715   0.002480   0.000028
               7          8          9         10         11         12
     1  O    0.000003  -0.000000  -0.000000   0.000000  -0.000000  -0.000000
     2  N   -0.000113   0.000002  -0.000003   0.000000  -0.000000   0.000002
     3  O    0.000002  -0.000000  -0.000000   0.000000  -0.000000  -0.000000
     4  C    0.005244  -0.000333   0.001022  -0.000044  -0.000017  -0.000165
     5  C   -0.030086   0.003308   0.000288  -0.000039   0.000020  -0.000135
     6  N    0.167474  -0.051062  -0.060580   0.003735  -0.000187   0.003869
     7  C    5.015856   0.418603   0.350971  -0.054899  -0.009069  -0.061094
     8  H    0.418603   0.538943  -0.055509   0.000891  -0.000345  -0.001966
     9  C    0.350971  -0.055509   5.158583   0.324548  -0.050245  -0.005517
    10  C   -0.054899   0.000891   0.324548   5.119328   0.337143  -0.060692
    11  C   -0.009069  -0.000345  -0.050245   0.337143   5.119128   0.335832
    12  C   -0.061094  -0.001966  -0.005517  -0.060692   0.335832   5.117892
    13  C    0.340960  -0.038540  -0.059491  -0.000318  -0.050505   0.372092
    14  H   -0.046190  -0.000808   0.004424  -0.000410   0.004193  -0.036430
    15  N   -0.058316   0.004047  -0.015604   0.001508  -0.012763  -0.081946
    16  C   -0.002396   0.000087  -0.001764  -0.000007  -0.000003   0.002663
    17  H    0.001711  -0.000037  -0.000082   0.000001   0.000000   0.000000
    18  H   -0.021309  -0.004414   0.001246  -0.000083   0.000004  -0.000115
    19  H   -0.036713   0.004360   0.390138  -0.031772  -0.002205   0.000713
    20  H   -0.042676  -0.002196   0.399507  -0.035366   0.003938  -0.000418
    21  H    0.004608  -0.000079  -0.036312   0.402437  -0.034858   0.004331
    22  H   -0.004784   0.003557  -0.046996   0.397792  -0.045505  -0.000953
    23  H    0.000579   0.000032  -0.001942  -0.038991   0.399105  -0.037671
    24  H   -0.000130  -0.000101   0.004389  -0.038479   0.402379  -0.038757
    25  H    0.005145  -0.000030  -0.000416   0.004172  -0.033456   0.398191
    26  H   -0.003843   0.001693   0.000957  -0.002168  -0.041498   0.396896
    27  H   -0.000440   0.000010  -0.000070   0.000008   0.000011  -0.000030
              13         14         15         16         17         18
     1  O   -0.000022  -0.000003   0.000359   0.001197   0.000206   0.000001
     2  N   -0.000041  -0.000109   0.002201  -0.026699  -0.007091  -0.000046
     3  O   -0.000004   0.000001  -0.000014   0.002558   0.016794   0.000010
     4  C   -0.011230   0.002902  -0.062964   0.322584  -0.024666   0.001483
     5  C   -0.000699   0.005841  -0.004734  -0.051072   0.376383  -0.032060
     6  N   -0.048829  -0.007137   0.001004  -0.003573  -0.036037   0.339184
     7  C    0.340960  -0.046190  -0.058316  -0.002396   0.001711  -0.021309
     8  H   -0.038540  -0.000808   0.004047   0.000087  -0.000037  -0.004414
     9  C   -0.059491   0.004424  -0.015604  -0.001764  -0.000082   0.001246
    10  C   -0.000318  -0.000410   0.001508  -0.000007   0.000001  -0.000083
    11  C   -0.050505   0.004193  -0.012763  -0.000003   0.000000   0.000004
    12  C    0.372092  -0.036430  -0.081946   0.002663   0.000000  -0.000115
    13  C    5.040305   0.402702   0.242289  -0.071223  -0.000018   0.003120
    14  H    0.402702   0.526487  -0.037283  -0.004006   0.000103  -0.000104
    15  N    0.242289  -0.037283   6.964603   0.587096  -0.000069  -0.000137
    16  C   -0.071223  -0.004006   0.587096   4.719432   0.002515  -0.000223
    17  H   -0.000018   0.000103  -0.000069   0.002515   0.385291  -0.003169
    18  H    0.003120  -0.000104  -0.000137  -0.000223  -0.003169   0.310021
    19  H   -0.007503   0.000098   0.007728   0.003190   0.000018  -0.000150
    20  H    0.004346  -0.000064   0.000138  -0.000037   0.000002   0.000883
    21  H   -0.000426   0.000010  -0.000042   0.000003  -0.000000   0.000001
    22  H    0.000007  -0.000057   0.000019  -0.000002   0.000000   0.000001
    23  H   -0.007468  -0.000000   0.008488   0.000092   0.000000   0.000000
    24  H    0.004693  -0.000055   0.000144   0.000007   0.000000  -0.000000
    25  H   -0.035504  -0.002774   0.000276  -0.000024  -0.000000   0.000002
    26  H   -0.047457  -0.001051   0.004896  -0.000065   0.000000  -0.000000
    27  H    0.005263  -0.000197  -0.041652   0.404483  -0.000084   0.000001
              19         20         21         22         23         24
     1  O    0.000001   0.000000  -0.000000  -0.000000   0.000000   0.000000
     2  N   -0.000005  -0.000000   0.000000   0.000000  -0.000000   0.000000
     3  O    0.000000   0.000000  -0.000000  -0.000000   0.000000   0.000000
     4  C   -0.001224  -0.000066   0.000001  -0.000000   0.000038   0.000000
     5  C    0.001252   0.000121   0.000001  -0.000003  -0.000002  -0.000000
     6  N   -0.000318  -0.000469  -0.000077  -0.000116  -0.000030   0.000006
     7  C   -0.036713  -0.042676   0.004608  -0.004784   0.000579  -0.000130
     8  H    0.004360  -0.002196  -0.000079   0.003557   0.000032  -0.000101
     9  C    0.390138   0.399507  -0.036312  -0.046996  -0.001942   0.004389
    10  C   -0.031772  -0.035366   0.402437   0.397792  -0.038991  -0.038479
    11  C   -0.002205   0.003938  -0.034858  -0.045505   0.399105   0.402379
    12  C    0.000713  -0.000418   0.004331  -0.000953  -0.037671  -0.038757
    13  C   -0.007503   0.004346  -0.000426   0.000007  -0.007468   0.004693
    14  H    0.000098  -0.000064   0.000010  -0.000057  -0.000000  -0.000055
    15  N    0.007728   0.000138  -0.000042   0.000019   0.008488   0.000144
    16  C    0.003190  -0.000037   0.000003  -0.000002   0.000092   0.000007
    17  H    0.000018   0.000002  -0.000000   0.000000   0.000000   0.000000
    18  H   -0.000150   0.000883   0.000001   0.000001   0.000000  -0.000000
    19  H    0.503490  -0.024819  -0.002801   0.003948   0.001495  -0.000066
    20  H   -0.024819   0.542391  -0.002671  -0.003020  -0.000045  -0.000083
    21  H   -0.002801  -0.002671   0.523740  -0.027394  -0.002901  -0.002231
    22  H    0.003948  -0.003020  -0.027394   0.571318   0.004144  -0.003675
    23  H    0.001495  -0.000045  -0.002901   0.004144   0.499096  -0.025511
    24  H   -0.000066  -0.000083  -0.002231  -0.003675  -0.025511   0.538264
    25  H   -0.000028   0.000012  -0.000086  -0.000080  -0.002349  -0.002256
    26  H    0.000019  -0.000030  -0.000082   0.002371   0.004063  -0.003080
    27  H    0.000092   0.000000  -0.000000   0.000000  -0.000038  -0.000000
              25         26         27
     1  O    0.000000   0.000000   0.006375
     2  N   -0.000000  -0.000000  -0.000704
     3  O    0.000000   0.000000   0.000024
     4  C    0.000022   0.000007  -0.065715
     5  C   -0.000000  -0.000004   0.002480
     6  N   -0.000092  -0.000061   0.000028
     7  C    0.005145  -0.003843  -0.000440
     8  H   -0.000030   0.001693   0.000010
     9  C   -0.000416   0.000957  -0.000070
    10  C    0.004172  -0.002168   0.000008
    11  C   -0.033456  -0.041498   0.000011
    12  C    0.398191   0.396896  -0.000030
    13  C   -0.035504  -0.047457   0.005263
    14  H   -0.002774  -0.001051  -0.000197
    15  N    0.000276   0.004896  -0.041652
    16  C   -0.000024  -0.000065   0.404483
    17  H   -0.000000   0.000000  -0.000084
    18  H    0.000002  -0.000000   0.000001
    19  H   -0.000028   0.000019   0.000092
    20  H    0.000012  -0.000030   0.000000
    21  H   -0.000086  -0.000082  -0.000000
    22  H   -0.000080   0.002371   0.000000
    23  H   -0.002349   0.004063  -0.000038
    24  H   -0.002256  -0.003080  -0.000000
    25  H    0.506757  -0.024114  -0.000012
    26  H   -0.024114   0.561913   0.000001
    27  H   -0.000012   0.000001   0.445298
 Mulliken charges:
               1
     1  O   -0.466535
     2  N    0.485069
     3  O   -0.501877
     4  C    0.011704
     5  C    0.191823
     6  N   -0.779310
     7  C    0.060903
     8  H    0.179886
     9  C   -0.301542
    10  C   -0.328297
    11  C   -0.321097
    12  C   -0.306592
    13  C   -0.036500
    14  H    0.189916
    15  N   -0.509270
    16  C    0.115186
    17  H    0.288230
    18  H    0.405853
    19  H    0.191063
    20  H    0.160624
    21  H    0.174828
    22  H    0.149429
    23  H    0.199816
    24  H    0.164544
    25  H    0.186645
    26  H    0.150635
    27  H    0.244868
 Sum of Mulliken charges =  -0.00000
 Mulliken charges with hydrogens summed into heavy atoms:
               1
     1  O   -0.466535
     2  N    0.485069
     3  O   -0.501877
     4  C    0.011704
     5  C    0.480052
     6  N   -0.373458
     7  C    0.240789
     9  C    0.050145
    10  C   -0.004040
    11  C    0.043263
    12  C    0.030687
    13  C    0.153416
    15  N   -0.509270
    16  C    0.360054
 Electronic spatial extent (au):  <R**2>=           3020.0737
 Charge=             -0.0000 electrons
 Dipole moment (field-independent basis, Debye):
    X=              5.4837    Y=              4.8197    Z=              1.1956  Tot=              7.3979
 Quadrupole moment (field-independent basis, Debye-Ang):
   XX=           -106.4074   YY=            -79.1584   ZZ=            -81.6588
   XY=             -1.8865   XZ=              0.0359   YZ=              1.4073
 Traceless Quadrupole moment (field-independent basis, Debye-Ang):
   XX=            -17.3325   YY=              9.9164   ZZ=              7.4161
   XY=             -1.8865   XZ=              0.0359   YZ=              1.4073
 Octapole moment (field-independent basis, Debye-Ang**2):
  XXX=             95.1446  YYY=             36.5324  ZZZ=             -2.3402  XYY=             -3.9652
  XXY=              9.7356  XXZ=              4.0626  XZZ=             -9.0345  YZZ=             -0.4502
  YYZ=              7.4881  XYZ=              1.1546
 Hexadecapole moment (field-independent basis, Debye-Ang**3):
 XXXX=          -3414.6798 YYYY=           -592.5522 ZZZZ=           -306.3909 XXXY=            -22.8422
 XXXZ=             -8.6288 YYYX=            -10.9139 YYYZ=             21.7317 ZZZX=              4.1883
 ZZZY=              5.6699 XXYY=           -630.6363 XXZZ=           -529.4548 YYZZ=           -157.0294
 XXYZ=             -8.0113 YYXZ=              1.9848 ZZXY=              3.9108
 N-N= 9.306022516986D+02 E-N=-3.407885107936D+03  KE= 6.596291318158D+02
 Unable to Open any file for archive entry.
 1\1\GINC-LOTUS\FOpt\RMP2-FC\6-31G(d)\C9H13N3O2\ALEXEY\01-Jul-2023\0\\#
 MP2/6-31G* SCF=Tight Opt=(ModRedun, MaxCycle=20 ) NoSymm\\MolName:\\0,
 1\O,-3.5270190815,-1.3868734169,-0.4134889409\N,-3.1462212647,-0.24079
 04707,-0.104936667\O,-3.9202879573,0.7102361707,0.1180763246\C,-1.7202
 822676,-0.035553441,0.018838403\C,-1.3021455145,1.2467725355,0.2778410
 474\N,-0.0579964207,1.7370630822,0.3800528493\C,1.2098562248,1.0231555
 086,0.3529806266\H,1.8546481063,1.5615168606,1.0646119568\C,1.91542837
 22,1.0298371544,-1.001294605\C,3.3133691916,0.4237234076,-0.8305232442
 \C,3.2643587941,-0.9701417543,-0.1985546258\C,2.4658287535,-0.97758296
 29,1.1070867641\C,1.0592940579,-0.4180040307,0.8695552045\H,0.48158787
 16,-0.3916199627,1.8073103131\N,0.4105343105,-1.2972882235,-0.09560482
 32\C,-0.8332577156,-1.1109068882,-0.3981594868\H,-2.0869659395,1.98578
 00844,0.4229795903\H,-0.0035859201,2.7294157829,0.5770153433\H,1.32373
 30146,0.4509081847,-1.7179467768\H,1.9832974334,2.0569476827,-1.381230
 3666\H,3.8203279255,0.3818387271,-1.8013062522\H,3.9112217174,1.092584
 6516,-0.1950849744\H,2.7896075458,-1.6694872684,-0.8937065091\H,4.2833
 516347,-1.3319513808,-0.0170694343\H,2.3766951234,-1.9990966771,1.4914
 633749\H,2.9760944225,-0.3811909379,1.8760908723\H,-1.2794724184,-1.85
 52824179,-1.0589959641\\Version=ES64L-G16RevC.02\HF=-661.2996514\MP2=-
 663.3338517\RMSD=3.154e-09\RMSF=2.445e-03\Dipole=2.0023931,1.6961651,0
 .4442717\PG=C01 [X(C9H13N3O2)]\\@
 The archive entry for this job was punched.


 HAPPINESS IS NOT HAVING WHAT YOU WANT --
 HAPPINESS IS WANTING WHAT YOU HAVE!

              -- FROM MRS. SEVERN'S DESK
 Job cpu time:       0 days  1 hours  7 minutes 52.5 seconds.
 Elapsed time:       0 days  0 hours 20 minutes 20.0 seconds.
 File lengths (MBytes):  RWF=     36 Int=      0 D2E=      0 Chk=      7 Scr=      1
 Normal termination of Gaussian 16 at Sat Jul  1 19:05:58 2023.
