 Entering Gaussian System, Link 0=g16
 Initial command:
 /home/alexey/programs//g16/l1.exe "/home/alexey/tmp/Gau-1360662.inp" -scrdir="/home/alexey/tmp/"
 Entering Link 1 = /home/alexey/programs//g16/l1.exe PID=   1360664.
  
 Copyright (c) 1988-2021, Gaussian, Inc.  All Rights Reserved.
  
 This is part of the Gaussian(R) 16 program.  It is based on
 the Gaussian(R) 09 system (copyright 2009, Gaussian, Inc.),
 the Gaussian(R) 03 system (copyright 2003, Gaussian, Inc.),
 the Gaussian(R) 98 system (copyright 1998, Gaussian, Inc.),
 the Gaussian(R) 94 system (copyright 1995, Gaussian, Inc.),
 the Gaussian 92(TM) system (copyright 1992, Gaussian, Inc.),
 the Gaussian 90(TM) system (copyright 1990, Gaussian, Inc.),
 the Gaussian 88(TM) system (copyright 1988, Gaussian, Inc.),
 the Gaussian 86(TM) system (copyright 1986, Carnegie Mellon
 University), and the Gaussian 82(TM) system (copyright 1983,
 Carnegie Mellon University). Gaussian is a federally registered
 trademark of Gaussian, Inc.
  
 This software contains proprietary and confidential information,
 including trade secrets, belonging to Gaussian, Inc.
  
 This software is provided under written license and may be
 used, copied, transmitted, or stored only in accord with that
 written license.
  
 The following legend is applicable only to US Government
 contracts under FAR:
  
                    RESTRICTED RIGHTS LEGEND
  
 Use, reproduction and disclosure by the US Government is
 subject to restrictions as set forth in subparagraphs (a)
 and (c) of the Commercial Computer Software - Restricted
 Rights clause in FAR 52.227-19.
  
 Gaussian, Inc.
 340 Quinnipiac St., Bldg. 40, Wallingford CT 06492
  
  
 ---------------------------------------------------------------
 Warning -- This program may not be used in any manner that
 competes with the business of Gaussian, Inc. or will provide
 assistance to any competitor of Gaussian, Inc.  The licensee
 of this program is prohibited from giving any competitor of
 Gaussian, Inc. access to this program.  By using this program,
 the user acknowledges that Gaussian, Inc. is engaged in the
 business of creating and licensing software in the field of
 computational chemistry and represents and warrants to the
 licensee that it is not a competitor of Gaussian, Inc. and that
 it will not use this program in any manner prohibited above.
 ---------------------------------------------------------------
  

 Cite this work as:
 Gaussian 16, Revision C.02,
 M. J. Frisch, G. W. Trucks, H. B. Schlegel, G. E. Scuseria, 
 M. A. Robb, J. R. Cheeseman, G. Scalmani, V. Barone, 
 G. A. Petersson, H. Nakatsuji, X. Li, M. Caricato, A. V. Marenich, 
 J. Bloino, B. G. Janesko, R. Gomperts, B. Mennucci, H. P. Hratchian, 
 J. V. Ortiz, A. F. Izmaylov, J. L. Sonnenberg, D. Williams-Young, 
 F. Ding, F. Lipparini, F. Egidi, J. Goings, B. Peng, A. Petrone, 
 T. Henderson, D. Ranasinghe, V. G. Zakrzewski, J. Gao, N. Rega, 
 G. Zheng, W. Liang, M. Hada, M. Ehara, K. Toyota, R. Fukuda, 
 J. Hasegawa, M. Ishida, T. Nakajima, Y. Honda, O. Kitao, H. Nakai, 
 T. Vreven, K. Throssell, J. A. Montgomery, Jr., J. E. Peralta, 
 F. Ogliaro, M. J. Bearpark, J. J. Heyd, E. N. Brothers, K. N. Kudin, 
 V. N. Staroverov, T. A. Keith, R. Kobayashi, J. Normand, 
 K. Raghavachari, A. P. Rendell, J. C. Burant, S. S. Iyengar, 
 J. Tomasi, M. Cossi, J. M. Millam, M. Klene, C. Adamo, R. Cammi, 
 J. W. Ochterski, R. L. Martin, K. Morokuma, O. Farkas, 
 J. B. Foresman, and D. J. Fox, Gaussian, Inc., Wallingford CT, 2019.
 
 ******************************************
 Gaussian 16:  ES64L-G16RevC.02  7-Dec-2021
                 1-Jul-2023 
 ******************************************
 %mem=8GB
 %NPROCS=4
 Will use up to    4 processors via shared memory.
 %NoSave
 ---------------------------------------------------------
 #MP2/6-31G* SCF=Tight Opt=(ModRedun, MaxCycle=20 ) NoSymm
 ---------------------------------------------------------
 1/6=20,18=120,19=15,38=1/1,3;
 2/9=110,12=2,15=1,17=6,18=5,40=1/2;
 3/5=1,6=6,7=1,11=9,25=1,30=1,71=1/1,2,3;
 4//1;
 5/5=2,32=2,38=5/2;
 8/6=4,10=2/1;
 9/15=2,16=-3/6;
 10/5=1,31=1/2;
 6/7=2,8=2,9=2,10=2/1;
 7/12=2,30=1/1,2,3,16;
 1/6=20,18=20,19=15/3(2);
 2/9=110,15=1/2;
 99//99;
 2/9=110,15=1/2;
 3/5=1,6=6,7=1,11=9,25=1,30=1,71=1/1,2,3;
 4/5=5,16=3,69=1/1;
 5/5=2,32=2,38=5/2;
 8/6=4,10=2/1;
 9/15=2,16=-3/6;
 10/5=1,31=1/2;
 7/12=2,30=1/1,2,3,16;
 1/6=20,18=20,19=15/3(-8);
 2/9=110,15=1/2;
 6/7=2,8=2,9=2,10=2/1;
 99/9=10/99;
 --------
 MolName:
 --------
 Symbolic Z-matrix:
 Charge =  0 Multiplicity = 1
 8                    0    -3.61682  -1.4423   -0.18665 
 7                    0    -3.25428  -0.27775  -0.02831 
 8                    0    -4.03387   0.66417   0.12049 
 6                    0    -1.75175   0.00744  -0.04262 
 6                    0    -1.36986   1.31614   0.27259 
 7                    0    -0.08179   1.76898   0.39352 
 6                    0     1.19694   0.99505   0.36286 
 1                    0     1.86117   1.49135   1.11725 
 6                    0     1.96085   1.04854  -0.98375 
 6                    0     3.37294   0.46169  -0.79611 
 6                    0     3.31132  -0.95534  -0.20428 
 6                    0     2.4637   -0.99128   1.08566 
 6                    0     1.02655  -0.45549   0.84021 
 1                    0     0.47824  -0.49581   1.81056 
 7                    0     0.37006  -1.32494  -0.13957 
 6                    0    -0.8717   -1.12368  -0.43636 
 1                    0    -2.15878   2.05514   0.49013 
 1                    0     0.15141   2.75176   0.23208 
 1                    0     1.41095   0.47321  -1.75867 
 1                    0     2.04707   2.09912  -1.33376 
 1                    0     3.90717   0.43947  -1.77114 
 1                    0     3.95041   1.11426  -0.10376 
 1                    0     2.86377  -1.6433   -0.95672 
 1                    0     4.3394   -1.31955   0.01162 
 1                    0     2.40569  -2.0382    1.45624 
 1                    0     2.95799  -0.38132   1.87059 
 1                    0    -1.37577  -1.87439  -1.06407 
 
 The following ModRedundant input section has been read:
 A       5       4      16 F                                                   
 D       1       2       4      16 F                                           
 D       7      13      15      16 F                                           
 D       7       9      10      11 F                                           
 D       9      10      11      12 F                                           
 D       6       7      13      15 F                                           
 

 GradGradGradGradGradGradGradGradGradGradGradGradGradGradGradGradGradGrad
 Berny optimization.
 Initialization pass.
                           ----------------------------
                           !    Initial Parameters    !
                           ! (Angstroms and Degrees)  !
 --------------------------                            --------------------------
 ! Name  Definition              Value          Derivative Info.                !
 --------------------------------------------------------------------------------
 ! R1    R(1,2)                  1.2299         estimate D2E/DX2                !
 ! R2    R(2,3)                  1.2317         estimate D2E/DX2                !
 ! R3    R(2,4)                  1.5294         estimate D2E/DX2                !
 ! R4    R(4,5)                  1.3992         estimate D2E/DX2                !
 ! R5    R(4,16)                 1.4863         estimate D2E/DX2                !
 ! R6    R(5,6)                  1.3707         estimate D2E/DX2                !
 ! R7    R(5,17)                 1.1027         estimate D2E/DX2                !
 ! R8    R(6,7)                  1.495          estimate D2E/DX2                !
 ! R9    R(6,18)                 1.0229         estimate D2E/DX2                !
 ! R10   R(7,8)                  1.121          estimate D2E/DX2                !
 ! R11   R(7,9)                  1.5491         estimate D2E/DX2                !
 ! R12   R(7,13)                 1.5365         estimate D2E/DX2                !
 ! R13   R(9,10)                 1.5406         estimate D2E/DX2                !
 ! R14   R(9,19)                 1.1108         estimate D2E/DX2                !
 ! R15   R(9,20)                 1.1107         estimate D2E/DX2                !
 ! R16   R(10,11)                1.5369         estimate D2E/DX2                !
 ! R17   R(10,21)                1.112          estimate D2E/DX2                !
 ! R18   R(10,22)                1.113          estimate D2E/DX2                !
 ! R19   R(11,12)                1.5439         estimate D2E/DX2                !
 ! R20   R(11,23)                1.1134         estimate D2E/DX2                !
 ! R21   R(11,24)                1.1118         estimate D2E/DX2                !
 ! R22   R(12,13)                1.5533         estimate D2E/DX2                !
 ! R23   R(12,25)                1.1121         estimate D2E/DX2                !
 ! R24   R(12,26)                1.1102         estimate D2E/DX2                !
 ! R25   R(13,14)                1.1153         estimate D2E/DX2                !
 ! R26   R(13,15)                1.4652         estimate D2E/DX2                !
 ! R27   R(15,16)                1.2925         estimate D2E/DX2                !
 ! R28   R(16,27)                1.1008         estimate D2E/DX2                !
 ! A1    A(1,2,3)              123.5777         estimate D2E/DX2                !
 ! A2    A(1,2,4)              117.7064         estimate D2E/DX2                !
 ! A3    A(3,2,4)              118.7073         estimate D2E/DX2                !
 ! A4    A(2,4,5)              116.1307         estimate D2E/DX2                !
 ! A5    A(2,4,16)             116.2494         estimate D2E/DX2                !
 ! A6    A(5,4,16)             127.5807         Frozen                          !
 ! A7    A(4,5,6)              125.8271         estimate D2E/DX2                !
 ! A8    A(4,5,17)             118.4248         estimate D2E/DX2                !
 ! A9    A(6,5,17)             115.6914         estimate D2E/DX2                !
 ! A10   A(5,6,7)              129.1192         estimate D2E/DX2                !
 ! A11   A(5,6,18)             121.1802         estimate D2E/DX2                !
 ! A12   A(7,6,18)             107.4059         estimate D2E/DX2                !
 ! A13   A(6,7,8)              105.297          estimate D2E/DX2                !
 ! A14   A(6,7,9)              114.9443         estimate D2E/DX2                !
 ! A15   A(6,7,13)             112.7978         estimate D2E/DX2                !
 ! A16   A(8,7,9)              106.1116         estimate D2E/DX2                !
 ! A17   A(8,7,13)             105.9378         estimate D2E/DX2                !
 ! A18   A(9,7,13)             110.9365         estimate D2E/DX2                !
 ! A19   A(7,9,10)             109.4481         estimate D2E/DX2                !
 ! A20   A(7,9,19)             110.1463         estimate D2E/DX2                !
 ! A21   A(7,9,20)             110.1738         estimate D2E/DX2                !
 ! A22   A(10,9,19)            109.963          estimate D2E/DX2                !
 ! A23   A(10,9,20)            109.1185         estimate D2E/DX2                !
 ! A24   A(19,9,20)            107.9685         estimate D2E/DX2                !
 ! A25   A(9,10,11)            111.1835         estimate D2E/DX2                !
 ! A26   A(9,10,21)            109.9469         estimate D2E/DX2                !
 ! A27   A(9,10,22)            109.1467         estimate D2E/DX2                !
 ! A28   A(11,10,21)           109.7845         estimate D2E/DX2                !
 ! A29   A(11,10,22)           108.7756         estimate D2E/DX2                !
 ! A30   A(21,10,22)           107.9325         estimate D2E/DX2                !
 ! A31   A(10,11,12)           111.4205         estimate D2E/DX2                !
 ! A32   A(10,11,23)           108.9999         estimate D2E/DX2                !
 ! A33   A(10,11,24)           109.8602         estimate D2E/DX2                !
 ! A34   A(12,11,23)           109.2417         estimate D2E/DX2                !
 ! A35   A(12,11,24)           109.7416         estimate D2E/DX2                !
 ! A36   A(23,11,24)           107.4873         estimate D2E/DX2                !
 ! A37   A(11,12,13)           111.5862         estimate D2E/DX2                !
 ! A38   A(11,12,25)           109.2059         estimate D2E/DX2                !
 ! A39   A(11,12,26)           109.4811         estimate D2E/DX2                !
 ! A40   A(13,12,25)           109.2153         estimate D2E/DX2                !
 ! A41   A(13,12,26)           109.5209         estimate D2E/DX2                !
 ! A42   A(25,12,26)           107.7493         estimate D2E/DX2                !
 ! A43   A(7,13,12)            105.7906         estimate D2E/DX2                !
 ! A44   A(7,13,14)            111.0352         estimate D2E/DX2                !
 ! A45   A(7,13,15)            113.711          estimate D2E/DX2                !
 ! A46   A(12,13,14)           107.7533         estimate D2E/DX2                !
 ! A47   A(12,13,15)           108.3927         estimate D2E/DX2                !
 ! A48   A(14,13,15)           109.8808         estimate D2E/DX2                !
 ! A49   A(13,15,16)           119.4462         estimate D2E/DX2                !
 ! A50   A(4,16,15)            128.7964         estimate D2E/DX2                !
 ! A51   A(4,16,27)            113.5128         estimate D2E/DX2                !
 ! A52   A(15,16,27)           117.6908         estimate D2E/DX2                !
 ! D1    D(1,2,4,5)           -173.842          estimate D2E/DX2                !
 ! D2    D(1,2,4,16)             8.2584         Frozen                          !
 ! D3    D(3,2,4,5)              7.1833         estimate D2E/DX2                !
 ! D4    D(3,2,4,16)          -170.7163         estimate D2E/DX2                !
 ! D5    D(2,4,5,6)            176.0365         estimate D2E/DX2                !
 ! D6    D(2,4,5,17)            -1.0968         estimate D2E/DX2                !
 ! D7    D(16,4,5,6)            -6.3407         estimate D2E/DX2                !
 ! D8    D(16,4,5,17)          176.526          estimate D2E/DX2                !
 ! D9    D(2,4,16,15)         -155.3982         estimate D2E/DX2                !
 ! D10   D(2,4,16,27)           24.5337         estimate D2E/DX2                !
 ! D11   D(5,4,16,15)           26.9814         estimate D2E/DX2                !
 ! D12   D(5,4,16,27)         -153.0867         estimate D2E/DX2                !
 ! D13   D(4,5,6,7)             -6.7582         estimate D2E/DX2                !
 ! D14   D(4,5,6,18)           153.7697         estimate D2E/DX2                !
 ! D15   D(17,5,6,7)           170.4442         estimate D2E/DX2                !
 ! D16   D(17,5,6,18)          -29.028          estimate D2E/DX2                !
 ! D17   D(5,6,7,8)           -142.7901         estimate D2E/DX2                !
 ! D18   D(5,6,7,9)            100.8173         estimate D2E/DX2                !
 ! D19   D(5,6,7,13)           -27.7175         estimate D2E/DX2                !
 ! D20   D(18,6,7,8)            54.6003         estimate D2E/DX2                !
 ! D21   D(18,6,7,9)           -61.7923         estimate D2E/DX2                !
 ! D22   D(18,6,7,13)          169.6728         estimate D2E/DX2                !
 ! D23   D(6,7,9,10)           168.6388         estimate D2E/DX2                !
 ! D24   D(6,7,9,19)           -70.35           estimate D2E/DX2                !
 ! D25   D(6,7,9,20)            48.6537         estimate D2E/DX2                !
 ! D26   D(8,7,9,10)            52.7125         estimate D2E/DX2                !
 ! D27   D(8,7,9,19)           173.7237         estimate D2E/DX2                !
 ! D28   D(8,7,9,20)           -67.2726         estimate D2E/DX2                !
 ! D29   D(13,7,9,10)          -61.9037         estimate D2E/DX2                !
 ! D30   D(13,7,9,19)           59.1075         estimate D2E/DX2                !
 ! D31   D(13,7,9,20)          178.1112         estimate D2E/DX2                !
 ! D32   D(6,7,13,12)         -166.14           estimate D2E/DX2                !
 ! D33   D(6,7,13,14)          -49.5081         estimate D2E/DX2                !
 ! D34   D(6,7,13,15)           75.0219         Frozen                          !
 ! D35   D(8,7,13,12)          -51.4536         estimate D2E/DX2                !
 ! D36   D(8,7,13,14)           65.1782         estimate D2E/DX2                !
 ! D37   D(8,7,13,15)         -170.2917         estimate D2E/DX2                !
 ! D38   D(9,7,13,12)           63.2713         estimate D2E/DX2                !
 ! D39   D(9,7,13,14)          179.9031         estimate D2E/DX2                !
 ! D40   D(9,7,13,15)          -55.5668         estimate D2E/DX2                !
 ! D41   D(7,9,10,11)           54.812          Frozen                          !
 ! D42   D(7,9,10,21)          176.6035         estimate D2E/DX2                !
 ! D43   D(7,9,10,22)          -65.1848         estimate D2E/DX2                !
 ! D44   D(19,9,10,11)         -66.3103         estimate D2E/DX2                !
 ! D45   D(19,9,10,21)          55.4811         estimate D2E/DX2                !
 ! D46   D(19,9,10,22)         173.6928         estimate D2E/DX2                !
 ! D47   D(20,9,10,11)         175.4417         estimate D2E/DX2                !
 ! D48   D(20,9,10,21)         -62.7669         estimate D2E/DX2                !
 ! D49   D(20,9,10,22)          55.4448         estimate D2E/DX2                !
 ! D50   D(9,10,11,12)         -52.822          Frozen                          !
 ! D51   D(9,10,11,23)          67.8075         estimate D2E/DX2                !
 ! D52   D(9,10,11,24)        -174.6582         estimate D2E/DX2                !
 ! D53   D(21,10,11,12)       -174.7079         estimate D2E/DX2                !
 ! D54   D(21,10,11,23)        -54.0784         estimate D2E/DX2                !
 ! D55   D(21,10,11,24)         63.4559         estimate D2E/DX2                !
 ! D56   D(22,10,11,12)         67.3947         estimate D2E/DX2                !
 ! D57   D(22,10,11,23)       -171.9757         estimate D2E/DX2                !
 ! D58   D(22,10,11,24)        -54.4414         estimate D2E/DX2                !
 ! D59   D(10,11,12,13)         56.6288         estimate D2E/DX2                !
 ! D60   D(10,11,12,25)        177.4679         estimate D2E/DX2                !
 ! D61   D(10,11,12,26)        -64.7797         estimate D2E/DX2                !
 ! D62   D(23,11,12,13)        -63.8587         estimate D2E/DX2                !
 ! D63   D(23,11,12,25)         56.9804         estimate D2E/DX2                !
 ! D64   D(23,11,12,26)        174.7328         estimate D2E/DX2                !
 ! D65   D(24,11,12,13)        178.5337         estimate D2E/DX2                !
 ! D66   D(24,11,12,25)        -60.6272         estimate D2E/DX2                !
 ! D67   D(24,11,12,26)         57.1252         estimate D2E/DX2                !
 ! D68   D(11,12,13,7)         -60.3586         estimate D2E/DX2                !
 ! D69   D(11,12,13,14)       -179.1885         estimate D2E/DX2                !
 ! D70   D(11,12,13,15)         61.9462         estimate D2E/DX2                !
 ! D71   D(25,12,13,7)         178.8078         estimate D2E/DX2                !
 ! D72   D(25,12,13,14)         59.9779         estimate D2E/DX2                !
 ! D73   D(25,12,13,15)        -58.8874         estimate D2E/DX2                !
 ! D74   D(26,12,13,7)          61.0268         estimate D2E/DX2                !
 ! D75   D(26,12,13,14)        -57.8031         estimate D2E/DX2                !
 ! D76   D(26,12,13,15)       -176.6684         estimate D2E/DX2                !
 ! D77   D(7,13,15,16)         -67.16           Frozen                          !
 ! D78   D(12,13,15,16)        175.5012         estimate D2E/DX2                !
 ! D79   D(14,13,15,16)         57.9887         estimate D2E/DX2                !
 ! D80   D(13,15,16,4)           8.3689         estimate D2E/DX2                !
 ! D81   D(13,15,16,27)       -171.5605         estimate D2E/DX2                !
 --------------------------------------------------------------------------------
 Trust Radius=3.00D-01 FncErr=1.00D-07 GrdErr=1.00D-07 EigMax=2.50D+02 EigMin=1.00D-04
 Number of steps in this run=     20 maximum allowed number of steps=    162.
 GradGradGradGradGradGradGradGradGradGradGradGradGradGradGradGradGradGrad

                          Input orientation:                          
 ---------------------------------------------------------------------
 Center     Atomic      Atomic             Coordinates (Angstroms)
 Number     Number       Type             X           Y           Z
 ---------------------------------------------------------------------
      1          8           0       -3.616820   -1.442300   -0.186650
      2          7           0       -3.254280   -0.277750   -0.028310
      3          8           0       -4.033870    0.664170    0.120490
      4          6           0       -1.751750    0.007440   -0.042620
      5          6           0       -1.369860    1.316140    0.272590
      6          7           0       -0.081790    1.768980    0.393520
      7          6           0        1.196940    0.995050    0.362860
      8          1           0        1.861170    1.491350    1.117250
      9          6           0        1.960850    1.048540   -0.983750
     10          6           0        3.372940    0.461690   -0.796110
     11          6           0        3.311320   -0.955340   -0.204280
     12          6           0        2.463700   -0.991280    1.085660
     13          6           0        1.026550   -0.455490    0.840210
     14          1           0        0.478240   -0.495810    1.810560
     15          7           0        0.370060   -1.324940   -0.139570
     16          6           0       -0.871700   -1.123680   -0.436360
     17          1           0       -2.158780    2.055140    0.490130
     18          1           0        0.151410    2.751760    0.232080
     19          1           0        1.410950    0.473210   -1.758670
     20          1           0        2.047070    2.099120   -1.333760
     21          1           0        3.907170    0.439470   -1.771140
     22          1           0        3.950410    1.114260   -0.103760
     23          1           0        2.863770   -1.643300   -0.956720
     24          1           0        4.339400   -1.319550    0.011620
     25          1           0        2.405690   -2.038200    1.456240
     26          1           0        2.957990   -0.381320    1.870590
     27          1           0       -1.375770   -1.874390   -1.064070
 ---------------------------------------------------------------------
                    Distance matrix (angstroms):
                    1          2          3          4          5
     1  O    0.000000
     2  N    1.229912   0.000000
     3  O    2.169212   1.231712   0.000000
     4  C    2.366638   1.529423   2.380330   0.000000
     5  C    3.587300   2.486376   2.746843   1.399247   0.000000
     6  N    4.810962   3.798913   4.112674   2.466173   1.370698
     7  C    5.423552   4.646116   5.246866   3.136010   2.588380
     8  H    6.349396   5.532617   6.035665   4.074368   3.344205
     9  C    6.160362   5.465299   6.107680   3.969007   3.569822
    10  C    7.270032   6.712401   7.466056   5.199667   4.936229
    11  C    6.945255   6.602817   7.528619   5.156332   5.224985
    12  C    6.228556   5.869016   6.774252   4.476659   4.547686
    13  C    4.856863   4.371661   5.232541   2.951719   3.033751
    14  H    4.653408   4.166617   4.955908   2.942854   3.010646
    15  N    3.988885   3.774232   4.839296   2.507332   3.189436
    16  C    2.774808   2.561013   3.675025   1.486254   2.589111
    17  H    3.849156   2.628931   2.363767   2.154663   1.102651
    18  H    5.653763   4.565573   4.678360   3.350936   2.092106
    19  H    5.605256   5.032142   5.763139   3.628283   3.545342
    20  H    6.777696   5.954664   6.414963   4.524732   3.856012
    21  H    7.915939   7.405284   8.166325   5.932774   5.726467
    22  H    7.987856   7.338320   8.000100   5.808908   5.337384
    23  H    6.529277   6.336971   7.352703   4.986336   5.309719
    24  H    7.959637   7.664915   8.605733   6.234256   6.293697
    25  H    6.270950   6.110510   7.110201   4.869860   5.187235
    26  H    6.970369   6.496834   7.282994   5.098349   4.915817
    27  H    2.445173   2.674109   3.861731   2.173938   3.459216
                    6          7          8          9         10
     6  N    0.000000
     7  C    1.495011   0.000000
     8  H    2.091879   1.120990   0.000000
     9  C    2.566765   1.549122   2.149469   0.000000
    10  C    3.880642   2.522431   2.646997   1.540649   0.000000
    11  C    4.392321   2.931940   3.136187   2.539070   1.536891
    12  C    3.818064   2.464270   2.554896   2.948929   2.545368
    13  C    2.525117   1.536542   2.136241   2.542017   3.004049
    14  H    2.729635   2.198870   2.518329   3.520130   4.011337
    15  N    3.171860   2.513667   3.425565   2.979372   3.555331
    16  C    3.111292   3.067090   4.089091   3.611304   4.545304
    17  H    2.098835   3.521483   4.107449   4.489646   5.898595
    18  H    1.022889   2.048479   2.301182   2.766455   4.084097
    19  H    2.922193   2.195224   3.083865   1.110809   2.185420
    20  H    2.761256   2.195498   2.532073   1.110702   2.174437
    21  H    4.729181   3.493991   3.692609   2.186118   1.112016
    22  H    4.115165   2.795271   2.449079   2.176477   1.112955
    23  H    4.705648   3.388289   3.890063   2.839366   2.171643
    24  H    5.406643   3.918647   3.907071   3.500873   2.181579
    25  H    4.670284   3.443423   3.587358   3.959722   3.501157
    26  H    4.005719   2.696097   2.297265   3.344554   2.827391
    27  H    4.131961   4.109580   5.154041   4.436553   5.298992
                   11         12         13         14         15
    11  C    0.000000
    12  C    1.543922   0.000000
    13  C    2.561442   1.553292   0.000000
    14  H    3.506721   2.170950   1.115280   0.000000
    15  N    2.965097   2.448642   1.465227   2.121831   0.000000
    16  C    4.192834   3.668647   2.383162   2.695405   1.292501
    17  H    6.282292   5.568003   4.070890   3.899328   4.268079
    18  H    4.890606   4.481700   3.379666   3.625621   4.099441
    19  H    2.840473   3.367971   2.786472   3.814230   2.634062
    20  H    3.493391   3.946865   3.506229   4.368253   3.995327
    21  H    2.180730   3.505989   3.989746   5.045878   4.276250
    22  H    2.168360   2.838719   3.450239   4.279359   4.332423
    23  H    1.113443   2.180941   2.831118   3.829533   2.643421
    24  H    1.111850   2.186224   3.522518   4.338581   3.972222
    25  H    2.179467   1.112086   2.187805   2.493907   2.683121
    26  H    2.181611   1.110175   2.190353   2.483117   3.410065
    27  H    4.853113   4.488068   3.377973   3.687999   2.050492
                   16         17         18         19         20
    16  C    0.000000
    17  H    3.552444   0.000000
    18  H    4.063570   2.426695   0.000000
    19  H    3.083675   4.505838   3.277395   0.000000
    20  H    4.439705   4.584505   2.543879   1.796881   0.000000
    21  H    5.202180   6.672292   4.844100   2.496479   2.530951
    22  H    5.326513   6.209683   4.150493   3.098149   2.470942
    23  H    3.807166   6.402956   5.299688   2.689503   3.849008
    24  H    5.233986   7.337837   5.844949   3.863125   4.330373
    25  H    3.893529   6.206705   5.433605   4.199087   5.003012
    26  H    4.532068   5.832953   4.514177   4.036717   4.153338
    27  H    1.100760   4.297656   5.041185   3.709380   5.251414
                   21         22         23         24         25
    21  H    0.000000
    22  H    1.799269   0.000000
    23  H    2.467771   3.084228   0.000000
    24  H    2.541497   2.467399   1.794430   0.000000
    25  H    4.336966   3.841584   2.487601   2.518456   0.000000
    26  H    3.851861   2.668279   3.097604   2.498867   1.794985
    27  H    5.810624   6.182428   4.247190   5.841928   4.547333
                   26         27
    26  H    0.000000
    27  H    5.442698   0.000000
 Symmetry turned off by external request.
 Stoichiometry    C9H13N3O2
 Framework group  C1[X(C9H13N3O2)]
 Deg. of freedom    75
 Full point group                 C1      NOp   1
 Rotational constants (GHZ):           1.6736451           0.4005592           0.3553779
 Standard basis: 6-31G(d) (6D, 7F)
   236 basis functions,   444 primitive gaussians,   236 cartesian basis functions
    52 alpha electrons       52 beta electrons
       nuclear repulsion energy       917.4972252488 Hartrees.
 NAtoms=   27 NActive=   27 NUniq=   27 SFac= 1.00D+00 NAtFMM=   60 NAOKFM=F Big=F
 Integral buffers will be    131072 words long.
 Raffenetti 1 integral format.
 Two-electron integral symmetry is turned off.
 One-electron integrals computed using PRISM.
 NBasis=   236 RedAO= T EigKep=  1.27D-03  NBF=   236
 NBsUse=   236 1.00D-06 EigRej= -1.00D+00 NBFU=   236
 ExpMin= 1.61D-01 ExpMax= 5.48D+03 ExpMxC= 8.25D+02 IAcc=3 IRadAn=         5 AccDes= 0.00D+00
 Harris functional with IExCor=  205 and IRadAn=       5 diagonalized for initial guess.
 HarFok:  IExCor=  205 AccDes= 0.00D+00 IRadAn=         5 IDoV= 1 UseB2=F ITyADJ=14
 ICtDFT=  3500011 ScaDFX=  1.000000  1.000000  1.000000  1.000000
 FoFCou: FMM=F IPFlag=           0 FMFlag=      100000 FMFlg1=           0
         NFxFlg=           0 DoJE=T BraDBF=F KetDBF=T FulRan=T
         wScrn=  0.000000 ICntrl=       500 IOpCl=  0 I1Cent=   200000004 NGrid=           0
         NMat0=    1 NMatS0=      1 NMatT0=    0 NMatD0=    1 NMtDS0=    0 NMtDT0=    0
 Symmetry not used in FoFCou.
 Keep R1 ints in memory in canonical form, NReq=397720213.
 Requested convergence on RMS density matrix=1.00D-08 within 128 cycles.
 Requested convergence on MAX density matrix=1.00D-06.
 Requested convergence on             energy=1.00D-06.
 No special actions if energy rises.
 SCF Done:  E(RHF) =  -661.281130797     A.U. after   16 cycles
            NFock= 16  Conv=0.81D-08     -V/T= 2.0037
 ExpMin= 1.61D-01 ExpMax= 5.48D+03 ExpMxC= 8.25D+02 IAcc=3 IRadAn=         5 AccDes= 0.00D+00
 HarFok:  IExCor=  205 AccDes= 0.00D+00 IRadAn=         5 IDoV=-2 UseB2=F ITyADJ=14
 ICtDFT= 12500011 ScaDFX=  1.000000  1.000000  1.000000  1.000000
 Range of M.O.s used for correlation:    15   236
 NBasis=   236 NAE=    52 NBE=    52 NFC=    14 NFV=     0
 NROrb=    222 NOA=    38 NOB=    38 NVA=   184 NVB=   184
 Fully direct method using O(ONN) memory.
 JobTyp=1 Pass  1:  I=  15 to  52 NPSUse=  4 ParTrn=T ParDer=T DoDerP=T.
 Spin components of T(2) and E(2):
     alpha-alpha T2 =       0.9197755301D-01 E2=     -0.2717620801D+00
     alpha-beta  T2 =       0.4996943947D+00 E2=     -0.1493755327D+01
     beta-beta   T2 =       0.9197755301D-01 E2=     -0.2717620801D+00
 ANorm=    0.1297555201D+01
 E2 =    -0.2037279488D+01 EUMP2 =    -0.66331841028473D+03
          IDoAtm=111111111111111111111111111
          Differentiating once with respect to electric field.
                with respect to dipole field.
          Differentiating once with respect to nuclear coordinates.
 Keep R1 ints in memory in canonical form, NReq=397723379.
          There are     1 degrees of freedom in the 1st order CPHF.  IDoFFX=0 NUNeed=     1.
 LinEq1:  Iter=  0 NonCon=     1 RMS=4.61D-03 Max=1.11D-01 NDo=     1
 AX will form     1 AO Fock derivatives at one time.
 LinEq1:  Iter=  1 NonCon=     1 RMS=1.57D-03 Max=2.89D-02 NDo=     1
 LinEq1:  Iter=  2 NonCon=     1 RMS=6.41D-04 Max=1.79D-02 NDo=     1
 LinEq1:  Iter=  3 NonCon=     1 RMS=2.93D-04 Max=9.04D-03 NDo=     1
 LinEq1:  Iter=  4 NonCon=     1 RMS=9.02D-05 Max=2.11D-03 NDo=     1
 LinEq1:  Iter=  5 NonCon=     1 RMS=3.74D-05 Max=1.87D-03 NDo=     1
 LinEq1:  Iter=  6 NonCon=     1 RMS=1.54D-05 Max=5.88D-04 NDo=     1
 LinEq1:  Iter=  7 NonCon=     1 RMS=5.92D-06 Max=1.02D-04 NDo=     1
 LinEq1:  Iter=  8 NonCon=     1 RMS=2.37D-06 Max=5.96D-05 NDo=     1
 LinEq1:  Iter=  9 NonCon=     1 RMS=8.83D-07 Max=2.52D-05 NDo=     1
 LinEq1:  Iter= 10 NonCon=     1 RMS=4.33D-07 Max=1.49D-05 NDo=     1
 LinEq1:  Iter= 11 NonCon=     1 RMS=1.54D-07 Max=5.73D-06 NDo=     1
 LinEq1:  Iter= 12 NonCon=     1 RMS=5.42D-08 Max=7.61D-07 NDo=     1
 LinEq1:  Iter= 13 NonCon=     1 RMS=1.72D-08 Max=3.45D-07 NDo=     1
 LinEq1:  Iter= 14 NonCon=     1 RMS=5.45D-09 Max=1.43D-07 NDo=     1
 LinEq1:  Iter= 15 NonCon=     1 RMS=2.01D-09 Max=4.80D-08 NDo=     1
 LinEq1:  Iter= 16 NonCon=     1 RMS=7.48D-10 Max=1.23D-08 NDo=     1
 LinEq1:  Iter= 17 NonCon=     1 RMS=2.50D-10 Max=3.59D-09 NDo=     1
 LinEq1:  Iter= 18 NonCon=     1 RMS=8.64D-11 Max=1.03D-09 NDo=     1
 LinEq1:  Iter= 19 NonCon=     0 RMS=2.91D-11 Max=3.56D-10 NDo=     1
 Linear equations converged to 1.000D-10 1.000D-09 after    19 iterations.
 End of Minotr F.D. properties file   721 does not exist.
 End of Minotr F.D. properties file   722 does not exist.
 End of Minotr F.D. properties file   788 does not exist.

 **********************************************************************

            Population analysis using the SCF Density.

 **********************************************************************

 Alpha  occ. eigenvalues --  -20.59804 -20.59366 -15.85233 -15.63345 -15.56825
 Alpha  occ. eigenvalues --  -11.35871 -11.30480 -11.30094 -11.30083 -11.27707
 Alpha  occ. eigenvalues --  -11.24633 -11.23883 -11.23405 -11.22856  -1.58448
 Alpha  occ. eigenvalues --   -1.37941  -1.28587  -1.22728  -1.13275  -1.08357
 Alpha  occ. eigenvalues --   -1.01817  -1.00662  -0.93585  -0.88930  -0.84931
 Alpha  occ. eigenvalues --   -0.81551  -0.77996  -0.76973  -0.74334  -0.71078
 Alpha  occ. eigenvalues --   -0.70300  -0.69743  -0.67394  -0.64370  -0.63266
 Alpha  occ. eigenvalues --   -0.61666  -0.60410  -0.57428  -0.56476  -0.54885
 Alpha  occ. eigenvalues --   -0.53630  -0.50729  -0.49388  -0.48473  -0.47762
 Alpha  occ. eigenvalues --   -0.47679  -0.46157  -0.45690  -0.43986  -0.42104
 Alpha  occ. eigenvalues --   -0.39937  -0.33761
 Alpha virt. eigenvalues --    0.07383   0.11775   0.18141   0.21387   0.23426
 Alpha virt. eigenvalues --    0.24254   0.26276   0.27804   0.28560   0.28866
 Alpha virt. eigenvalues --    0.29896   0.31077   0.31849   0.32277   0.33335
 Alpha virt. eigenvalues --    0.33789   0.34249   0.35465   0.37576   0.38580
 Alpha virt. eigenvalues --    0.40611   0.41723   0.44450   0.45263   0.45619
 Alpha virt. eigenvalues --    0.46111   0.49735   0.53210   0.57592   0.59002
 Alpha virt. eigenvalues --    0.63303   0.69026   0.69211   0.72202   0.73997
 Alpha virt. eigenvalues --    0.74844   0.75695   0.75849   0.77767   0.79254
 Alpha virt. eigenvalues --    0.80606   0.83608   0.85003   0.85360   0.87984
 Alpha virt. eigenvalues --    0.89094   0.90210   0.90718   0.91838   0.93941
 Alpha virt. eigenvalues --    0.95152   0.97191   0.98870   1.00388   1.01978
 Alpha virt. eigenvalues --    1.02764   1.05061   1.06525   1.07035   1.08635
 Alpha virt. eigenvalues --    1.09605   1.10467   1.11324   1.11982   1.13255
 Alpha virt. eigenvalues --    1.13831   1.14174   1.15437   1.16354   1.17224
 Alpha virt. eigenvalues --    1.17987   1.19997   1.21254   1.22356   1.22958
 Alpha virt. eigenvalues --    1.23726   1.24300   1.25611   1.27075   1.27515
 Alpha virt. eigenvalues --    1.29357   1.31291   1.33048   1.36174   1.39668
 Alpha virt. eigenvalues --    1.42800   1.46182   1.47325   1.49417   1.52708
 Alpha virt. eigenvalues --    1.54708   1.55410   1.60322   1.61532   1.65883
 Alpha virt. eigenvalues --    1.68559   1.70367   1.72768   1.73557   1.76969
 Alpha virt. eigenvalues --    1.77666   1.80098   1.84363   1.89106   1.92569
 Alpha virt. eigenvalues --    1.93682   1.96004   1.97465   1.99054   2.00720
 Alpha virt. eigenvalues --    2.02966   2.03893   2.05962   2.08842   2.11950
 Alpha virt. eigenvalues --    2.12853   2.13778   2.17712   2.18884   2.19490
 Alpha virt. eigenvalues --    2.20669   2.22059   2.24053   2.25142   2.26324
 Alpha virt. eigenvalues --    2.29264   2.32220   2.33367   2.35577   2.35983
 Alpha virt. eigenvalues --    2.38633   2.39825   2.41630   2.43296   2.46337
 Alpha virt. eigenvalues --    2.48681   2.50315   2.50798   2.56766   2.57089
 Alpha virt. eigenvalues --    2.60721   2.62864   2.65877   2.68539   2.68871
 Alpha virt. eigenvalues --    2.69647   2.70050   2.74678   2.77315   2.80957
 Alpha virt. eigenvalues --    2.84704   2.86710   2.89962   2.91295   2.95210
 Alpha virt. eigenvalues --    2.97626   2.98339   3.02272   3.03649   3.05663
 Alpha virt. eigenvalues --    3.07066   3.12720   3.19138   3.22689   3.27210
 Alpha virt. eigenvalues --    3.30609   3.33850   3.37253   3.43100   3.60033
 Alpha virt. eigenvalues --    4.09892   4.23144   4.32108   4.36388   4.43042
 Alpha virt. eigenvalues --    4.52564   4.59594   4.60134   4.70832   4.77541
 Alpha virt. eigenvalues --    4.96475   4.99224   5.02875   5.09881
          Condensed to atoms (all electrons):
               1          2          3          4          5          6
     1  O    8.300213   0.312949  -0.089967  -0.078931   0.003529  -0.000013
     2  N    0.312949   5.683177   0.308714   0.265703  -0.046664   0.000857
     3  O   -0.089967   0.308714   8.331443  -0.087190   0.008017   0.000469
     4  C   -0.078931   0.265703  -0.087190   5.243784   0.568422  -0.048565
     5  C    0.003529  -0.046664   0.008017   0.568422   4.671471   0.307396
     6  N   -0.000013   0.000857   0.000469  -0.048565   0.307396   7.189022
     7  C    0.000003  -0.000096   0.000002   0.004080  -0.029207   0.198687
     8  H   -0.000000   0.000002  -0.000000  -0.000172   0.002290  -0.049812
     9  C   -0.000000  -0.000003   0.000000   0.000455   0.001683  -0.056371
    10  C   -0.000000   0.000000  -0.000000  -0.000018  -0.000063   0.003339
    11  C   -0.000000  -0.000000  -0.000000  -0.000015   0.000015  -0.000154
    12  C   -0.000000   0.000002  -0.000000  -0.000098  -0.000134   0.003590
    13  C   -0.000019  -0.000023  -0.000002  -0.010446   0.000460  -0.044268
    14  H   -0.000003  -0.000054   0.000000   0.002906   0.004774  -0.005539
    15  N    0.000189   0.001653  -0.000013  -0.061628  -0.003872   0.001953
    16  C    0.003412  -0.026940   0.001956   0.319184  -0.041048  -0.001104
    17  H    0.000128  -0.004142   0.012074  -0.026742   0.376945  -0.033566
    18  H    0.000000  -0.000036   0.000008   0.000974  -0.024373   0.328352
    19  H    0.000000   0.000000   0.000000  -0.000776   0.000668   0.000620
    20  H    0.000000  -0.000000   0.000000  -0.000027   0.000032  -0.001681
    21  H   -0.000000  -0.000000   0.000000   0.000000   0.000001  -0.000059
    22  H   -0.000000   0.000000  -0.000000  -0.000000  -0.000002  -0.000098
    23  H    0.000000  -0.000000   0.000000   0.000025  -0.000000  -0.000024
    24  H    0.000000   0.000000   0.000000   0.000000  -0.000000   0.000004
    25  H    0.000000  -0.000000   0.000000   0.000019  -0.000001  -0.000071
    26  H    0.000000  -0.000000   0.000000   0.000006  -0.000000  -0.000067
    27  H    0.005381  -0.000240   0.000002  -0.065659   0.002074   0.000042
               7          8          9         10         11         12
     1  O    0.000003  -0.000000  -0.000000  -0.000000  -0.000000  -0.000000
     2  N   -0.000096   0.000002  -0.000003   0.000000  -0.000000   0.000002
     3  O    0.000002  -0.000000   0.000000  -0.000000  -0.000000  -0.000000
     4  C    0.004080  -0.000172   0.000455  -0.000018  -0.000015  -0.000098
     5  C   -0.029207   0.002290   0.001683  -0.000063   0.000015  -0.000134
     6  N    0.198687  -0.049812  -0.056371   0.003339  -0.000154   0.003590
     7  C    5.004634   0.416616   0.340724  -0.049316  -0.007715  -0.064103
     8  H    0.416616   0.547139  -0.060484   0.001441  -0.000325  -0.002870
     9  C    0.340724  -0.060484   5.181139   0.317975  -0.053060  -0.006177
    10  C   -0.049316   0.001441   0.317975   5.126786   0.332748  -0.060186
    11  C   -0.007715  -0.000325  -0.053060   0.332748   5.124054   0.330639
    12  C   -0.064103  -0.002870  -0.006177  -0.060186   0.330639   5.137005
    13  C    0.331723  -0.040195  -0.050594  -0.001703  -0.047915   0.368210
    14  H   -0.040315  -0.000936   0.003863  -0.000390   0.003957  -0.040742
    15  N   -0.058319   0.004032  -0.012809   0.001461  -0.007756  -0.074116
    16  C   -0.002161   0.000008  -0.000821  -0.000030   0.000007   0.002473
    17  H    0.001410  -0.000020  -0.000064   0.000001   0.000000   0.000001
    18  H   -0.028466  -0.002709   0.000842  -0.000121   0.000011  -0.000136
    19  H   -0.035022   0.004095   0.386021  -0.032610  -0.002258   0.000625
    20  H   -0.041652  -0.001842   0.397248  -0.037360   0.004137  -0.000362
    21  H    0.004043  -0.000080  -0.035836   0.400143  -0.035844   0.004213
    22  H   -0.004231   0.003512  -0.045686   0.395963  -0.045612  -0.001232
    23  H    0.000430   0.000034  -0.002004  -0.040096   0.396701  -0.036629
    24  H   -0.000141  -0.000098   0.004395  -0.038479   0.400294  -0.037873
    25  H    0.004981  -0.000005  -0.000370   0.004097  -0.033907   0.395434
    26  H   -0.004453   0.001598   0.001044  -0.002408  -0.042309   0.394665
    27  H   -0.000396   0.000009  -0.000058   0.000005   0.000005  -0.000020
              13         14         15         16         17         18
     1  O   -0.000019  -0.000003   0.000189   0.003412   0.000128   0.000000
     2  N   -0.000023  -0.000054   0.001653  -0.026940  -0.004142  -0.000036
     3  O   -0.000002   0.000000  -0.000013   0.001956   0.012074   0.000008
     4  C   -0.010446   0.002906  -0.061628   0.319184  -0.026742   0.000974
     5  C    0.000460   0.004774  -0.003872  -0.041048   0.376945  -0.024373
     6  N   -0.044268  -0.005539   0.001953  -0.001104  -0.033566   0.328352
     7  C    0.331723  -0.040315  -0.058319  -0.002161   0.001410  -0.028466
     8  H   -0.040195  -0.000936   0.004032   0.000008  -0.000020  -0.002709
     9  C   -0.050594   0.003863  -0.012809  -0.000821  -0.000064   0.000842
    10  C   -0.001703  -0.000390   0.001461  -0.000030   0.000001  -0.000121
    11  C   -0.047915   0.003957  -0.007756   0.000007   0.000000   0.000011
    12  C    0.368210  -0.040742  -0.074116   0.002473   0.000001  -0.000136
    13  C    5.023373   0.402464   0.240395  -0.069598  -0.000041   0.003670
    14  H    0.402464   0.519102  -0.035777  -0.004868   0.000061   0.000009
    15  N    0.240395  -0.035777   6.937191   0.587209  -0.000059  -0.000119
    16  C   -0.069598  -0.004868   0.587209   4.699028   0.001588  -0.000208
    17  H   -0.000041   0.000061  -0.000059   0.001588   0.384426  -0.001856
    18  H    0.003670   0.000009  -0.000119  -0.000208  -0.001856   0.324681
    19  H   -0.006264   0.000065   0.006956   0.002498   0.000011  -0.000127
    20  H    0.003863  -0.000050   0.000078  -0.000031  -0.000001   0.002849
    21  H   -0.000378   0.000009  -0.000030   0.000002  -0.000000  -0.000000
    22  H    0.000321  -0.000044   0.000003  -0.000001   0.000000   0.000002
    23  H   -0.005869   0.000008   0.006777   0.000064   0.000000   0.000000
    24  H    0.004146  -0.000058   0.000043   0.000005   0.000000  -0.000000
    25  H   -0.034452  -0.002661   0.000789  -0.000060  -0.000000   0.000002
    26  H   -0.044820  -0.000905   0.004185  -0.000054   0.000000  -0.000001
    27  H    0.004829  -0.000170  -0.039529   0.402140  -0.000058   0.000002
              19         20         21         22         23         24
     1  O    0.000000   0.000000  -0.000000  -0.000000   0.000000   0.000000
     2  N    0.000000  -0.000000  -0.000000   0.000000  -0.000000   0.000000
     3  O    0.000000   0.000000   0.000000  -0.000000   0.000000   0.000000
     4  C   -0.000776  -0.000027   0.000000  -0.000000   0.000025   0.000000
     5  C    0.000668   0.000032   0.000001  -0.000002  -0.000000  -0.000000
     6  N    0.000620  -0.001681  -0.000059  -0.000098  -0.000024   0.000004
     7  C   -0.035022  -0.041652   0.004043  -0.004231   0.000430  -0.000141
     8  H    0.004095  -0.001842  -0.000080   0.003512   0.000034  -0.000098
     9  C    0.386021   0.397248  -0.035836  -0.045686  -0.002004   0.004395
    10  C   -0.032610  -0.037360   0.400143   0.395963  -0.040096  -0.038479
    11  C   -0.002258   0.004137  -0.035844  -0.045612   0.396701   0.400294
    12  C    0.000625  -0.000362   0.004213  -0.001232  -0.036629  -0.037873
    13  C   -0.006264   0.003863  -0.000378   0.000321  -0.005869   0.004146
    14  H    0.000065  -0.000050   0.000009  -0.000044   0.000008  -0.000058
    15  N    0.006956   0.000078  -0.000030   0.000003   0.006777   0.000043
    16  C    0.002498  -0.000031   0.000002  -0.000001   0.000064   0.000005
    17  H    0.000011  -0.000001  -0.000000   0.000000   0.000000   0.000000
    18  H   -0.000127   0.002849  -0.000000   0.000002   0.000000  -0.000000
    19  H    0.506904  -0.024000  -0.002591   0.003758   0.001643  -0.000070
    20  H   -0.024000   0.549998  -0.002619  -0.002962  -0.000049  -0.000090
    21  H   -0.002591  -0.002619   0.526067  -0.024693  -0.002813  -0.002062
    22  H    0.003758  -0.002962  -0.024693   0.568861   0.004061  -0.003595
    23  H    0.001643  -0.000049  -0.002813   0.004061   0.509577  -0.024982
    24  H   -0.000070  -0.000090  -0.002062  -0.003595  -0.024982   0.541014
    25  H   -0.000027   0.000011  -0.000086  -0.000082  -0.002090  -0.002382
    26  H    0.000023  -0.000035  -0.000074   0.002464   0.003820  -0.002763
    27  H    0.000075   0.000000  -0.000000   0.000000  -0.000021  -0.000000
              25         26         27
     1  O    0.000000   0.000000   0.005381
     2  N   -0.000000  -0.000000  -0.000240
     3  O    0.000000   0.000000   0.000002
     4  C    0.000019   0.000006  -0.065659
     5  C   -0.000001  -0.000000   0.002074
     6  N   -0.000071  -0.000067   0.000042
     7  C    0.004981  -0.004453  -0.000396
     8  H   -0.000005   0.001598   0.000009
     9  C   -0.000370   0.001044  -0.000058
    10  C    0.004097  -0.002408   0.000005
    11  C   -0.033907  -0.042309   0.000005
    12  C    0.395434   0.394665  -0.000020
    13  C   -0.034452  -0.044820   0.004829
    14  H   -0.002661  -0.000905  -0.000170
    15  N    0.000789   0.004185  -0.039529
    16  C   -0.000060  -0.000054   0.402140
    17  H   -0.000000   0.000000  -0.000058
    18  H    0.000002  -0.000001   0.000002
    19  H   -0.000027   0.000023   0.000075
    20  H    0.000011  -0.000035   0.000000
    21  H   -0.000086  -0.000074  -0.000000
    22  H   -0.000082   0.002464   0.000000
    23  H   -0.002090   0.003820  -0.000021
    24  H   -0.002382  -0.002763  -0.000000
    25  H    0.510213  -0.023103  -0.000010
    26  H   -0.023103   0.561007   0.000001
    27  H   -0.000010   0.000001   0.450560
 Mulliken charges:
               1
     1  O   -0.456873
     2  N    0.505143
     3  O   -0.485513
     4  C   -0.025290
     5  C    0.197588
     6  N   -0.792941
     7  C    0.058260
     8  H    0.178773
     9  C   -0.311053
    10  C   -0.321179
    11  C   -0.315698
    12  C   -0.312179
    13  C   -0.026865
    14  H    0.195294
    15  N   -0.498887
    16  C    0.127349
    17  H    0.289904
    18  H    0.396748
    19  H    0.189783
    20  H    0.154546
    21  H    0.172687
    22  H    0.149294
    23  H    0.191439
    24  H    0.162693
    25  H    0.183761
    26  H    0.152179
    27  H    0.241037
 Sum of Mulliken charges =  -0.00000
 Mulliken charges with hydrogens summed into heavy atoms:
               1
     1  O   -0.456873
     2  N    0.505143
     3  O   -0.485513
     4  C   -0.025290
     5  C    0.487492
     6  N   -0.396193
     7  C    0.237033
     9  C    0.033276
    10  C    0.000803
    11  C    0.038433
    12  C    0.023762
    13  C    0.168429
    15  N   -0.498887
    16  C    0.368386
 Electronic spatial extent (au):  <R**2>=           3124.3419
 Charge=              0.0000 electrons
 Dipole moment (field-independent basis, Debye):
    X=              5.3675    Y=              4.5004    Z=              0.5267  Tot=              7.0244
 Quadrupole moment (field-independent basis, Debye-Ang):
   XX=           -105.4778   YY=            -80.2046   ZZ=            -82.2652
   XY=             -1.8341   XZ=              0.8328   YZ=              0.0984
 Traceless Quadrupole moment (field-independent basis, Debye-Ang):
   XX=            -16.1619   YY=              9.1113   ZZ=              7.0507
   XY=             -1.8341   XZ=              0.8328   YZ=              0.0984
 Octapole moment (field-independent basis, Debye-Ang**2):
  XXX=            101.3952  YYY=             36.7432  ZZZ=             -5.1196  XYY=             -1.5706
  XXY=             11.6460  XXZ=              0.0332  XZZ=             -8.3117  YZZ=             -2.8924
  YYZ=              0.8843  XYZ=             -1.4790
 Hexadecapole moment (field-independent basis, Debye-Ang**3):
 XXXX=          -3557.7625 YYYY=           -620.3202 ZZZZ=           -298.9137 XXXY=            -40.0993
 XXXZ=             23.3279 YYYX=            -19.7766 YYYZ=             11.8217 ZZZX=             19.9318
 ZZZY=              8.7443 XXYY=           -656.3731 XXZZ=           -543.0178 YYZZ=           -164.6888
 XXYZ=              2.6422 YYXZ=              9.7941 ZZXY=              2.6120
 N-N= 9.174972252488D+02 E-N=-3.381010779764D+03  KE= 6.588543032096D+02
 Calling FoFJK, ICntrl=  10002127 FMM=F ISym2X=0 I1Cent= 0 IOpClX= 0 NMat=1 NMatS=1 NMatT=0.
 -------------------------------------------------------------------
 Center     Atomic                   Forces (Hartrees/Bohr)
 Number     Number              X              Y              Z
 -------------------------------------------------------------------
      1        8           0.002528091   -0.019304784   -0.002847569
      2        7           0.038924028    0.013630482   -0.002085356
      3        8          -0.005005807    0.015882741    0.003661549
      4        6          -0.006056959    0.007922574    0.009473586
      5        6           0.004785268   -0.017185230   -0.005245259
      6        7           0.014937650   -0.009592926   -0.006403421
      7        6          -0.004751965    0.005207296    0.002800780
      8        1          -0.010166066   -0.001721863   -0.007631225
      9        6          -0.003931743    0.000190884   -0.002129666
     10        6           0.002844321   -0.000884071    0.000965660
     11        6          -0.000997084   -0.004595706   -0.002397185
     12        6           0.000799043   -0.008746942   -0.002928023
     13        6           0.008665328   -0.001697626    0.004375762
     14        1           0.000863531    0.004384586   -0.009898830
     15        7           0.000500713    0.000289658    0.001932872
     16        6          -0.020008531    0.008936993    0.003550543
     17        1           0.007228470   -0.006212677   -0.006147273
     18        1          -0.017506370   -0.001751855    0.006058297
     19        1           0.003112313    0.005880364    0.007678334
     20        1          -0.003242898   -0.007363587    0.002605575
     21        1          -0.004345273    0.002398857    0.009626788
     22        1          -0.004004256   -0.003976344   -0.007398462
     23        1           0.003983171    0.006121236    0.009296812
     24        1          -0.009382379    0.002612589   -0.002119097
     25        1          -0.000811702    0.010604138   -0.002419578
     26        1          -0.004778020   -0.004801432   -0.004367692
     27        1           0.005817127    0.003772645    0.001992080
 -------------------------------------------------------------------
 Cartesian Forces:  Max     0.038924028 RMS     0.008374193

 GradGradGradGradGradGradGradGradGradGradGradGradGradGradGradGradGradGrad
 Berny optimization.
 FormGI is forming the generalized inverse of G from B-inverse, IUseBI=4.
 Internal  Forces:  Max     0.037720904 RMS     0.006857395
 Search for a local minimum.
 Step number   1 out of a maximum of   20
 All quantities printed in internal units (Hartrees-Bohrs-Radians)
 Mixed Optimization -- RFO/linear search
 Second derivative matrix not updated -- first step.
 ITU=  0
     Eigenvalues ---    0.00231   0.00770   0.01053   0.01149   0.01198
     Eigenvalues ---    0.01516   0.01532   0.01602   0.01999   0.02021
     Eigenvalues ---    0.02092   0.02685   0.03679   0.04510   0.04698
     Eigenvalues ---    0.04840   0.05079   0.05140   0.05303   0.05891
     Eigenvalues ---    0.06267   0.07316   0.07701   0.07723   0.07874
     Eigenvalues ---    0.07994   0.08050   0.08053   0.10461   0.11748
     Eigenvalues ---    0.12284   0.13653   0.15340   0.15984   0.16000
     Eigenvalues ---    0.16325   0.20143   0.22002   0.24983   0.25000
     Eigenvalues ---    0.25000   0.25356   0.26088   0.26652   0.27982
     Eigenvalues ---    0.28083   0.28404   0.29477   0.30792   0.31464
     Eigenvalues ---    0.32047   0.32238   0.32289   0.32380   0.32388
     Eigenvalues ---    0.32405   0.32515   0.32526   0.32581   0.33245
     Eigenvalues ---    0.33391   0.33598   0.35218   0.43880   0.44001
     Eigenvalues ---    0.49208   0.66902   0.90377   0.911231000.00000
     Eigenvalues --- 1000.000001000.000001000.000001000.000001000.00000
     Eigenvalues --- 1000.000001000.000001000.000001000.000001000.00000
     Eigenvalues --- 1000.000001000.000001000.000001000.000001000.00000
     Eigenvalues --- 1000.000001000.000001000.000001000.000001000.00000
     Eigenvalues --- 1000.000001000.000001000.000001000.000001000.00000
     Eigenvalues --- 1000.000001000.000001000.000001000.000001000.00000
     Eigenvalues --- 1000.000001000.000001000.000001000.000001000.00000
     Eigenvalues --- 1000.000001000.000001000.000001000.000001000.00000
     Eigenvalues --- 1000.000001000.000001000.000001000.000001000.00000
     Eigenvalues --- 1000.000001000.000001000.000001000.000001000.00000
     Eigenvalues --- 1000.000001000.000001000.000001000.000001000.00000
     Eigenvalues --- 1000.000001000.000001000.000001000.000001000.00000
     Eigenvalues --- 1000.000001000.000001000.000001000.000001000.00000
     Eigenvalues --- 1000.000001000.000001000.000001000.000001000.00000
     Eigenvalues --- 1000.000001000.000001000.000001000.000001000.00000
     Eigenvalues --- 1000.000001000.000001000.000001000.000001000.00000
     Eigenvalues --- 1000.000001000.000001000.000001000.000001000.00000
     Eigenvalues --- 1000.000001000.000001000.000001000.000001000.00000
     Eigenvalues --- 1000.00000
 RFO step:  Lambda=-2.32813831D-02 EMin= 2.31148380D-03
 Linear search not attempted -- first point.
 Iteration  1 RMS(Cart)=  0.05262523 RMS(Int)=  0.00109134
 Iteration  2 RMS(Cart)=  0.00120550 RMS(Int)=  0.00021286
 Iteration  3 RMS(Cart)=  0.00000094 RMS(Int)=  0.00021286
 Iteration  1 RMS(Cart)=  0.00001865 RMS(Int)=  0.00001450
 Iteration  2 RMS(Cart)=  0.00001184 RMS(Int)=  0.00001576
 Iteration  3 RMS(Cart)=  0.00000785 RMS(Int)=  0.00001782
 Iteration  4 RMS(Cart)=  0.00000552 RMS(Int)=  0.00001971
 Iteration  5 RMS(Cart)=  0.00000414 RMS(Int)=  0.00002131
 Iteration  6 RMS(Cart)=  0.00000327 RMS(Int)=  0.00002267
 Iteration  7 RMS(Cart)=  0.00000270 RMS(Int)=  0.00002383
 Iteration  8 RMS(Cart)=  0.00000228 RMS(Int)=  0.00002484
 Iteration  9 RMS(Cart)=  0.00000196 RMS(Int)=  0.00002572
 Iteration 10 RMS(Cart)=  0.00000169 RMS(Int)=  0.00002650
 Iteration 11 RMS(Cart)=  0.00000147 RMS(Int)=  0.00002718
 Iteration 12 RMS(Cart)=  0.00000128 RMS(Int)=  0.00002779
 Iteration 13 RMS(Cart)=  0.00000112 RMS(Int)=  0.00002832
 Iteration 14 RMS(Cart)=  0.00000098 RMS(Int)=  0.00002879
 Variable       Old X    -DE/DX   Delta X   Delta X   Delta X     New X
                                 (Linear)    (Quad)   (Total)
    R1        2.32420   0.01790   0.00000   0.01915   0.01915   2.34335
    R2        2.32760   0.01576   0.00000   0.01700   0.01700   2.34460
    R3        2.89019  -0.03772   0.00000  -0.11860  -0.11860   2.77159
    R4        2.64419  -0.03437   0.00000  -0.07161  -0.07143   2.57276
    R5        2.80861  -0.02178   0.00000  -0.05916  -0.05909   2.74953
    R6        2.59024  -0.02425   0.00000  -0.04642  -0.04625   2.54399
    R7        2.08371  -0.01055   0.00000  -0.02953  -0.02953   2.05418
    R8        2.82516  -0.01974   0.00000  -0.05728  -0.05724   2.76792
    R9        1.93298  -0.00663   0.00000  -0.01435  -0.01435   1.91863
   R10        2.11836  -0.01192   0.00000  -0.03528  -0.03528   2.08308
   R11        2.92742  -0.01295   0.00000  -0.04439  -0.04438   2.88303
   R12        2.90364  -0.00463   0.00000  -0.01311  -0.01308   2.89056
   R13        2.91140  -0.00464   0.00000  -0.01444  -0.01448   2.89692
   R14        2.09912  -0.00994   0.00000  -0.02854  -0.02854   2.07059
   R15        2.09892  -0.00804   0.00000  -0.02306  -0.02306   2.07586
   R16        2.90430  -0.00185   0.00000  -0.00712  -0.00719   2.89712
   R17        2.10141  -0.01058   0.00000  -0.03047  -0.03047   2.07094
   R18        2.10318  -0.00901   0.00000  -0.02603  -0.02603   2.07715
   R19        2.91759  -0.00907   0.00000  -0.02859  -0.02859   2.88900
   R20        2.10410  -0.01167   0.00000  -0.03375  -0.03375   2.07035
   R21        2.10109  -0.00994   0.00000  -0.02863  -0.02863   2.07247
   R22        2.93530  -0.01058   0.00000  -0.03646  -0.03642   2.89888
   R23        2.10154  -0.01075   0.00000  -0.03096  -0.03096   2.07058
   R24        2.09793  -0.00785   0.00000  -0.02250  -0.02250   2.07543
   R25        2.10757  -0.00920   0.00000  -0.02675  -0.02675   2.08082
   R26        2.76888  -0.00562   0.00000  -0.01436  -0.01462   2.75426
   R27        2.44247  -0.00534   0.00000  -0.00685  -0.00700   2.43548
   R28        2.08013  -0.00637   0.00000  -0.01774  -0.01774   2.06240
    A1        2.15684   0.01127   0.00000   0.04141   0.04122   2.19806
    A2        2.05436  -0.00772   0.00000  -0.02808  -0.02827   2.02610
    A3        2.07183  -0.00353   0.00000  -0.01276  -0.01295   2.05888
    A4        2.02686  -0.00663   0.00000  -0.00859  -0.00889   2.01797
    A5        2.02894  -0.00231   0.00000   0.00727   0.00692   2.03585
    A6        2.22670   0.00889   0.00000   0.00000  -0.00000   2.22670
    A7        2.19610   0.00709   0.00000   0.03528   0.03560   2.23170
    A8        2.06690  -0.00390   0.00000  -0.01926  -0.01952   2.04738
    A9        2.01920  -0.00315   0.00000  -0.01510  -0.01538   2.00382
   A10        2.25356  -0.00565   0.00000  -0.01678  -0.01663   2.23692
   A11        2.11499  -0.01235   0.00000  -0.07240  -0.07288   2.04212
   A12        1.87459   0.01818   0.00000   0.09710   0.09715   1.97173
   A13        1.83778  -0.00160   0.00000  -0.01698  -0.01674   1.82104
   A14        2.00616  -0.00107   0.00000  -0.01079  -0.01090   1.99525
   A15        1.96869   0.00092   0.00000  -0.00333  -0.00378   1.96492
   A16        1.85200   0.00267   0.00000   0.02461   0.02442   1.87642
   A17        1.84896   0.00085   0.00000   0.01892   0.01873   1.86769
   A18        1.93621  -0.00145   0.00000  -0.00787  -0.00759   1.92862
   A19        1.91023   0.00014   0.00000  -0.00528  -0.00542   1.90481
   A20        1.92241  -0.00073   0.00000  -0.01302  -0.01298   1.90943
   A21        1.92290  -0.00165   0.00000  -0.00683  -0.00682   1.91607
   A22        1.91922  -0.00040   0.00000   0.00549   0.00543   1.92464
   A23        1.90448   0.00306   0.00000   0.02506   0.02508   1.92956
   A24        1.88441  -0.00039   0.00000  -0.00498  -0.00524   1.87917
   A25        1.94052  -0.00091   0.00000   0.00506   0.00493   1.94544
   A26        1.91894  -0.00069   0.00000  -0.00683  -0.00683   1.91210
   A27        1.90497   0.00032   0.00000  -0.00276  -0.00281   1.90216
   A28        1.91610   0.00080   0.00000   0.00723   0.00728   1.92338
   A29        1.89849   0.00172   0.00000   0.01141   0.01145   1.90994
   A30        1.88378  -0.00123   0.00000  -0.01457  -0.01466   1.86912
   A31        1.94465   0.00064   0.00000   0.00548   0.00563   1.95029
   A32        1.90241   0.00062   0.00000   0.00548   0.00544   1.90784
   A33        1.91742   0.00039   0.00000   0.00559   0.00554   1.92297
   A34        1.90663  -0.00114   0.00000  -0.01450  -0.01456   1.89206
   A35        1.91535  -0.00047   0.00000   0.00021   0.00011   1.91546
   A36        1.87601  -0.00007   0.00000  -0.00266  -0.00268   1.87332
   A37        1.94755  -0.00293   0.00000  -0.01781  -0.01785   1.92970
   A38        1.90600   0.00252   0.00000   0.01671   0.01656   1.92256
   A39        1.91081   0.00139   0.00000   0.01337   0.01336   1.92416
   A40        1.90617   0.00018   0.00000  -0.00293  -0.00278   1.90339
   A41        1.91150  -0.00023   0.00000  -0.00507  -0.00500   1.90650
   A42        1.88058  -0.00086   0.00000  -0.00380  -0.00399   1.87659
   A43        1.84639   0.00453   0.00000   0.02422   0.02426   1.87066
   A44        1.93793  -0.00425   0.00000  -0.02934  -0.02984   1.90809
   A45        1.98463   0.00077   0.00000   0.00530   0.00547   1.99010
   A46        1.88065   0.00223   0.00000   0.03124   0.03152   1.91217
   A47        1.89181  -0.00387   0.00000  -0.02707  -0.02705   1.86475
   A48        1.91778   0.00081   0.00000  -0.00170  -0.00163   1.91615
   A49        2.08473  -0.00634   0.00000  -0.01222  -0.01247   2.07225
   A50        2.24792  -0.00416   0.00000  -0.00696  -0.00703   2.24089
   A51        1.98117   0.00501   0.00000   0.01951   0.01926   2.00043
   A52        2.05409  -0.00086   0.00000  -0.01251  -0.01276   2.04134
    D1       -3.03412  -0.00056   0.00000  -0.03558  -0.03565  -3.06976
    D2        0.14414   0.00057   0.00000   0.00000   0.00000   0.14414
    D3        0.12537  -0.00192   0.00000  -0.07067  -0.07070   0.05467
    D4       -2.97956  -0.00078   0.00000  -0.03509  -0.03506  -3.01462
    D5        3.07242   0.00068   0.00000   0.01873   0.01840   3.09082
    D6       -0.01914  -0.00034   0.00000  -0.00410  -0.00441  -0.02356
    D7       -0.11067  -0.00094   0.00000  -0.02139  -0.02167  -0.13234
    D8        3.08096  -0.00196   0.00000  -0.04422  -0.04449   3.03647
    D9       -2.71221  -0.00178   0.00000  -0.03359  -0.03405  -2.74626
   D10        0.42819   0.00043   0.00000   0.00350   0.00343   0.43162
   D11        0.47091  -0.00008   0.00000   0.00690   0.00671   0.47762
   D12       -2.67187   0.00214   0.00000   0.04399   0.04418  -2.62768
   D13       -0.11795  -0.00013   0.00000   0.01841   0.01865  -0.09930
   D14        2.68379   0.00377   0.00000   0.06756   0.06661   2.75040
   D15        2.97481   0.00084   0.00000   0.04054   0.04084   3.01565
   D16       -0.50663   0.00474   0.00000   0.08969   0.08880  -0.41783
   D17       -2.49216  -0.00070   0.00000  -0.01661  -0.01614  -2.50830
   D18        1.75959  -0.00235   0.00000  -0.02988  -0.02936   1.73024
   D19       -0.48376  -0.00017   0.00000  -0.00574  -0.00556  -0.48932
   D20        0.95295  -0.00002   0.00000  -0.03689  -0.03746   0.91549
   D21       -1.07848  -0.00168   0.00000  -0.05016  -0.05067  -1.12915
   D22        2.96135   0.00051   0.00000  -0.02602  -0.02687   2.93448
   D23        2.94330   0.00237   0.00000   0.02916   0.02909   2.97239
   D24       -1.22784   0.00150   0.00000   0.02434   0.02428  -1.20356
   D25        0.84917  -0.00046   0.00000   0.00582   0.00583   0.85500
   D26        0.92001   0.00317   0.00000   0.03979   0.03980   0.95981
   D27        3.03205   0.00230   0.00000   0.03497   0.03500   3.06705
   D28       -1.17413   0.00033   0.00000   0.01645   0.01655  -1.15758
   D29       -1.08042   0.00140   0.00000   0.00776   0.00772  -1.07270
   D30        1.03162   0.00053   0.00000   0.00294   0.00292   1.03454
   D31        3.10863  -0.00143   0.00000  -0.01558  -0.01554   3.09309
   D32       -2.89969  -0.00103   0.00000  -0.01438  -0.01418  -2.91387
   D33       -0.86408   0.00204   0.00000   0.02160   0.02140  -0.84268
   D34        1.30938   0.00032   0.00000   0.00000   0.00001   1.30939
   D35       -0.89803  -0.00197   0.00000  -0.02517  -0.02510  -0.92313
   D36        1.13757   0.00110   0.00000   0.01080   0.01049   1.14806
   D37       -2.97215  -0.00062   0.00000  -0.01080  -0.01090  -2.98305
   D38        1.10429   0.00093   0.00000   0.01040   0.01050   1.11479
   D39        3.13990   0.00400   0.00000   0.04638   0.04608  -3.09720
   D40       -0.96982   0.00229   0.00000   0.02478   0.02470  -0.94513
   D41        0.95665   0.00065   0.00000   0.00000   0.00001   0.95666
   D42        3.08231   0.00059   0.00000   0.00786   0.00782   3.09013
   D43       -1.13769  -0.00112   0.00000  -0.01553  -0.01550  -1.15319
   D44       -1.15733   0.00172   0.00000   0.01600   0.01608  -1.14125
   D45        0.96833   0.00166   0.00000   0.02386   0.02389   0.99221
   D46        3.03151  -0.00005   0.00000   0.00047   0.00057   3.03208
   D47        3.06204   0.00060   0.00000   0.00383   0.00380   3.06583
   D48       -1.09549   0.00054   0.00000   0.01169   0.01161  -1.08388
   D49        0.96769  -0.00117   0.00000  -0.01170  -0.01171   0.95598
   D50       -0.92192  -0.00079   0.00000   0.00000   0.00001  -0.92191
   D51        1.18346  -0.00141   0.00000  -0.01100  -0.01100   1.17246
   D52       -3.04836  -0.00090   0.00000  -0.00777  -0.00780  -3.05616
   D53       -3.04923   0.00014   0.00000   0.00034   0.00036  -3.04887
   D54       -0.94385  -0.00048   0.00000  -0.01066  -0.01065  -0.95449
   D55        1.10752   0.00003   0.00000  -0.00743  -0.00745   1.10007
   D56        1.17626   0.00015   0.00000   0.00709   0.00712   1.18338
   D57       -3.00154  -0.00047   0.00000  -0.00390  -0.00389  -3.00543
   D58       -0.95018   0.00004   0.00000  -0.00068  -0.00069  -0.95087
   D59        0.98836  -0.00084   0.00000  -0.01334  -0.01336   0.97500
   D60        3.09740  -0.00082   0.00000  -0.01727  -0.01741   3.07999
   D61       -1.13062   0.00042   0.00000  -0.00436  -0.00433  -1.13495
   D62       -1.11455  -0.00126   0.00000  -0.01409  -0.01407  -1.12861
   D63        0.99450  -0.00124   0.00000  -0.01801  -0.01811   0.97638
   D64        3.04966  -0.00000   0.00000  -0.00511  -0.00503   3.04463
   D65        3.11600  -0.00024   0.00000  -0.00247  -0.00246   3.11354
   D66       -1.05814  -0.00022   0.00000  -0.00640  -0.00650  -1.06465
   D67        0.99702   0.00102   0.00000   0.00651   0.00658   1.00360
   D68       -1.05346   0.00007   0.00000   0.00195   0.00203  -1.05143
   D69       -3.12743   0.00155   0.00000   0.00785   0.00744  -3.11999
   D70        1.08117   0.00147   0.00000   0.00736   0.00725   1.08842
   D71        3.12079  -0.00132   0.00000  -0.00559  -0.00542   3.11536
   D72        1.04681   0.00015   0.00000   0.00031  -0.00000   1.04681
   D73       -1.02778   0.00008   0.00000  -0.00018  -0.00019  -1.02797
   D74        1.06512  -0.00025   0.00000   0.00366   0.00386   1.06898
   D75       -1.00885   0.00122   0.00000   0.00955   0.00928  -0.99958
   D76       -3.08345   0.00114   0.00000   0.00906   0.00909  -3.07436
   D77       -1.17216   0.00372   0.00000   0.00000   0.00001  -1.17215
   D78        3.06307   0.00019   0.00000  -0.01535  -0.01534   3.04773
   D79        1.01209  -0.00070   0.00000  -0.03626  -0.03656   0.97554
   D80        0.14607   0.00134   0.00000   0.00301   0.00296   0.14902
   D81       -2.99430  -0.00095   0.00000  -0.03542  -0.03529  -3.02959
         Item               Value     Threshold  Converged?
 Maximum Force            0.037721     0.000450     NO 
 RMS     Force            0.006878     0.000300     NO 
 Maximum Displacement     0.259442     0.001800     NO 
 RMS     Displacement     0.052783     0.001200     NO 
 Predicted change in Energy=-1.303031D-02
 GradGradGradGradGradGradGradGradGradGradGradGradGradGradGradGradGradGrad

                          Input orientation:                          
 ---------------------------------------------------------------------
 Center     Atomic      Atomic             Coordinates (Angstroms)
 Number     Number       Type             X           Y           Z
 ---------------------------------------------------------------------
      1          8           0       -3.494828   -1.424741   -0.234131
      2          7           0       -3.141687   -0.250970   -0.046317
      3          8           0       -3.896579    0.714753    0.145700
      4          6           0       -1.695522   -0.007079   -0.031495
      5          6           0       -1.316368    1.267191    0.261787
      6          7           0       -0.065731    1.747415    0.394477
      7          6           0        1.196390    1.004541    0.370195
      8          1           0        1.830364    1.519202    1.110676
      9          6           0        1.926052    1.049178   -0.968895
     10          6           0        3.327031    0.450756   -0.798042
     11          6           0        3.265396   -0.960925   -0.203299
     12          6           0        2.445724   -0.996709    1.086686
     13          6           0        1.036573   -0.440617    0.845292
     14          1           0        0.468636   -0.453412    1.788561
     15          7           0        0.397340   -1.317775   -0.127462
     16          6           0       -0.842131   -1.119693   -0.419828
     17          1           0       -2.105149    1.994574    0.436027
     18          1           0        0.060221    2.746837    0.267527
     19          1           0        1.357749    0.479083   -1.712265
     20          1           0        1.990516    2.087120   -1.322757
     21          1           0        3.838210    0.431106   -1.767213
     22          1           0        3.915400    1.101280   -0.135595
     23          1           0        2.800674   -1.639170   -0.927399
     24          1           0        4.278191   -1.334224   -0.009269
     25          1           0        2.366051   -2.025593    1.454941
     26          1           0        2.939971   -0.403361    1.867619
     27          1           0       -1.321485   -1.855797   -1.067489
 ---------------------------------------------------------------------
                    Distance matrix (angstroms):
                    1          2          3          4          5
     1  O    0.000000
     2  N    1.240048   0.000000
     3  O    2.209775   1.240707   0.000000
     4  C    2.299637   1.466662   2.323164   0.000000
     5  C    3.498303   2.394062   2.641241   1.361447   0.000000
     6  N    4.713430   3.694502   3.975384   2.432266   1.346222
     7  C    5.317343   4.535273   5.106144   3.089965   2.528772
     8  H    6.231611   5.403095   5.863122   4.008236   3.268952
     9  C    6.003839   5.312580   5.937776   3.887183   3.474967
    10  C    7.097412   6.549949   7.289780   5.101299   4.832283
    11  C    6.776187   6.448209   7.363666   5.054705   5.115991
    12  C    6.100650   5.749695   6.636216   4.402228   4.467554
    13  C    4.761014   4.276540   5.114714   2.901905   2.965370
    14  H    4.554537   4.054898   4.808192   2.862760   2.911659
    15  N    3.895098   3.697211   4.758521   2.471275   3.125758
    16  C    2.676628   2.486392   3.607584   1.454987   2.527195
    17  H    3.751271   2.519829   2.220688   2.095946   1.087024
    18  H    5.503826   4.397450   4.449773   3.279650   2.020985
    19  H    5.418203   4.853173   5.578130   3.519063   3.415977
    20  H    6.603581   5.782342   6.220744   4.431694   3.757466
    21  H    7.718028   7.221197   7.972870   5.816091   5.602281
    22  H    7.829557   7.186030   7.826592   5.720292   5.249460
    23  H    6.337188   6.165636   7.179533   4.866430   5.177947
    24  H    7.776798   7.498627   8.429068   6.119400   6.175753
    25  H    6.128939   5.978148   6.960183   4.772867   5.081954
    26  H    6.845963   6.377534   7.138179   5.025084   4.846222
    27  H    2.367217   2.632755   3.835449   2.151964   3.394121
                    6          7          8          9         10
     6  N    0.000000
     7  C    1.464719   0.000000
     8  H    2.039657   1.102321   0.000000
     9  C    2.512671   1.525635   2.134173   0.000000
    10  C    3.822860   2.492205   2.650433   1.532985   0.000000
    11  C    4.334610   2.910796   3.152281   2.533869   1.533089
    12  C    3.783751   2.465602   2.590183   2.946375   2.534572
    13  C    2.491143   1.529620   2.131061   2.510365   2.956567
    14  H    2.659447   2.160327   2.490992   3.461994   3.959604
    15  N    3.143604   2.505852   3.411010   2.940652   3.487187
    16  C    3.079966   3.048290   4.055667   3.559257   4.471160
    17  H    2.054760   3.447413   4.021118   4.372431   5.780560
    18  H    1.015296   2.082551   2.313308   2.809290   4.132732
    19  H    2.841359   2.153784   3.045359   1.095708   2.171331
    20  H    2.700453   2.160718   2.503952   1.098499   2.176990
    21  H    4.652562   3.446238   3.673914   2.162331   1.095894
    22  H    4.067907   2.767345   2.464797   2.157454   1.099179
    23  H    4.629535   3.353608   3.882083   2.827348   2.159068
    24  H    5.341270   3.887327   3.922776   3.483396   2.170950
    25  H    4.612346   3.424396   3.601534   3.939898   3.483062
    26  H    3.978722   2.695281   2.345302   3.344206   2.825788
    27  H    4.086245   4.072857   5.105798   4.358336   5.196296
                   11         12         13         14         15
    11  C    0.000000
    12  C    1.528791   0.000000
    13  C    2.517521   1.534019   0.000000
    14  H    3.470871   2.167182   1.101124   0.000000
    15  N    2.891166   2.402732   1.457490   2.103177   0.000000
    16  C    4.116293   3.618660   2.364573   2.653116   1.288799
    17  H    6.163316   5.484667   3.996007   3.800836   4.189466
    18  H    4.923649   4.513954   3.383332   3.566783   4.097650
    19  H    2.826609   3.346009   2.736804   3.730396   2.581218
    20  H    3.488421   3.939877   3.464087   4.295431   3.944649
    21  H    2.170644   3.481726   3.928645   4.977945   4.193681
    22  H    2.163280   2.838217   3.409872   4.242597   4.269502
    23  H    1.095584   2.143662   2.773268   3.771057   2.553275
    24  H    1.096702   2.161705   3.469423   4.303572   3.882686
    25  H    2.166125   1.095702   2.156695   2.486612   2.623134
    26  H    2.169212   1.098270   2.160894   2.473106   3.358791
    27  H    4.752588   4.423841   3.349911   3.650786   2.031619
                   16         17         18         19         20
    16  C    0.000000
    17  H    3.467904   0.000000
    18  H    4.029485   2.298503   0.000000
    19  H    3.010971   4.347819   3.278088   0.000000
    20  H    4.372965   4.458291   2.586555   1.771411   0.000000
    21  H    5.111362   6.528569   4.876062   2.481534   2.520694
    22  H    5.258100   6.113242   4.211029   3.068321   2.467065
    23  H    3.714501   6.255408   5.308012   2.680493   3.833784
    24  H    5.141234   7.212920   5.875623   3.836308   4.320220
    25  H    3.824637   6.098488   5.431656   4.161883   4.977052
    26  H    4.477705   5.766523   4.558180   4.012195   4.157218
    27  H    1.091373   4.207143   4.987547   3.611882   5.155687
                   21         22         23         24         25
    21  H    0.000000
    22  H    1.765579   0.000000
    23  H    2.463293   3.062619   0.000000
    24  H    2.529890   2.465615   1.766073   0.000000
    25  H    4.311021   3.835052   2.452298   2.505630   0.000000
    26  H    3.836037   2.688545   3.059208   2.485970   1.769554
    27  H    5.687002   6.085860   4.130223   5.722608   4.470951
                   26         27
    26  H    0.000000
    27  H    5.374424   0.000000
 Symmetry turned off by external request.
 Stoichiometry    C9H13N3O2
 Framework group  C1[X(C9H13N3O2)]
 Deg. of freedom    75
 Full point group                 C1      NOp   1
 Rotational constants (GHZ):           1.6912106           0.4196327           0.3710127
 Standard basis: 6-31G(d) (6D, 7F)
   236 basis functions,   444 primitive gaussians,   236 cartesian basis functions
    52 alpha electrons       52 beta electrons
       nuclear repulsion energy       931.5285965364 Hartrees.
 NAtoms=   27 NActive=   27 NUniq=   27 SFac= 1.00D+00 NAtFMM=   60 NAOKFM=F Big=F
 Integral buffers will be    131072 words long.
 Raffenetti 1 integral format.
 Two-electron integral symmetry is turned off.
 One-electron integrals computed using PRISM.
 NBasis=   236 RedAO= T EigKep=  1.02D-03  NBF=   236
 NBsUse=   236 1.00D-06 EigRej= -1.00D+00 NBFU=   236
 Initial guess from the checkpoint file:  "/home/alexey/tmp/Gau-1360664.chk"
 B after Tr=     0.050409    0.004862    0.000734
         Rot=    0.999998   -0.001414    0.000538    0.000998 Ang=  -0.21 deg.
 ExpMin= 1.61D-01 ExpMax= 5.48D+03 ExpMxC= 8.25D+02 IAcc=3 IRadAn=         5 AccDes= 0.00D+00
 Harris functional with IExCor=  205 and IRadAn=       5 diagonalized for initial guess.
 HarFok:  IExCor=  205 AccDes= 0.00D+00 IRadAn=         5 IDoV= 1 UseB2=F ITyADJ=14
 ICtDFT=  3500011 ScaDFX=  1.000000  1.000000  1.000000  1.000000
 FoFCou: FMM=F IPFlag=           0 FMFlag=      100000 FMFlg1=           0
         NFxFlg=           0 DoJE=T BraDBF=F KetDBF=T FulRan=T
         wScrn=  0.000000 ICntrl=       500 IOpCl=  0 I1Cent=   200000004 NGrid=           0
         NMat0=    1 NMatS0=      1 NMatT0=    0 NMatD0=    1 NMtDS0=    0 NMtDT0=    0
 Symmetry not used in FoFCou.
 Keep R1 ints in memory in canonical form, NReq=397720213.
 Requested convergence on RMS density matrix=1.00D-08 within 128 cycles.
 Requested convergence on MAX density matrix=1.00D-06.
 Requested convergence on             energy=1.00D-06.
 No special actions if energy rises.
 SCF Done:  E(RHF) =  -661.298341492     A.U. after   15 cycles
            NFock= 15  Conv=0.50D-08     -V/T= 2.0025
 ExpMin= 1.61D-01 ExpMax= 5.48D+03 ExpMxC= 8.25D+02 IAcc=3 IRadAn=         5 AccDes= 0.00D+00
 HarFok:  IExCor=  205 AccDes= 0.00D+00 IRadAn=         5 IDoV=-2 UseB2=F ITyADJ=14
 ICtDFT= 12500011 ScaDFX=  1.000000  1.000000  1.000000  1.000000
 Range of M.O.s used for correlation:    15   236
 NBasis=   236 NAE=    52 NBE=    52 NFC=    14 NFV=     0
 NROrb=    222 NOA=    38 NOB=    38 NVA=   184 NVB=   184
 Fully direct method using O(ONN) memory.
 JobTyp=1 Pass  1:  I=  15 to  52 NPSUse=  4 ParTrn=T ParDer=T DoDerP=T.
 Spin components of T(2) and E(2):
     alpha-alpha T2 =       0.9126521844D-01 E2=     -0.2723342186D+00
     alpha-beta  T2 =       0.4914058441D+00 E2=     -0.1488143195D+01
     beta-beta   T2 =       0.9126521844D-01 E2=     -0.2723342186D+00
 ANorm=    0.1293806895D+01
 E2 =    -0.2032811632D+01 EUMP2 =    -0.66333115312439D+03
          IDoAtm=111111111111111111111111111
          Differentiating once with respect to electric field.
                with respect to dipole field.
          Differentiating once with respect to nuclear coordinates.
 Keep R1 ints in memory in canonical form, NReq=397723379.
          There are     1 degrees of freedom in the 1st order CPHF.  IDoFFX=0 NUNeed=     1.
 LinEq1:  Iter=  0 NonCon=     1 RMS=4.57D-03 Max=1.08D-01 NDo=     1
 AX will form     1 AO Fock derivatives at one time.
 LinEq1:  Iter=  1 NonCon=     1 RMS=1.54D-03 Max=2.78D-02 NDo=     1
 LinEq1:  Iter=  2 NonCon=     1 RMS=6.42D-04 Max=1.82D-02 NDo=     1
 LinEq1:  Iter=  3 NonCon=     1 RMS=2.81D-04 Max=8.29D-03 NDo=     1
 LinEq1:  Iter=  4 NonCon=     1 RMS=8.74D-05 Max=1.93D-03 NDo=     1
 LinEq1:  Iter=  5 NonCon=     1 RMS=3.65D-05 Max=1.80D-03 NDo=     1
[...]
    26  H    2.175732   1.098802   2.167055   2.497217   3.362800
    27  H    4.723780   4.418550   3.356666   3.656744   2.029311
                   16         17         18         19         20
    16  C    0.000000
    17  H    3.463955   0.000000
    18  H    4.088467   2.235801   0.000000
    19  H    2.990822   4.303311   3.511837   0.000000
    20  H    4.375339   4.449269   2.881995   1.768551   0.000000
    21  H    5.096659   6.511210   5.086520   2.499198   2.521026
    22  H    5.248845   6.100566   4.313327   3.070238   2.461466
    23  H    3.694964   6.234952   5.421205   2.704198   3.842931
    24  H    5.133817   7.200868   5.936755   3.849638   4.317149
    25  H    3.821389   6.088302   5.369803   4.171484   4.985094
    26  H    4.495241   5.781339   4.485434   4.036056   4.182409
    27  H    1.089670   4.215393   5.079355   3.583036   5.147742
                   21         22         23         24         25
    21  H    0.000000
    22  H    1.758869   0.000000
    23  H    2.469457   3.062301   0.000000
    24  H    2.517371   2.459929   1.764592   0.000000
    25  H    4.311998   3.839570   2.444033   2.519659   0.000000
    26  H    3.846780   2.704477   3.060425   2.491718   1.768001
    27  H    5.652627   6.060266   4.090100   5.694489   4.454318
                   26         27
    26  H    0.000000
    27  H    5.378470   0.000000
 Symmetry turned off by external request.
 Stoichiometry    C9H13N3O2
 Framework group  C1[X(C9H13N3O2)]
 Deg. of freedom    75
 Full point group                 C1      NOp   1
 Rotational constants (GHZ):           1.6800126           0.4193354           0.3721331

 **********************************************************************

            Population analysis using the SCF Density.

 **********************************************************************

 Alpha  occ. eigenvalues --  -20.59237 -20.58904 -15.84722 -15.64136 -15.56113
 Alpha  occ. eigenvalues --  -11.35017 -11.29623 -11.29561 -11.28629 -11.27134
 Alpha  occ. eigenvalues --  -11.23729 -11.23208 -11.22692 -11.22089  -1.57115
 Alpha  occ. eigenvalues --   -1.36708  -1.30977  -1.23065  -1.14703  -1.09819
 Alpha  occ. eigenvalues --   -1.02805  -1.01307  -0.94481  -0.89685  -0.85566
 Alpha  occ. eigenvalues --   -0.82448  -0.78609  -0.77411  -0.75202  -0.72020
 Alpha  occ. eigenvalues --   -0.69770  -0.69437  -0.67820  -0.64893  -0.63777
 Alpha  occ. eigenvalues --   -0.62367  -0.60282  -0.57700  -0.57001  -0.55077
 Alpha  occ. eigenvalues --   -0.54582  -0.50762  -0.50108  -0.48656  -0.48102
 Alpha  occ. eigenvalues --   -0.47371  -0.46146  -0.46045  -0.43677  -0.41695
 Alpha  occ. eigenvalues --   -0.39849  -0.33830
 Alpha virt. eigenvalues --    0.07464   0.11798   0.17307   0.21848   0.24112
 Alpha virt. eigenvalues --    0.25663   0.27134   0.28695   0.29043   0.29635
 Alpha virt. eigenvalues --    0.30682   0.31797   0.32036   0.32766   0.33950
 Alpha virt. eigenvalues --    0.34386   0.35848   0.37312   0.38581   0.40290
 Alpha virt. eigenvalues --    0.41385   0.42442   0.45024   0.46117   0.46730
 Alpha virt. eigenvalues --    0.47077   0.49001   0.53996   0.57579   0.59406
 Alpha virt. eigenvalues --    0.63911   0.69543   0.69909   0.72861   0.74243
 Alpha virt. eigenvalues --    0.74867   0.75780   0.76676   0.78661   0.79441
 Alpha virt. eigenvalues --    0.81385   0.84691   0.85717   0.85806   0.88530
 Alpha virt. eigenvalues --    0.89423   0.91052   0.92115   0.92855   0.94526
 Alpha virt. eigenvalues --    0.95641   0.98038   0.99637   1.01675   1.02471
 Alpha virt. eigenvalues --    1.03153   1.05873   1.06970   1.07900   1.09014
 Alpha virt. eigenvalues --    1.10283   1.11416   1.11854   1.12443   1.13915
 Alpha virt. eigenvalues --    1.14765   1.14990   1.15830   1.16903   1.18725
 Alpha virt. eigenvalues --    1.19135   1.21335   1.22576   1.23915   1.24533
 Alpha virt. eigenvalues --    1.24828   1.26038   1.26911   1.27487   1.29558
 Alpha virt. eigenvalues --    1.30007   1.33126   1.36067   1.37180   1.40860
 Alpha virt. eigenvalues --    1.41852   1.46493   1.48742   1.51701   1.54294
 Alpha virt. eigenvalues --    1.56371   1.58778   1.59557   1.63466   1.65622
 Alpha virt. eigenvalues --    1.68028   1.68621   1.72990   1.75221   1.77380
 Alpha virt. eigenvalues --    1.81577   1.84601   1.87684   1.90649   1.93490
 Alpha virt. eigenvalues --    1.95814   1.96955   1.99719   2.01568   2.02524
 Alpha virt. eigenvalues --    2.05101   2.05606   2.08496   2.09555   2.12395
 Alpha virt. eigenvalues --    2.13262   2.15296   2.18826   2.20013   2.22451
 Alpha virt. eigenvalues --    2.22638   2.24491   2.25490   2.28214   2.29548
 Alpha virt. eigenvalues --    2.31992   2.33724   2.34701   2.36399   2.38457
 Alpha virt. eigenvalues --    2.40481   2.41929   2.43869   2.45136   2.47361
 Alpha virt. eigenvalues --    2.50721   2.51949   2.53115   2.55574   2.61500
 Alpha virt. eigenvalues --    2.62309   2.65192   2.67624   2.70310   2.70494
 Alpha virt. eigenvalues --    2.72271   2.72649   2.76980   2.78439   2.83804
 Alpha virt. eigenvalues --    2.88567   2.88948   2.92943   2.93135   2.96056
 Alpha virt. eigenvalues --    2.99438   3.01342   3.04313   3.05722   3.07674
 Alpha virt. eigenvalues --    3.09414   3.15048   3.21209   3.25214   3.27459
 Alpha virt. eigenvalues --    3.33444   3.37782   3.38781   3.52159   3.65797
 Alpha virt. eigenvalues --    4.13669   4.28070   4.34717   4.38923   4.46293
 Alpha virt. eigenvalues --    4.56305   4.61872   4.62353   4.73466   4.79737
 Alpha virt. eigenvalues --    4.99415   5.00898   5.05024   5.11163
          Condensed to atoms (all electrons):
               1          2          3          4          5          6
     1  O    8.316072   0.306977  -0.082552  -0.085467   0.004638  -0.000016
     2  N    0.306977   5.722350   0.301243   0.264187  -0.053652   0.000969
     3  O   -0.082552   0.301243   8.353637  -0.092653   0.003634   0.000785
     4  C   -0.085467   0.264187  -0.092653   5.225576   0.560375  -0.047285
     5  C    0.004638  -0.053652   0.003634   0.560375   4.709993   0.317427
     6  N   -0.000016   0.000969   0.000785  -0.047285   0.317427   7.195596
     7  C    0.000004  -0.000140   0.000002   0.004631  -0.030209   0.169264
     8  H   -0.000000   0.000002  -0.000000  -0.000261   0.003095  -0.050671
     9  C   -0.000000  -0.000004  -0.000000   0.000854   0.000627  -0.061667
    10  C    0.000000   0.000000   0.000000  -0.000038  -0.000052   0.003749
    11  C   -0.000000  -0.000000  -0.000000  -0.000028   0.000025  -0.000190
    12  C   -0.000000   0.000002  -0.000000  -0.000127  -0.000176   0.003873
    13  C   -0.000025  -0.000039  -0.000004  -0.011557  -0.000585  -0.047693
    14  H   -0.000004  -0.000104   0.000001   0.002645   0.006074  -0.006957
    15  N    0.000382   0.002361  -0.000016  -0.063504  -0.006400   0.001597
    16  C    0.000868  -0.027271   0.002547   0.328480  -0.050331  -0.001853
    17  H    0.000220  -0.007232   0.017395  -0.023150   0.374511  -0.034180
    18  H    0.000001  -0.000050   0.000012   0.001506  -0.031447   0.338681
    19  H    0.000001  -0.000004   0.000000  -0.001226   0.001233  -0.000353
    20  H    0.000000  -0.000000   0.000000  -0.000079   0.000153  -0.000429
    21  H   -0.000000   0.000000   0.000000   0.000001   0.000001  -0.000077
    22  H   -0.000000   0.000000  -0.000000  -0.000000  -0.000003  -0.000117
    23  H    0.000000  -0.000000   0.000000   0.000041  -0.000000  -0.000031
    24  H    0.000000   0.000000   0.000000   0.000000  -0.000000   0.000006
    25  H    0.000000  -0.000000   0.000000   0.000024   0.000000  -0.000090
    26  H    0.000000  -0.000000   0.000000   0.000006  -0.000002  -0.000060
    27  H    0.006118  -0.000877   0.000018  -0.063401   0.002214   0.000017
               7          8          9         10         11         12
     1  O    0.000004  -0.000000  -0.000000   0.000000  -0.000000  -0.000000
     2  N   -0.000140   0.000002  -0.000004   0.000000  -0.000000   0.000002
     3  O    0.000002  -0.000000  -0.000000   0.000000  -0.000000  -0.000000
     4  C    0.004631  -0.000261   0.000854  -0.000038  -0.000028  -0.000127
     5  C   -0.030209   0.003095   0.000627  -0.000052   0.000025  -0.000176
     6  N    0.169264  -0.050671  -0.061667   0.003749  -0.000190   0.003873
     7  C    5.017551   0.418418   0.350530  -0.054675  -0.009029  -0.061070
     8  H    0.418418   0.538071  -0.055040   0.000776  -0.000325  -0.002229
     9  C    0.350530  -0.055040   5.158237   0.324773  -0.050414  -0.005341
    10  C   -0.054675   0.000776   0.324773   5.119312   0.337000  -0.060989
    11  C   -0.009029  -0.000325  -0.050414   0.337000   5.119935   0.335970
    12  C   -0.061070  -0.002229  -0.005341  -0.060989   0.335970   5.118638
    13  C    0.338597  -0.037933  -0.060243  -0.000285  -0.050692   0.371990
    14  H   -0.046591  -0.000746   0.004422  -0.000405   0.004195  -0.036319
    15  N   -0.057947   0.003899  -0.014611   0.001561  -0.013058  -0.082074
    16  C   -0.001777   0.000009  -0.001269  -0.000029   0.000029   0.002609
    17  H    0.001616  -0.000045  -0.000070   0.000001   0.000000   0.000000
    18  H   -0.021214  -0.004473   0.001328  -0.000083   0.000004  -0.000114
    19  H   -0.036858   0.004362   0.390225  -0.032071  -0.002212   0.000689
    20  H   -0.042412  -0.002077   0.399487  -0.035300   0.003931  -0.000415
    21  H    0.004599  -0.000076  -0.036358   0.402432  -0.034895   0.004348
    22  H   -0.004848   0.003559  -0.046955   0.397751  -0.045402  -0.001020
    23  H    0.000577   0.000035  -0.001958  -0.039019   0.399179  -0.037868
    24  H   -0.000130  -0.000102   0.004388  -0.038434   0.402340  -0.038692
    25  H    0.005151  -0.000025  -0.000423   0.004190  -0.033402   0.398274
    26  H   -0.003904   0.001685   0.000968  -0.002231  -0.041480   0.396728
    27  H   -0.000408   0.000009  -0.000058   0.000007   0.000012  -0.000036
              13         14         15         16         17         18
     1  O   -0.000025  -0.000004   0.000382   0.000868   0.000220   0.000001
     2  N   -0.000039  -0.000104   0.002361  -0.027271  -0.007232  -0.000050
     3  O   -0.000004   0.000001  -0.000016   0.002547   0.017395   0.000012
     4  C   -0.011557   0.002645  -0.063504   0.328480  -0.023150   0.001506
     5  C   -0.000585   0.006074  -0.006400  -0.050331   0.374511  -0.031447
     6  N   -0.047693  -0.006957   0.001597  -0.001853  -0.034180   0.338681
     7  C    0.338597  -0.046591  -0.057947  -0.001777   0.001616  -0.021214
     8  H   -0.037933  -0.000746   0.003899   0.000009  -0.000045  -0.004473
     9  C   -0.060243   0.004422  -0.014611  -0.001269  -0.000070   0.001328
    10  C   -0.000285  -0.000405   0.001561  -0.000029   0.000001  -0.000083
    11  C   -0.050692   0.004195  -0.013058   0.000029   0.000000   0.000004
    12  C    0.371990  -0.036319  -0.082074   0.002609   0.000000  -0.000114
    13  C    5.040289   0.403079   0.244749  -0.071078  -0.000009   0.002971
    14  H    0.403079   0.526774  -0.037370  -0.004539   0.000093  -0.000108
    15  N    0.244749  -0.037370   6.965140   0.585205  -0.000080  -0.000132
    16  C   -0.071078  -0.004539   0.585205   4.709819   0.002012  -0.000197
    17  H   -0.000009   0.000093  -0.000080   0.002012   0.376487  -0.002818
    18  H    0.002971  -0.000108  -0.000132  -0.000197  -0.002818   0.310597
    19  H   -0.007549   0.000106   0.007694   0.003001   0.000016  -0.000149
    20  H    0.004340  -0.000066   0.000126  -0.000036   0.000002   0.000807
    21  H   -0.000433   0.000010  -0.000041   0.000004  -0.000000   0.000001
    22  H    0.000045  -0.000055   0.000019  -0.000002   0.000000   0.000001
    23  H   -0.007523   0.000003   0.008590   0.000106   0.000000   0.000000
    24  H    0.004700  -0.000057   0.000135   0.000007   0.000000  -0.000000
    25  H   -0.035561  -0.002817   0.000409  -0.000022  -0.000000   0.000002
    26  H   -0.047412  -0.001047   0.004900  -0.000061   0.000000  -0.000000
    27  H    0.005062  -0.000174  -0.040330   0.403684  -0.000079   0.000001
              19         20         21         22         23         24
     1  O    0.000001   0.000000  -0.000000  -0.000000   0.000000   0.000000
     2  N   -0.000004  -0.000000   0.000000   0.000000  -0.000000   0.000000
     3  O    0.000000   0.000000   0.000000  -0.000000   0.000000   0.000000
     4  C   -0.001226  -0.000079   0.000001  -0.000000   0.000041   0.000000
     5  C    0.001233   0.000153   0.000001  -0.000003  -0.000000  -0.000000
     6  N   -0.000353  -0.000429  -0.000077  -0.000117  -0.000031   0.000006
     7  C   -0.036858  -0.042412   0.004599  -0.004848   0.000577  -0.000130
     8  H    0.004362  -0.002077  -0.000076   0.003559   0.000035  -0.000102
     9  C    0.390225   0.399487  -0.036358  -0.046955  -0.001958   0.004388
    10  C   -0.032071  -0.035300   0.402432   0.397751  -0.039019  -0.038434
    11  C   -0.002212   0.003931  -0.034895  -0.045402   0.399179   0.402340
    12  C    0.000689  -0.000415   0.004348  -0.001020  -0.037868  -0.038692
    13  C   -0.007549   0.004340  -0.000433   0.000045  -0.007523   0.004700
    14  H    0.000106  -0.000066   0.000010  -0.000055   0.000003  -0.000057
    15  N    0.007694   0.000126  -0.000041   0.000019   0.008590   0.000135
    16  C    0.003001  -0.000036   0.000004  -0.000002   0.000106   0.000007
    17  H    0.000016   0.000002  -0.000000   0.000000   0.000000   0.000000
    18  H   -0.000149   0.000807   0.000001   0.000001   0.000000  -0.000000
    19  H    0.504959  -0.024737  -0.002787   0.003959   0.001514  -0.000066
    20  H   -0.024737   0.541147  -0.002692  -0.002990  -0.000045  -0.000083
    21  H   -0.002787  -0.002692   0.524027  -0.027403  -0.002898  -0.002242
    22  H    0.003959  -0.002990  -0.027403   0.571320   0.004137  -0.003655
    23  H    0.001514  -0.000045  -0.002898   0.004137   0.498964  -0.025450
    24  H   -0.000066  -0.000083  -0.002242  -0.003655  -0.025450   0.538121
    25  H   -0.000029   0.000012  -0.000087  -0.000080  -0.002319  -0.002291
    26  H    0.000019  -0.000030  -0.000081   0.002379   0.004067  -0.003035
    27  H    0.000082   0.000000  -0.000000   0.000000  -0.000035  -0.000000
              25         26         27
     1  O    0.000000   0.000000   0.006118
     2  N   -0.000000  -0.000000  -0.000877
     3  O    0.000000   0.000000   0.000018
     4  C    0.000024   0.000006  -0.063401
     5  C    0.000000  -0.000002   0.002214
     6  N   -0.000090  -0.000060   0.000017
     7  C    0.005151  -0.003904  -0.000408
     8  H   -0.000025   0.001685   0.000009
     9  C   -0.000423   0.000968  -0.000058
    10  C    0.004190  -0.002231   0.000007
    11  C   -0.033402  -0.041480   0.000012
    12  C    0.398274   0.396728  -0.000036
    13  C   -0.035561  -0.047412   0.005062
    14  H   -0.002817  -0.001047  -0.000174
    15  N    0.000409   0.004900  -0.040330
    16  C   -0.000022  -0.000061   0.403684
    17  H   -0.000000   0.000000  -0.000079
    18  H    0.000002  -0.000000   0.000001
    19  H   -0.000029   0.000019   0.000082
    20  H    0.000012  -0.000030   0.000000
    21  H   -0.000087  -0.000081  -0.000000
    22  H   -0.000080   0.002379   0.000000
    23  H   -0.002319   0.004067  -0.000035
    24  H   -0.002291  -0.003035  -0.000000
    25  H    0.506112  -0.024079  -0.000013
    26  H   -0.024079   0.562320   0.000001
    27  H   -0.000013   0.000001   0.439335
 Mulliken charges:
               1
     1  O   -0.467216
     2  N    0.491282
     3  O   -0.504047
     4  C    0.000450
     5  C    0.188855
     6  N   -0.780295
     7  C    0.060271
     8  H    0.180083
     9  C   -0.301428
    10  C   -0.327939
    11  C   -0.321492
    12  C   -0.306652
    13  C   -0.037200
    14  H    0.189955
    15  N   -0.511205
    16  C    0.120087
    17  H    0.295307
    18  H    0.404874
    19  H    0.190181
    20  H    0.161387
    21  H    0.174646
    22  H    0.149361
    23  H    0.199935
    24  H    0.164541
    25  H    0.187062
    26  H    0.150347
    27  H    0.248851
 Sum of Mulliken charges =  -0.00000
 Mulliken charges with hydrogens summed into heavy atoms:
               1
     1  O   -0.467216
     2  N    0.491282
     3  O   -0.504047
     4  C    0.000450
     5  C    0.484161
     6  N   -0.375421
     7  C    0.240354
     9  C    0.050140
    10  C   -0.003932
    11  C    0.042984
    12  C    0.030757
    13  C    0.152754
    15  N   -0.511205
    16  C    0.368938
 Electronic spatial extent (au):  <R**2>=           3005.3967
 Charge=             -0.0000 electrons
 Dipole moment (field-independent basis, Debye):
    X=              5.4162    Y=              4.7956    Z=              1.2813  Tot=              7.3467
 Quadrupole moment (field-independent basis, Debye-Ang):
   XX=           -106.1426   YY=            -79.2264   ZZ=            -81.5005
   XY=             -1.7653   XZ=             -0.1339   YZ=              1.8581
 Traceless Quadrupole moment (field-independent basis, Debye-Ang):
   XX=            -17.1861   YY=              9.7301   ZZ=              7.4560
   XY=             -1.7653   XZ=             -0.1339   YZ=              1.8581
 Octapole moment (field-independent basis, Debye-Ang**2):
  XXX=             92.4075  YYY=             36.2833  ZZZ=             -1.4955  XYY=             -4.5732
  XXY=              9.5321  XXZ=              4.9304  XZZ=             -9.7616  YZZ=             -0.3928
  YYZ=              7.9922  XYZ=              0.2483
 Hexadecapole moment (field-independent basis, Debye-Ang**3):
 XXXX=          -3382.1447 YYYY=           -601.0742 ZZZZ=           -303.8151 XXXY=            -20.8979
 XXXZ=            -13.4920 YYYX=             -8.9592 YYYZ=             25.0226 ZZZX=              1.8852
 ZZZY=              7.0982 XXYY=           -627.7893 XXZZ=           -523.8082 YYZZ=           -157.3246
 XXYZ=             -4.2711 YYXZ=              1.6883 ZZXY=              4.6944
 N-N= 9.312280838856D+02 E-N=-3.409172130262D+03  KE= 6.596285211528D+02
 Unable to Open any file for archive entry.
 1\1\GINC-LOTUS\FOpt\RMP2-FC\6-31G(d)\C9H13N3O2\ALEXEY\01-Jul-2023\0\\#
 MP2/6-31G* SCF=Tight Opt=(ModRedun, MaxCycle=20 ) NoSymm\\MolName:\\0,
 1\O,-3.5070296862,-1.3903744957,-0.3707734996\N,-3.1211461191,-0.23226
 80474,-0.1183917568\O,-3.8953642868,0.72887027,0.0554542121\C,-1.68663
 63514,-0.0238930471,-0.0095955093\C,-1.3013853004,1.2605559104,0.27541
 44085\N,-0.0571619702,1.7501681804,0.3864066859\C,1.2056627165,1.02403
 5564,0.3593168481\H,1.8534610349,1.5530293552,1.0746487198\C,1.9089832
 976,1.035067194,-0.9965908233\C,3.3073790466,0.4284356581,-0.832667993
 1\C,3.2594793742,-0.9676419662,-0.2060059746\C,2.4646516961,-0.9782197
 646,1.1015461815\C,1.0549011014,-0.4245460352,0.8652339942\H,0.4784449
 247,-0.4032040091,1.8037105054\N,0.4083240161,-1.3180432382,-0.0908213
 533\C,-0.8390799738,-1.1383301653,-0.3861014098\H,-2.096181307,1.98742
 74929,0.4190794563\H,0.0016282011,2.7353543182,0.6155659408\H,1.314635
 6272,0.4575404417,-1.7126471594\H,1.9748955777,2.0629779309,-1.3744145
 641\H,3.8112110526,0.3902917476,-1.8052698983\H,3.9072464349,1.0947871
 956,-0.1965173658\H,2.7816982401,-1.6644603516,-0.9017681976\H,4.27866
 88966,-1.3311613903,-0.0289710725\H,2.3792576025,-2.0001520825,1.48541
 61398\H,2.974689941,-0.3803517981,1.8695173051\H,-1.3002237872,-1.8929
 248676,-1.02274382\\Version=ES64L-G16RevC.02\HF=-661.3003538\MP2=-663.
 3346493\RMSD=7.866e-09\RMSF=1.458e-05\Dipole=1.979327,1.6917651,0.4711
 615\PG=C01 [X(C9H13N3O2)]\\@
 The archive entry for this job was punched.


 THOSE WHO ARE UNABLE TO LEARN FROM PAST MEETINGS
 ARE CONDEMNED TO REPEAT THEM.
 Job cpu time:       0 days  1 hours 10 minutes 52.5 seconds.
 Elapsed time:       0 days  0 hours 21 minutes 28.5 seconds.
 File lengths (MBytes):  RWF=     36 Int=      0 D2E=      0 Chk=      7 Scr=      1
 Normal termination of Gaussian 16 at Sat Jul  1 17:56:05 2023.
