 Entering Gaussian System, Link 0=g16
 Initial command:
 /home/alexey/programs//g16/l1.exe "/home/alexey/tmp/Gau-1363930.inp" -scrdir="/home/alexey/tmp/"
 Entering Link 1 = /home/alexey/programs//g16/l1.exe PID=   1363932.
  
 Copyright (c) 1988-2021, Gaussian, Inc.  All Rights Reserved.
  
 This is part of the Gaussian(R) 16 program.  It is based on
 the Gaussian(R) 09 system (copyright 2009, Gaussian, Inc.),
 the Gaussian(R) 03 system (copyright 2003, Gaussian, Inc.),
 the Gaussian(R) 98 system (copyright 1998, Gaussian, Inc.),
 the Gaussian(R) 94 system (copyright 1995, Gaussian, Inc.),
 the Gaussian 92(TM) system (copyright 1992, Gaussian, Inc.),
 the Gaussian 90(TM) system (copyright 1990, Gaussian, Inc.),
 the Gaussian 88(TM) system (copyright 1988, Gaussian, Inc.),
 the Gaussian 86(TM) system (copyright 1986, Carnegie Mellon
 University), and the Gaussian 82(TM) system (copyright 1983,
 Carnegie Mellon University). Gaussian is a federally registered
 trademark of Gaussian, Inc.
  
 This software contains proprietary and confidential information,
 including trade secrets, belonging to Gaussian, Inc.
  
 This software is provided under written license and may be
 used, copied, transmitted, or stored only in accord with that
 written license.
  
 The following legend is applicable only to US Government
 contracts under FAR:
  
                    RESTRICTED RIGHTS LEGEND
  
 Use, reproduction and disclosure by the US Government is
 subject to restrictions as set forth in subparagraphs (a)
 and (c) of the Commercial Computer Software - Restricted
 Rights clause in FAR 52.227-19.
  
 Gaussian, Inc.
 340 Quinnipiac St., Bldg. 40, Wallingford CT 06492
  
  
 ---------------------------------------------------------------
 Warning -- This program may not be used in any manner that
 competes with the business of Gaussian, Inc. or will provide
 assistance to any competitor of Gaussian, Inc.  The licensee
 of this program is prohibited from giving any competitor of
 Gaussian, Inc. access to this program.  By using this program,
 the user acknowledges that Gaussian, Inc. is engaged in the
 business of creating and licensing software in the field of
 computational chemistry and represents and warrants to the
 licensee that it is not a competitor of Gaussian, Inc. and that
 it will not use this program in any manner prohibited above.
 ---------------------------------------------------------------
  

 Cite this work as:
 Gaussian 16, Revision C.02,
 M. J. Frisch, G. W. Trucks, H. B. Schlegel, G. E. Scuseria, 
 M. A. Robb, J. R. Cheeseman, G. Scalmani, V. Barone, 
 G. A. Petersson, H. Nakatsuji, X. Li, M. Caricato, A. V. Marenich, 
 J. Bloino, B. G. Janesko, R. Gomperts, B. Mennucci, H. P. Hratchian, 
 J. V. Ortiz, A. F. Izmaylov, J. L. Sonnenberg, D. Williams-Young, 
 F. Ding, F. Lipparini, F. Egidi, J. Goings, B. Peng, A. Petrone, 
 T. Henderson, D. Ranasinghe, V. G. Zakrzewski, J. Gao, N. Rega, 
 G. Zheng, W. Liang, M. Hada, M. Ehara, K. Toyota, R. Fukuda, 
 J. Hasegawa, M. Ishida, T. Nakajima, Y. Honda, O. Kitao, H. Nakai, 
 T. Vreven, K. Throssell, J. A. Montgomery, Jr., J. E. Peralta, 
 F. Ogliaro, M. J. Bearpark, J. J. Heyd, E. N. Brothers, K. N. Kudin, 
 V. N. Staroverov, T. A. Keith, R. Kobayashi, J. Normand, 
 K. Raghavachari, A. P. Rendell, J. C. Burant, S. S. Iyengar, 
 J. Tomasi, M. Cossi, J. M. Millam, M. Klene, C. Adamo, R. Cammi, 
 J. W. Ochterski, R. L. Martin, K. Morokuma, O. Farkas, 
 J. B. Foresman, and D. J. Fox, Gaussian, Inc., Wallingford CT, 2019.
 
 ******************************************
 Gaussian 16:  ES64L-G16RevC.02  7-Dec-2021
                 1-Jul-2023 
 ******************************************
 %mem=8GB
 %NPROCS=4
 Will use up to    4 processors via shared memory.
 %NoSave
 ---------------------------------------------------------
 #MP2/6-31G* SCF=Tight Opt=(ModRedun, MaxCycle=20 ) NoSymm
 ---------------------------------------------------------
 1/6=20,18=120,19=15,38=1/1,3;
 2/9=110,12=2,15=1,17=6,18=5,40=1/2;
 3/5=1,6=6,7=1,11=9,25=1,30=1,71=1/1,2,3;
 4//1;
 5/5=2,32=2,38=5/2;
 8/6=4,10=2/1;
 9/15=2,16=-3/6;
 10/5=1,31=1/2;
 6/7=2,8=2,9=2,10=2/1;
 7/12=2,30=1/1,2,3,16;
 1/6=20,18=20,19=15/3(2);
 2/9=110,15=1/2;
 99//99;
 2/9=110,15=1/2;
 3/5=1,6=6,7=1,11=9,25=1,30=1,71=1/1,2,3;
 4/5=5,16=3,69=1/1;
 5/5=2,32=2,38=5/2;
 8/6=4,10=2/1;
 9/15=2,16=-3/6;
 10/5=1,31=1/2;
 7/12=2,30=1/1,2,3,16;
 1/6=20,18=20,19=15/3(-8);
 2/9=110,15=1/2;
 6/7=2,8=2,9=2,10=2/1;
 99/9=10/99;
 --------
 MolName:
 --------
 Symbolic Z-matrix:
 Charge =  0 Multiplicity = 1
 8                    0    -3.6129   -1.41276  -0.22158 
 7                    0    -3.23236  -0.25087  -0.08262 
 8                    0    -4.00724   0.70467  -0.0087 
 6                    0    -1.71523   0.01253  -0.05206 
 6                    0    -1.3694    1.32899   0.26209 
 7                    0    -0.08411   1.76779   0.43654 
 6                    0     1.19368   0.98952   0.38598 
 1                    0     1.86859   1.48305   1.1324 
 6                    0     1.93662   1.04962  -0.97208 
 6                    0     3.35388   0.46791  -0.80841 
 6                    0     3.30797  -0.95103  -0.21983 
 6                    0     2.48129  -0.99419   1.08311 
 6                    0     1.03747  -0.46764   0.85809 
 1                    0     0.50301  -0.51121   1.83593 
 7                    0     0.3706   -1.34786  -0.10898 
 6                    0    -0.87715  -1.16437  -0.38876 
 1                    0    -2.16632   2.07179   0.4324 
 1                    0     0.15623   2.75468   0.31537 
 1                    0     1.37661   0.47333  -1.7391 
 1                    0     2.01288   2.10128  -1.32115 
 1                    0     3.87261   0.4507   -1.79189 
 1                    0     3.93961   1.12104  -0.12357 
 1                    0     2.85215  -1.63914  -0.96714 
 1                    0     4.34109  -1.31084  -0.0211 
 1                    0     2.43558  -2.04191   1.45316 
 1                    0     2.98333  -0.38204   1.86134 
 1                    0    -1.3965   -1.93903  -0.97344 
 
 The following ModRedundant input section has been read:
 A       5       4      16 F                                                   
 D       1       2       4      16 F                                           
 D       7      13      15      16 F                                           
 D       7       9      10      11 F                                           
 D       9      10      11      12 F                                           
 D       6       7      13      15 F                                           
 

 GradGradGradGradGradGradGradGradGradGradGradGradGradGradGradGradGradGrad
 Berny optimization.
 Initialization pass.
                           ----------------------------
                           !    Initial Parameters    !
                           ! (Angstroms and Degrees)  !
 --------------------------                            --------------------------
 ! Name  Definition              Value          Derivative Info.                !
 --------------------------------------------------------------------------------
 ! R1    R(1,2)                  1.2305         estimate D2E/DX2                !
 ! R2    R(2,3)                  1.2325         estimate D2E/DX2                !
 ! R3    R(2,4)                  1.5401         estimate D2E/DX2                !
 ! R4    R(4,5)                  1.3969         estimate D2E/DX2                !
 ! R5    R(4,16)                 1.4835         estimate D2E/DX2                !
 ! R6    R(5,6)                  1.3693         estimate D2E/DX2                !
 ! R7    R(5,17)                 1.1027         estimate D2E/DX2                !
 ! R8    R(6,7)                  1.497          estimate D2E/DX2                !
 ! R9    R(6,18)                 1.0229         estimate D2E/DX2                !
 ! R10   R(7,8)                  1.1208         estimate D2E/DX2                !
 ! R11   R(7,9)                  1.5492         estimate D2E/DX2                !
 ! R12   R(7,13)                 1.5397         estimate D2E/DX2                !
 ! R13   R(9,10)                 1.5407         estimate D2E/DX2                !
 ! R14   R(9,19)                 1.1109         estimate D2E/DX2                !
 ! R15   R(9,20)                 1.1107         estimate D2E/DX2                !
 ! R16   R(10,11)                1.5369         estimate D2E/DX2                !
 ! R17   R(10,21)                1.112          estimate D2E/DX2                !
 ! R18   R(10,22)                1.113          estimate D2E/DX2                !
 ! R19   R(11,12)                1.5437         estimate D2E/DX2                !
 ! R20   R(11,23)                1.1134         estimate D2E/DX2                !
 ! R21   R(11,24)                1.1119         estimate D2E/DX2                !
 ! R22   R(12,13)                1.5532         estimate D2E/DX2                !
 ! R23   R(12,25)                1.1121         estimate D2E/DX2                !
 ! R24   R(12,26)                1.1101         estimate D2E/DX2                !
 ! R25   R(13,14)                1.1152         estimate D2E/DX2                !
 ! R26   R(13,15)                1.4679         estimate D2E/DX2                !
 ! R27   R(15,16)                1.2918         estimate D2E/DX2                !
 ! R28   R(16,27)                1.1008         estimate D2E/DX2                !
 ! A1    A(1,2,3)              122.9851         estimate D2E/DX2                !
 ! A2    A(1,2,4)              117.9286         estimate D2E/DX2                !
 ! A3    A(3,2,4)              119.0485         estimate D2E/DX2                !
 ! A4    A(2,4,5)              114.174          estimate D2E/DX2                !
 ! A5    A(2,4,16)             114.6018         estimate D2E/DX2                !
 ! A6    A(5,4,16)             131.2092         Frozen                          !
 ! A7    A(4,5,6)              124.266          estimate D2E/DX2                !
 ! A8    A(4,5,17)             119.3842         estimate D2E/DX2                !
 ! A9    A(6,5,17)             116.2853         estimate D2E/DX2                !
 ! A10   A(5,6,7)              129.0723         estimate D2E/DX2                !
 ! A11   A(5,6,18)             120.9716         estimate D2E/DX2                !
 ! A12   A(7,6,18)             107.2787         estimate D2E/DX2                !
 ! A13   A(6,7,8)              105.2226         estimate D2E/DX2                !
 ! A14   A(6,7,9)              114.7582         estimate D2E/DX2                !
 ! A15   A(6,7,13)             113.2702         estimate D2E/DX2                !
 ! A16   A(8,7,9)              106.1377         estimate D2E/DX2                !
 ! A17   A(8,7,13)             105.88           estimate D2E/DX2                !
 ! A18   A(9,7,13)             110.743          estimate D2E/DX2                !
 ! A19   A(7,9,10)             109.4738         estimate D2E/DX2                !
 ! A20   A(7,9,19)             110.0844         estimate D2E/DX2                !
 ! A21   A(7,9,20)             110.1922         estimate D2E/DX2                !
 ! A22   A(10,9,19)            109.9503         estimate D2E/DX2                !
 ! A23   A(10,9,20)            109.1303         estimate D2E/DX2                !
 ! A24   A(19,9,20)            107.9875         estimate D2E/DX2                !
 ! A25   A(9,10,11)            111.2105         estimate D2E/DX2                !
 ! A26   A(9,10,21)            109.937          estimate D2E/DX2                !
 ! A27   A(9,10,22)            109.1422         estimate D2E/DX2                !
 ! A28   A(11,10,21)           109.7764         estimate D2E/DX2                !
 ! A29   A(11,10,22)           108.7767         estimate D2E/DX2                !
 ! A30   A(21,10,22)           107.926          estimate D2E/DX2                !
 ! A31   A(10,11,12)           111.4116         estimate D2E/DX2                !
 ! A32   A(10,11,23)           109.0125         estimate D2E/DX2                !
 ! A33   A(10,11,24)           109.8445         estimate D2E/DX2                !
 ! A34   A(12,11,23)           109.2683         estimate D2E/DX2                !
 ! A35   A(12,11,24)           109.7359         estimate D2E/DX2                !
 ! A36   A(23,11,24)           107.4788         estimate D2E/DX2                !
 ! A37   A(11,12,13)           111.4722         estimate D2E/DX2                !
 ! A38   A(11,12,25)           109.221          estimate D2E/DX2                !
 ! A39   A(11,12,26)           109.5177         estimate D2E/DX2                !
 ! A40   A(13,12,25)           109.2312         estimate D2E/DX2                !
 ! A41   A(13,12,26)           109.5727         estimate D2E/DX2                !
 ! A42   A(25,12,26)           107.7474         estimate D2E/DX2                !
 ! A43   A(7,13,12)            105.7207         estimate D2E/DX2                !
 ! A44   A(7,13,14)            110.7599         estimate D2E/DX2                !
 ! A45   A(7,13,15)            114.3047         estimate D2E/DX2                !
 ! A46   A(12,13,14)           107.7711         estimate D2E/DX2                !
 ! A47   A(12,13,15)           108.3285         estimate D2E/DX2                !
 ! A48   A(14,13,15)           109.6642         estimate D2E/DX2                !
 ! A49   A(13,15,16)           119.7562         estimate D2E/DX2                !
 ! A50   A(4,16,15)            127.53           estimate D2E/DX2                !
 ! A51   A(4,16,27)            114.35           estimate D2E/DX2                !
 ! A52   A(15,16,27)           118.0855         estimate D2E/DX2                !
 ! D1    D(1,2,4,5)           -172.9899         estimate D2E/DX2                !
 ! D2    D(1,2,4,16)             8.2587         Frozen                          !
 ! D3    D(3,2,4,5)              9.1796         estimate D2E/DX2                !
 ! D4    D(3,2,4,16)          -169.5719         estimate D2E/DX2                !
 ! D5    D(2,4,5,6)            175.2823         estimate D2E/DX2                !
 ! D6    D(2,4,5,17)            -1.684          estimate D2E/DX2                !
 ! D7    D(16,4,5,6)            -6.2267         estimate D2E/DX2                !
 ! D8    D(16,4,5,17)          176.8069         estimate D2E/DX2                !
 ! D9    D(2,4,16,15)         -160.068          estimate D2E/DX2                !
 ! D10   D(2,4,16,27)           22.1315         estimate D2E/DX2                !
 ! D11   D(5,4,16,15)           21.4461         estimate D2E/DX2                !
 ! D12   D(5,4,16,27)         -156.3544         estimate D2E/DX2                !
 ! D13   D(4,5,6,7)             -2.2493         estimate D2E/DX2                !
 ! D14   D(4,5,6,18)           156.7348         estimate D2E/DX2                !
 ! D15   D(17,5,6,7)           174.8026         estimate D2E/DX2                !
 ! D16   D(17,5,6,18)          -26.2133         estimate D2E/DX2                !
 ! D17   D(5,6,7,8)           -146.6396         estimate D2E/DX2                !
 ! D18   D(5,6,7,9)             97.0838         estimate D2E/DX2                !
 ! D19   D(5,6,7,13)           -31.444          estimate D2E/DX2                !
 ! D20   D(18,6,7,8)            52.146          estimate D2E/DX2                !
 ! D21   D(18,6,7,9)           -64.1306         estimate D2E/DX2                !
 ! D22   D(18,6,7,13)          167.3415         estimate D2E/DX2                !
 ! D23   D(6,7,9,10)           168.2706         estimate D2E/DX2                !
 ! D24   D(6,7,9,19)           -70.7565         estimate D2E/DX2                !
 ! D25   D(6,7,9,20)            48.2434         estimate D2E/DX2                !
 ! D26   D(8,7,9,10)            52.5203         estimate D2E/DX2                !
 ! D27   D(8,7,9,19)           173.4932         estimate D2E/DX2                !
 ! D28   D(8,7,9,20)           -67.5069         estimate D2E/DX2                !
 ! D29   D(13,7,9,10)          -61.947          estimate D2E/DX2                !
 ! D30   D(13,7,9,19)           59.0258         estimate D2E/DX2                !
 ! D31   D(13,7,9,20)          178.0258         estimate D2E/DX2                !
 ! D32   D(6,7,13,12)         -165.9282         estimate D2E/DX2                !
 ! D33   D(6,7,13,14)          -49.4544         estimate D2E/DX2                !
 ! D34   D(6,7,13,15)           75.0217         Frozen                          !
 ! D35   D(8,7,13,12)          -51.125          estimate D2E/DX2                !
 ! D36   D(8,7,13,14)           65.3488         estimate D2E/DX2                !
 ! D37   D(8,7,13,15)         -170.1751         estimate D2E/DX2                !
 ! D38   D(9,7,13,12)           63.5043         estimate D2E/DX2                !
 ! D39   D(9,7,13,14)          179.9781         estimate D2E/DX2                !
 ! D40   D(9,7,13,15)          -55.5458         estimate D2E/DX2                !
 ! D41   D(7,9,10,11)           54.812          Frozen                          !
 ! D42   D(7,9,10,21)          176.6044         estimate D2E/DX2                !
 ! D43   D(7,9,10,22)          -65.2002         estimate D2E/DX2                !
 ! D44   D(19,9,10,11)         -66.2421         estimate D2E/DX2                !
 ! D45   D(19,9,10,21)          55.5503         estimate D2E/DX2                !
 ! D46   D(19,9,10,22)         173.7457         estimate D2E/DX2                !
 ! D47   D(20,9,10,11)         175.4872         estimate D2E/DX2                !
 ! D48   D(20,9,10,21)         -62.7204         estimate D2E/DX2                !
 ! D49   D(20,9,10,22)          55.4749         estimate D2E/DX2                !
 ! D50   D(9,10,11,12)         -52.8219         Frozen                          !
 ! D51   D(9,10,11,23)          67.8436         estimate D2E/DX2                !
 ! D52   D(9,10,11,24)        -174.634          estimate D2E/DX2                !
 ! D53   D(21,10,11,12)       -174.7077         estimate D2E/DX2                !
 ! D54   D(21,10,11,23)        -54.0422         estimate D2E/DX2                !
 ! D55   D(21,10,11,24)         63.4801         estimate D2E/DX2                !
 ! D56   D(22,10,11,12)         67.4068         estimate D2E/DX2                !
 ! D57   D(22,10,11,23)       -171.9277         estimate D2E/DX2                !
 ! D58   D(22,10,11,24)        -54.4054         estimate D2E/DX2                !
 ! D59   D(10,11,12,13)         56.804          estimate D2E/DX2                !
 ! D60   D(10,11,12,25)        177.6            estimate D2E/DX2                !
 ! D61   D(10,11,12,26)        -64.6198         estimate D2E/DX2                !
 ! D62   D(23,11,12,13)        -63.7113         estimate D2E/DX2                !
 ! D63   D(23,11,12,25)         57.0847         estimate D2E/DX2                !
 ! D64   D(23,11,12,26)        174.8649         estimate D2E/DX2                !
 ! D65   D(24,11,12,13)        178.6791         estimate D2E/DX2                !
 ! D66   D(24,11,12,25)        -60.5249         estimate D2E/DX2                !
 ! D67   D(24,11,12,26)         57.2554         estimate D2E/DX2                !
 ! D68   D(11,12,13,7)         -60.6704         estimate D2E/DX2                !
 ! D69   D(11,12,13,14)       -179.1531         estimate D2E/DX2                !
 ! D70   D(11,12,13,15)         62.2641         estimate D2E/DX2                !
 ! D71   D(25,12,13,7)         178.5396         estimate D2E/DX2                !
 ! D72   D(25,12,13,14)         60.0569         estimate D2E/DX2                !
 ! D73   D(25,12,13,15)        -58.5259         estimate D2E/DX2                !
 ! D74   D(26,12,13,7)          60.7214         estimate D2E/DX2                !
 ! D75   D(26,12,13,14)        -57.7613         estimate D2E/DX2                !
 ! D76   D(26,12,13,15)       -176.3441         estimate D2E/DX2                !
 ! D77   D(7,13,15,16)         -67.1596         Frozen                          !
 ! D78   D(12,13,15,16)        175.2729         estimate D2E/DX2                !
 ! D79   D(14,13,15,16)         57.8977         estimate D2E/DX2                !
 ! D80   D(13,15,16,4)          12.9622         estimate D2E/DX2                !
 ! D81   D(13,15,16,27)       -169.3091         estimate D2E/DX2                !
 --------------------------------------------------------------------------------
 Trust Radius=3.00D-01 FncErr=1.00D-07 GrdErr=1.00D-07 EigMax=2.50D+02 EigMin=1.00D-04
 Number of steps in this run=     20 maximum allowed number of steps=    162.
 GradGradGradGradGradGradGradGradGradGradGradGradGradGradGradGradGradGrad

                          Input orientation:                          
 ---------------------------------------------------------------------
 Center     Atomic      Atomic             Coordinates (Angstroms)
 Number     Number       Type             X           Y           Z
 ---------------------------------------------------------------------
      1          8           0       -3.612900   -1.412760   -0.221580
      2          7           0       -3.232360   -0.250870   -0.082620
      3          8           0       -4.007240    0.704670   -0.008700
      4          6           0       -1.715230    0.012530   -0.052060
      5          6           0       -1.369400    1.328990    0.262090
      6          7           0       -0.084110    1.767790    0.436540
      7          6           0        1.193680    0.989520    0.385980
      8          1           0        1.868590    1.483050    1.132400
      9          6           0        1.936620    1.049620   -0.972080
     10          6           0        3.353880    0.467910   -0.808410
     11          6           0        3.307970   -0.951030   -0.219830
     12          6           0        2.481290   -0.994190    1.083110
     13          6           0        1.037470   -0.467640    0.858090
     14          1           0        0.503010   -0.511210    1.835930
     15          7           0        0.370600   -1.347860   -0.108980
     16          6           0       -0.877150   -1.164370   -0.388760
     17          1           0       -2.166320    2.071790    0.432400
     18          1           0        0.156230    2.754680    0.315370
     19          1           0        1.376610    0.473330   -1.739100
     20          1           0        2.012880    2.101280   -1.321150
     21          1           0        3.872610    0.450700   -1.791890
     22          1           0        3.939610    1.121040   -0.123570
     23          1           0        2.852150   -1.639140   -0.967140
     24          1           0        4.341090   -1.310840   -0.021100
     25          1           0        2.435580   -2.041910    1.453160
     26          1           0        2.983330   -0.382040    1.861340
     27          1           0       -1.396500   -1.939030   -0.973440
 ---------------------------------------------------------------------
                    Distance matrix (angstroms):
                    1          2          3          4          5
     1  O    0.000000
     2  N    1.230491   0.000000
     3  O    2.164332   1.232461   0.000000
     4  C    2.379357   1.540129   2.394629   0.000000
     5  C    3.575531   2.466861   2.724207   1.396909   0.000000
     6  N    4.795975   3.775711   4.088938   2.445449   1.369288
     7  C    5.407707   4.620388   5.223646   3.099701   2.588430
     8  H    6.345527   5.522902   6.036006   4.050820   3.356449
     9  C    6.117494   5.403773   6.031299   3.906149   3.539914
    10  C    7.239980   6.664981   7.408217   5.145417   4.919025
    11  C    6.936255   6.579131   7.503214   5.117532   5.225756
    12  C    6.246324   5.878541   6.795528   4.462385   4.571548
    13  C    4.866711   4.377599   5.251165   2.938757   3.062045
    14  H    4.689014   4.207327   5.022288   2.959628   3.060919
    15  N    3.985620   3.766351   4.836157   2.490901   3.214159
    16  C    2.752086   2.544645   3.665409   1.483522   2.623501
    17  H    3.829148   2.606998   2.335074   2.163038   1.102651
    18  H    5.644662   4.546897   4.652101   3.340173   2.088774
    19  H    5.545756   4.950858   5.659827   3.552170   3.503924
    20  H    6.723610   5.880400   6.317823   4.457832   3.813515
    21  H    7.872180   7.341281   8.083087   5.868812   5.698148
    22  H    7.966816   7.302121   7.958579   5.762909   5.327060
    23  H    6.511834   6.303248   7.311859   4.942302   5.304930
    24  H    7.957169   7.647514   8.588192   6.199297   6.297507
    25  H    6.307511   6.139380   7.154765   4.869870   5.221062
    26  H    6.993654   6.513907   7.317517   5.088541   4.942821
    27  H    2.398892   2.648363   3.838728   2.181540   3.493884
                    6          7          8          9         10
     6  N    0.000000
     7  C    1.497000   0.000000
     8  H    2.092447   1.120811   0.000000
     9  C    2.565800   1.549161   2.149727   0.000000
    10  C    3.880640   2.522917   2.646382   1.540714   0.000000
    11  C    4.396477   2.933081   3.134499   2.539504   1.536856
    12  C    3.824639   2.465570   2.552361   2.949175   2.544995
    13  C    2.536295   1.539677   2.138036   2.541667   3.003037
    14  H    2.738036   2.198083   2.517307   3.518003   4.009822
    15  N    3.195564   2.527012   3.434974   2.990865   3.561767
    16  C    3.147633   3.086714   4.106318   3.627577   4.554345
    17  H    2.104289   3.530306   4.137283   4.455504   5.880871
    18  H    1.022936   2.048677   2.284022   2.781105   4.088663
    19  H    2.922796   2.194511   3.083357   1.110874   2.185363
    20  H    2.756457   2.195767   2.534351   1.110700   2.174645
    21  H    4.728241   3.494297   3.692332   2.186058   1.112030
    22  H    4.113676   2.795902   2.449007   2.176474   1.112953
    23  H    4.711593   3.389883   3.888898   2.840361   2.171771
    24  H    5.410156   3.919638   3.905079   3.501087   2.181374
    25  H    4.679334   3.445396   3.584649   3.960847   3.501024
    26  H    4.007619   2.694571   2.291846   3.342682   2.826179
    27  H    4.177431   4.139258   5.177452   4.476798   5.327918
                   11         12         13         14         15
    11  C    0.000000
    12  C    1.543669   0.000000
    13  C    2.559443   1.553224   0.000000
    14  H    3.505338   2.171083   1.115221   0.000000
    15  N    2.966126   2.449729   1.467899   2.121365   0.000000
    16  C    4.193958   3.670760   2.388689   2.698278   1.291830
    17  H    6.287344   5.605706   4.110254   3.970782   4.292209
    18  H    4.894098   4.477651   3.384446   3.619171   4.129995
    19  H    2.840270   3.367314   2.783134   3.809637   2.643119
    20  H    3.493817   3.947380   3.507116   4.367146   4.007868
    21  H    2.180605   3.505582   3.987952   5.043863   4.281481
    22  H    2.168342   2.838481   3.451083   4.279498   4.339759
    23  H    1.113436   2.181060   2.827886   3.827256   2.641850
    24  H    1.111887   2.185956   3.521060   4.338067   3.971635
    25  H    2.179445   1.112090   2.187955   2.494871   2.680696
    26  H    2.181836   1.110141   2.190938   2.483811   3.411939
    27  H    4.865810   4.489919   3.382854   3.679588   2.054122
                   16         17         18         19         20
    16  C    0.000000
    17  H    3.578966   0.000000
    18  H    4.113712   2.423690   0.000000
    19  H    3.095951   4.452285   3.303745   0.000000
    20  H    4.459383   4.532275   2.559742   1.797149   0.000000
    21  H    5.209361   6.636571   4.853900   2.496661   2.530732
    22  H    5.338033   6.204467   4.144323   3.098134   2.471307
    23  H    3.803631   6.396464   5.312106   2.689920   3.849732
    24  H    5.233226   7.348077   5.844204   3.863021   4.330503
    25  H    3.890620   6.256354   5.431140   4.199806   5.004148
    26  H    4.536331   5.880650   4.496836   4.034399   4.151734
    27  H    1.100760   4.319223   5.109101   3.754445   5.298007
                   21         22         23         24         25
    21  H    0.000000
    22  H    1.799204   0.000000
    23  H    2.467586   3.084278   0.000000
    24  H    2.541298   2.466927   1.794356   0.000000
    25  H    4.336878   3.840890   2.488696   2.517712   0.000000
    26  H    3.851021   2.667131   3.098033   2.499952   1.794940
    27  H    5.843303   6.209700   4.259225   5.849916   4.536938
                   26         27
    26  H    0.000000
    27  H    5.444548   0.000000
 Symmetry turned off by external request.
 Stoichiometry    C9H13N3O2
 Framework group  C1[X(C9H13N3O2)]
 Deg. of freedom    75
 Full point group                 C1      NOp   1
 Rotational constants (GHZ):           1.6580844           0.4033344           0.3571416
 Standard basis: 6-31G(d) (6D, 7F)
   236 basis functions,   444 primitive gaussians,   236 cartesian basis functions
    52 alpha electrons       52 beta electrons
       nuclear repulsion energy       917.8570117369 Hartrees.
 NAtoms=   27 NActive=   27 NUniq=   27 SFac= 1.00D+00 NAtFMM=   60 NAOKFM=F Big=F
 Integral buffers will be    131072 words long.
 Raffenetti 1 integral format.
 Two-electron integral symmetry is turned off.
 One-electron integrals computed using PRISM.
 NBasis=   236 RedAO= T EigKep=  1.25D-03  NBF=   236
 NBsUse=   236 1.00D-06 EigRej= -1.00D+00 NBFU=   236
 ExpMin= 1.61D-01 ExpMax= 5.48D+03 ExpMxC= 8.25D+02 IAcc=3 IRadAn=         5 AccDes= 0.00D+00
 Harris functional with IExCor=  205 and IRadAn=       5 diagonalized for initial guess.
 HarFok:  IExCor=  205 AccDes= 0.00D+00 IRadAn=         5 IDoV= 1 UseB2=F ITyADJ=14
 ICtDFT=  3500011 ScaDFX=  1.000000  1.000000  1.000000  1.000000
 FoFCou: FMM=F IPFlag=           0 FMFlag=      100000 FMFlg1=           0
         NFxFlg=           0 DoJE=T BraDBF=F KetDBF=T FulRan=T
         wScrn=  0.000000 ICntrl=       500 IOpCl=  0 I1Cent=   200000004 NGrid=           0
         NMat0=    1 NMatS0=      1 NMatT0=    0 NMatD0=    1 NMtDS0=    0 NMtDT0=    0
 Symmetry not used in FoFCou.
 Keep R1 ints in memory in canonical form, NReq=397720213.
 Requested convergence on RMS density matrix=1.00D-08 within 128 cycles.
 Requested convergence on MAX density matrix=1.00D-06.
 Requested convergence on             energy=1.00D-06.
 No special actions if energy rises.
 SCF Done:  E(RHF) =  -661.280714905     A.U. after   16 cycles
            NFock= 16  Conv=0.84D-08     -V/T= 2.0037
 ExpMin= 1.61D-01 ExpMax= 5.48D+03 ExpMxC= 8.25D+02 IAcc=3 IRadAn=         5 AccDes= 0.00D+00
 HarFok:  IExCor=  205 AccDes= 0.00D+00 IRadAn=         5 IDoV=-2 UseB2=F ITyADJ=14
 ICtDFT= 12500011 ScaDFX=  1.000000  1.000000  1.000000  1.000000
 Range of M.O.s used for correlation:    15   236
 NBasis=   236 NAE=    52 NBE=    52 NFC=    14 NFV=     0
 NROrb=    222 NOA=    38 NOB=    38 NVA=   184 NVB=   184
 Fully direct method using O(ONN) memory.
 JobTyp=1 Pass  1:  I=  15 to  52 NPSUse=  4 ParTrn=T ParDer=T DoDerP=T.
 Spin components of T(2) and E(2):
     alpha-alpha T2 =       0.9203283863D-01 E2=     -0.2718055728D+00
     alpha-beta  T2 =       0.4997990962D+00 E2=     -0.1493838684D+01
     beta-beta   T2 =       0.9203283863D-01 E2=     -0.2718055728D+00
 ANorm=    0.1297638152D+01
 E2 =    -0.2037449829D+01 EUMP2 =    -0.66331816473405D+03
          IDoAtm=111111111111111111111111111
          Differentiating once with respect to electric field.
                with respect to dipole field.
          Differentiating once with respect to nuclear coordinates.
 Keep R1 ints in memory in canonical form, NReq=397723379.
          There are     1 degrees of freedom in the 1st order CPHF.  IDoFFX=0 NUNeed=     1.
 LinEq1:  Iter=  0 NonCon=     1 RMS=4.62D-03 Max=1.20D-01 NDo=     1
 AX will form     1 AO Fock derivatives at one time.
 LinEq1:  Iter=  1 NonCon=     1 RMS=1.57D-03 Max=2.77D-02 NDo=     1
 LinEq1:  Iter=  2 NonCon=     1 RMS=6.45D-04 Max=1.96D-02 NDo=     1
 LinEq1:  Iter=  3 NonCon=     1 RMS=2.92D-04 Max=8.72D-03 NDo=     1
 LinEq1:  Iter=  4 NonCon=     1 RMS=9.02D-05 Max=2.21D-03 NDo=     1
 LinEq1:  Iter=  5 NonCon=     1 RMS=3.71D-05 Max=1.79D-03 NDo=     1
 LinEq1:  Iter=  6 NonCon=     1 RMS=1.54D-05 Max=6.07D-04 NDo=     1
 LinEq1:  Iter=  7 NonCon=     1 RMS=5.89D-06 Max=9.86D-05 NDo=     1
 LinEq1:  Iter=  8 NonCon=     1 RMS=2.37D-06 Max=5.60D-05 NDo=     1
 LinEq1:  Iter=  9 NonCon=     1 RMS=8.82D-07 Max=2.48D-05 NDo=     1
 LinEq1:  Iter= 10 NonCon=     1 RMS=4.31D-07 Max=1.42D-05 NDo=     1
 LinEq1:  Iter= 11 NonCon=     1 RMS=1.55D-07 Max=5.68D-06 NDo=     1
 LinEq1:  Iter= 12 NonCon=     1 RMS=5.49D-08 Max=7.75D-07 NDo=     1
 LinEq1:  Iter= 13 NonCon=     1 RMS=1.77D-08 Max=3.44D-07 NDo=     1
 LinEq1:  Iter= 14 NonCon=     1 RMS=5.65D-09 Max=1.37D-07 NDo=     1
 LinEq1:  Iter= 15 NonCon=     1 RMS=2.06D-09 Max=5.33D-08 NDo=     1
 LinEq1:  Iter= 16 NonCon=     1 RMS=7.04D-10 Max=1.02D-08 NDo=     1
 LinEq1:  Iter= 17 NonCon=     1 RMS=2.24D-10 Max=3.23D-09 NDo=     1
 LinEq1:  Iter= 18 NonCon=     0 RMS=7.40D-11 Max=7.58D-10 NDo=     1
 Linear equations converged to 1.000D-10 1.000D-09 after    18 iterations.
 End of Minotr F.D. properties file   721 does not exist.
 End of Minotr F.D. properties file   722 does not exist.
 End of Minotr F.D. properties file   788 does not exist.

 **********************************************************************

            Population analysis using the SCF Density.

 **********************************************************************

 Alpha  occ. eigenvalues --  -20.59613 -20.59181 -15.84916 -15.63396 -15.56681
 Alpha  occ. eigenvalues --  -11.35890 -11.30526 -11.30162 -11.30080 -11.27786
 Alpha  occ. eigenvalues --  -11.24657 -11.23900 -11.23420 -11.22867  -1.58203
 Alpha  occ. eigenvalues --   -1.37636  -1.28613  -1.22700  -1.13263  -1.08265
 Alpha  occ. eigenvalues --   -1.01842  -1.00608  -0.93559  -0.88711  -0.84906
 Alpha  occ. eigenvalues --   -0.81605  -0.77811  -0.77053  -0.74427  -0.70828
 Alpha  occ. eigenvalues --   -0.70100  -0.69508  -0.67342  -0.64385  -0.63270
 Alpha  occ. eigenvalues --   -0.61815  -0.60578  -0.57431  -0.56498  -0.54870
 Alpha  occ. eigenvalues --   -0.53846  -0.50728  -0.49568  -0.48417  -0.47681
 Alpha  occ. eigenvalues --   -0.47546  -0.46206  -0.45648  -0.43827  -0.42145
 Alpha  occ. eigenvalues --   -0.39758  -0.33652
 Alpha virt. eigenvalues --    0.07526   0.11738   0.17940   0.21379   0.23518
 Alpha virt. eigenvalues --    0.24317   0.26204   0.27855   0.28561   0.28837
 Alpha virt. eigenvalues --    0.29695   0.31084   0.31840   0.32293   0.33301
 Alpha virt. eigenvalues --    0.33822   0.34308   0.35441   0.37560   0.38565
 Alpha virt. eigenvalues --    0.40509   0.41580   0.44443   0.45223   0.45397
 Alpha virt. eigenvalues --    0.46455   0.49859   0.53402   0.57558   0.59137
 Alpha virt. eigenvalues --    0.63338   0.68251   0.69129   0.72209   0.73856
 Alpha virt. eigenvalues --    0.74465   0.75730   0.75811   0.77785   0.79085
 Alpha virt. eigenvalues --    0.80982   0.83295   0.85019   0.85412   0.87980
 Alpha virt. eigenvalues --    0.89142   0.90279   0.90510   0.91840   0.94121
 Alpha virt. eigenvalues --    0.95069   0.97140   0.98952   1.00475   1.02107
 Alpha virt. eigenvalues --    1.02850   1.04877   1.06812   1.07143   1.08474
 Alpha virt. eigenvalues --    1.09811   1.10465   1.11329   1.12114   1.13244
 Alpha virt. eigenvalues --    1.13776   1.14221   1.15596   1.16313   1.16928
 Alpha virt. eigenvalues --    1.18021   1.20083   1.21378   1.22357   1.22822
 Alpha virt. eigenvalues --    1.23645   1.24488   1.25347   1.27136   1.27680
 Alpha virt. eigenvalues --    1.29008   1.31793   1.33301   1.37026   1.39458
 Alpha virt. eigenvalues --    1.42367   1.46230   1.47772   1.50201   1.52814
 Alpha virt. eigenvalues --    1.54980   1.55681   1.59566   1.62067   1.65287
 Alpha virt. eigenvalues --    1.68154   1.70450   1.72706   1.73826   1.76845
 Alpha virt. eigenvalues --    1.77523   1.80937   1.84351   1.89046   1.92125
 Alpha virt. eigenvalues --    1.93639   1.95058   1.97290   1.99064   2.00679
 Alpha virt. eigenvalues --    2.02944   2.04228   2.05902   2.08743   2.12170
 Alpha virt. eigenvalues --    2.12617   2.13999   2.17491   2.18710   2.19961
 Alpha virt. eigenvalues --    2.20372   2.22177   2.23731   2.25175   2.26042
 Alpha virt. eigenvalues --    2.29710   2.31986   2.32850   2.35630   2.36011
 Alpha virt. eigenvalues --    2.39362   2.39734   2.41864   2.43827   2.46338
 Alpha virt. eigenvalues --    2.48737   2.50018   2.51112   2.56071   2.57138
 Alpha virt. eigenvalues --    2.60530   2.62996   2.65274   2.68315   2.68913
 Alpha virt. eigenvalues --    2.69479   2.69649   2.74385   2.78301   2.81141
 Alpha virt. eigenvalues --    2.84815   2.86531   2.89646   2.90838   2.95003
 Alpha virt. eigenvalues --    2.97703   2.97802   3.02385   3.04291   3.05614
 Alpha virt. eigenvalues --    3.07430   3.12861   3.18582   3.22640   3.27256
 Alpha virt. eigenvalues --    3.30101   3.33732   3.37335   3.42070   3.61049
 Alpha virt. eigenvalues --    4.09401   4.22614   4.32392   4.36409   4.42626
 Alpha virt. eigenvalues --    4.52087   4.59269   4.60071   4.70792   4.77353
 Alpha virt. eigenvalues --    4.96955   4.99181   5.03373   5.09522
          Condensed to atoms (all electrons):
               1          2          3          4          5          6
     1  O    8.302979   0.311325  -0.091692  -0.076916   0.003656  -0.000015
     2  N    0.311325   5.688381   0.306566   0.266922  -0.050004   0.000881
     3  O   -0.091692   0.306566   8.334444  -0.085519   0.008015   0.000499
     4  C   -0.076916   0.266922  -0.085519   5.237257   0.574516  -0.052134
     5  C    0.003656  -0.050004   0.008015   0.574516   4.675996   0.306124
     6  N   -0.000015   0.000881   0.000499  -0.052134   0.306124   7.183858
     7  C    0.000002  -0.000113   0.000002   0.003670  -0.028663   0.200697
     8  H   -0.000000   0.000002  -0.000000  -0.000125   0.002269  -0.048678
     9  C   -0.000000  -0.000004   0.000000   0.000349   0.001775  -0.057562
    10  C   -0.000000   0.000000  -0.000000  -0.000015  -0.000068   0.003366
    11  C   -0.000000  -0.000000  -0.000000  -0.000020   0.000018  -0.000152
    12  C   -0.000000   0.000001  -0.000000  -0.000094  -0.000172   0.003541
    13  C   -0.000018  -0.000012  -0.000002  -0.010048   0.000314  -0.043954
    14  H   -0.000002  -0.000051   0.000000   0.002539   0.004438  -0.005333
    15  N    0.000268   0.001725  -0.000015  -0.063647  -0.004878   0.002389
    16  C    0.003134  -0.027629   0.002029   0.323709  -0.040313  -0.000168
    17  H    0.000151  -0.004458   0.012888  -0.024412   0.374822  -0.031709
    18  H    0.000000  -0.000040   0.000009   0.001183  -0.024541   0.328396
    19  H    0.000000   0.000000   0.000000  -0.000834   0.000745   0.000472
    20  H    0.000000  -0.000000   0.000000  -0.000035   0.000044  -0.001472
    21  H   -0.000000  -0.000000   0.000000   0.000000   0.000001  -0.000060
    22  H   -0.000000   0.000000  -0.000000  -0.000000  -0.000002  -0.000097
    23  H    0.000000  -0.000000   0.000000   0.000026   0.000001  -0.000024
    24  H    0.000000   0.000000   0.000000   0.000000  -0.000000   0.000004
    25  H    0.000000  -0.000000   0.000000   0.000020  -0.000000  -0.000069
    26  H    0.000000  -0.000000   0.000000   0.000004   0.000002  -0.000066
    27  H    0.005725  -0.000205   0.000008  -0.062924   0.001698   0.000027
               7          8          9         10         11         12
     1  O    0.000002  -0.000000  -0.000000  -0.000000  -0.000000  -0.000000
     2  N   -0.000113   0.000002  -0.000004   0.000000  -0.000000   0.000001
     3  O    0.000002  -0.000000   0.000000  -0.000000  -0.000000  -0.000000
     4  C    0.003670  -0.000125   0.000349  -0.000015  -0.000020  -0.000094
     5  C   -0.028663   0.002269   0.001775  -0.000068   0.000018  -0.000172
     6  N    0.200697  -0.048678  -0.057562   0.003366  -0.000152   0.003541
     7  C    5.012602   0.415804   0.340596  -0.049222  -0.007768  -0.063892
     8  H    0.415804   0.545256  -0.059859   0.001234  -0.000287  -0.003044
     9  C    0.340596  -0.059859   5.180119   0.318349  -0.053142  -0.005922
    10  C   -0.049222   0.001234   0.318349   5.126883   0.332712  -0.060392
    11  C   -0.007768  -0.000287  -0.053142   0.332712   5.124623   0.330553
    12  C   -0.063892  -0.003044  -0.005922  -0.060392   0.330553   5.137253
    13  C    0.327904  -0.039106  -0.051770  -0.001533  -0.048016   0.367965
    14  H   -0.040752  -0.000905   0.003848  -0.000386   0.003970  -0.040791
    15  N   -0.059091   0.003941  -0.012309   0.001447  -0.007846  -0.073860
    16  C   -0.001116  -0.000074  -0.000406  -0.000056   0.000028   0.002294
    17  H    0.001316  -0.000030  -0.000055   0.000001   0.000000   0.000000
    18  H   -0.028582  -0.002970   0.000857  -0.000119   0.000011  -0.000136
    19  H   -0.035176   0.004075   0.386473  -0.032886  -0.002216   0.000597
    20  H   -0.041682  -0.001782   0.397287  -0.037294   0.004123  -0.000363
    21  H    0.004047  -0.000077  -0.035855   0.400130  -0.035859   0.004225
    22  H   -0.004308   0.003522  -0.045673   0.395905  -0.045561  -0.001251
    23  H    0.000439   0.000035  -0.002006  -0.040121   0.396706  -0.036641
    24  H   -0.000141  -0.000100   0.004393  -0.038473   0.400268  -0.037892
    25  H    0.004985  -0.000005  -0.000375   0.004099  -0.033809   0.395400
    26  H   -0.004458   0.001561   0.001057  -0.002440  -0.042283   0.394545
    27  H   -0.000367   0.000008  -0.000048   0.000004   0.000006  -0.000023
              13         14         15         16         17         18
     1  O   -0.000018  -0.000002   0.000268   0.003134   0.000151   0.000000
     2  N   -0.000012  -0.000051   0.001725  -0.027629  -0.004458  -0.000040
     3  O   -0.000002   0.000000  -0.000015   0.002029   0.012888   0.000009
     4  C   -0.010048   0.002539  -0.063647   0.323709  -0.024412   0.001183
     5  C    0.000314   0.004438  -0.004878  -0.040313   0.374822  -0.024541
     6  N   -0.043954  -0.005333   0.002389  -0.000168  -0.031709   0.328396
     7  C    0.327904  -0.040752  -0.059091  -0.001116   0.001316  -0.028582
     8  H   -0.039106  -0.000905   0.003941  -0.000074  -0.000030  -0.002970
     9  C   -0.051770   0.003848  -0.012309  -0.000406  -0.000055   0.000857
    10  C   -0.001533  -0.000386   0.001447  -0.000056   0.000001  -0.000119
    11  C   -0.048016   0.003970  -0.007846   0.000028   0.000000   0.000011
    12  C    0.367965  -0.040791  -0.073860   0.002294   0.000000  -0.000136
    13  C    5.019092   0.403487   0.243836  -0.068665  -0.000039   0.003612
    14  H    0.403487   0.517911  -0.035448  -0.005118   0.000049   0.000004
    15  N    0.243836  -0.035448   6.943623   0.584119  -0.000062  -0.000116
    16  C   -0.068665  -0.005118   0.584119   4.696294   0.001259  -0.000178
    17  H   -0.000039   0.000049  -0.000062   0.001259   0.374951  -0.001795
    18  H    0.003612   0.000004  -0.000116  -0.000178  -0.001795   0.326302
    19  H   -0.006188   0.000067   0.006912   0.002259   0.000010  -0.000125
    20  H    0.003865  -0.000051   0.000075  -0.000032  -0.000002   0.002703
    21  H   -0.000388   0.000009  -0.000031   0.000003  -0.000000  -0.000000
    22  H    0.000333  -0.000043   0.000005  -0.000001   0.000000   0.000002
    23  H   -0.005916   0.000008   0.006842   0.000077   0.000000   0.000000
    24  H    0.004165  -0.000060   0.000037   0.000005   0.000000  -0.000000
    25  H   -0.034353  -0.002687   0.000945  -0.000054  -0.000000   0.000002
    26  H   -0.044860  -0.000900   0.004174  -0.000046   0.000000  -0.000001
    27  H    0.004550  -0.000145  -0.038084   0.400878  -0.000056   0.000001
              19         20         21         22         23         24
     1  O    0.000000   0.000000  -0.000000  -0.000000   0.000000   0.000000
     2  N    0.000000  -0.000000  -0.000000   0.000000  -0.000000   0.000000
     3  O    0.000000   0.000000   0.000000  -0.000000   0.000000   0.000000
     4  C   -0.000834  -0.000035   0.000000  -0.000000   0.000026   0.000000
     5  C    0.000745   0.000044   0.000001  -0.000002   0.000001  -0.000000
     6  N    0.000472  -0.001472  -0.000060  -0.000097  -0.000024   0.000004
     7  C   -0.035176  -0.041682   0.004047  -0.004308   0.000439  -0.000141
     8  H    0.004075  -0.001782  -0.000077   0.003522   0.000035  -0.000100
     9  C    0.386473   0.397287  -0.035855  -0.045673  -0.002006   0.004393
    10  C   -0.032886  -0.037294   0.400130   0.395905  -0.040121  -0.038473
    11  C   -0.002216   0.004123  -0.035859  -0.045561   0.396706   0.400268
    12  C    0.000597  -0.000363   0.004225  -0.001251  -0.036641  -0.037892
    13  C   -0.006188   0.003865  -0.000388   0.000333  -0.005916   0.004165
    14  H    0.000067  -0.000051   0.000009  -0.000043   0.000008  -0.000060
    15  N    0.006912   0.000075  -0.000031   0.000005   0.006842   0.000037
    16  C    0.002259  -0.000032   0.000003  -0.000001   0.000077   0.000005
    17  H    0.000010  -0.000002  -0.000000   0.000000   0.000000   0.000000
    18  H   -0.000125   0.002703  -0.000000   0.000002   0.000000  -0.000000
    19  H    0.507308  -0.023861  -0.002583   0.003764   0.001655  -0.000071
    20  H   -0.023861   0.549045  -0.002644  -0.002938  -0.000049  -0.000090
    21  H   -0.002583  -0.002644   0.526003  -0.024690  -0.002817  -0.002074
    22  H    0.003764  -0.002938  -0.024690   0.569012   0.004059  -0.003592
    23  H    0.001655  -0.000049  -0.002817   0.004059   0.509318  -0.024934
    24  H   -0.000071  -0.000090  -0.002074  -0.003592  -0.024934   0.540960
    25  H   -0.000027   0.000011  -0.000086  -0.000083  -0.002073  -0.002395
    26  H    0.000023  -0.000035  -0.000073   0.002463   0.003818  -0.002741
    27  H    0.000068   0.000000  -0.000000   0.000000  -0.000020  -0.000000
              25         26         27
     1  O    0.000000   0.000000   0.005725
     2  N   -0.000000  -0.000000  -0.000205
     3  O    0.000000   0.000000   0.000008
     4  C    0.000020   0.000004  -0.062924
     5  C   -0.000000   0.000002   0.001698
     6  N   -0.000069  -0.000066   0.000027
     7  C    0.004985  -0.004458  -0.000367
     8  H   -0.000005   0.001561   0.000008
     9  C   -0.000375   0.001057  -0.000048
    10  C    0.004099  -0.002440   0.000004
    11  C   -0.033809  -0.042283   0.000006
    12  C    0.395400   0.394545  -0.000023
    13  C   -0.034353  -0.044860   0.004550
    14  H   -0.002687  -0.000900  -0.000145
    15  N    0.000945   0.004174  -0.038084
    16  C   -0.000054  -0.000046   0.400878
    17  H   -0.000000   0.000000  -0.000056
    18  H    0.000002  -0.000001   0.000001
    19  H   -0.000027   0.000023   0.000068
    20  H    0.000011  -0.000035   0.000000
    21  H   -0.000086  -0.000073  -0.000000
    22  H   -0.000083   0.002463   0.000000
    23  H   -0.002073   0.003818  -0.000020
    24  H   -0.002395  -0.002741  -0.000000
    25  H    0.509314  -0.023133  -0.000011
    26  H   -0.023133   0.561405   0.000001
    27  H   -0.000011   0.000001   0.440194
 Mulliken charges:
               1
     1  O   -0.458599
     2  N    0.506713
     3  O   -0.487232
     4  C   -0.033471
     5  C    0.194208
     6  N   -0.788762
     7  C    0.053264
     8  H    0.179336
     9  C   -0.310117
    10  C   -0.321124
    11  C   -0.316060
    12  C   -0.311899
    13  C   -0.024254
    14  H    0.196344
    15  N   -0.504948
    16  C    0.127769
    17  H    0.297172
    18  H    0.395520
    19  H    0.189541
    20  H    0.155179
    21  H    0.172820
    22  H    0.149174
    23  H    0.191616
    24  H    0.162729
    25  H    0.184383
    26  H    0.151982
    27  H    0.248716
 Sum of Mulliken charges =  -0.00000
 Mulliken charges with hydrogens summed into heavy atoms:
               1
     1  O   -0.458599
     2  N    0.506713
     3  O   -0.487232
     4  C   -0.033471
     5  C    0.491380
     6  N   -0.393242
     7  C    0.232600
     9  C    0.034603
    10  C    0.000870
    11  C    0.038285
    12  C    0.024467
    13  C    0.172090
    15  N   -0.504948
    16  C    0.376485
 Electronic spatial extent (au):  <R**2>=           3112.2438
 Charge=             -0.0000 electrons
 Dipole moment (field-independent basis, Debye):
    X=              5.4214    Y=              4.4870    Z=              0.7157  Tot=              7.0737
 Quadrupole moment (field-independent basis, Debye-Ang):
   XX=           -105.5874   YY=            -79.9068   ZZ=            -82.3304
   XY=             -1.5767   XZ=              0.1072   YZ=              0.4241
 Traceless Quadrupole moment (field-independent basis, Debye-Ang):
   XX=            -16.3125   YY=              9.3681   ZZ=              6.9445
   XY=             -1.5767   XZ=              0.1072   YZ=              0.4241
 Octapole moment (field-independent basis, Debye-Ang**2):
  XXX=            100.9644  YYY=             36.2245  ZZZ=             -3.7724  XYY=             -2.6532
  XXY=             10.7691  XXZ=              4.1006  XZZ=             -8.2624  YZZ=             -2.9911
  YYZ=              1.9018  XYZ=             -1.7008
 Hexadecapole moment (field-independent basis, Debye-Ang**3):
 XXXX=          -3534.8635 YYYY=           -623.4074 ZZZZ=           -299.5732 XXXY=            -30.9860
 XXXZ=             -5.7548 YYYX=            -11.7246 YYYZ=             15.0863 ZZZX=              6.2152
 ZZZY=              8.5622 XXYY=           -652.2432 XXZZ=           -539.8419 YYZZ=           -165.8038
 XXYZ=              4.6114 YYXZ=              5.2758 ZZXY=              4.5047
 N-N= 9.178570117369D+02 E-N=-3.381767732479D+03  KE= 6.588507657233D+02
 Calling FoFJK, ICntrl=  10002127 FMM=F ISym2X=0 I1Cent= 0 IOpClX= 0 NMat=1 NMatS=1 NMatT=0.
 -------------------------------------------------------------------
 Center     Atomic                   Forces (Hartrees/Bohr)
 Number     Number              X              Y              Z
 -------------------------------------------------------------------
      1        8           0.003372060   -0.019591890   -0.000928064
      2        7           0.036790002    0.012308290   -0.003923167
      3        8          -0.003524740    0.016518027    0.003843078
      4        6          -0.023971288    0.003693714    0.009030951
      5        6           0.014158444   -0.020428111   -0.004954534
      6        7           0.016214737   -0.006097449   -0.006308558
      7        6          -0.005371080    0.005147383    0.002440613
      8        1          -0.010642306   -0.001737105   -0.007458753
      9        6          -0.003869118    0.000311113   -0.002162659
     10        6           0.002838314   -0.000938087    0.000859964
     11        6          -0.000720424   -0.004531100   -0.002293523
     12        6           0.000690255   -0.008723790   -0.003264778
     13        6           0.007400842   -0.000249549    0.002476697
     14        1           0.000744986    0.003895985   -0.010205787
     15        7           0.002990797   -0.003965690    0.005896844
     16        6          -0.013661786    0.017544668    0.002349738
     17        1           0.007654284   -0.007650789   -0.005015756
     18        1          -0.017032533   -0.002052744    0.004971934
     19        1           0.003170997    0.005847469    0.007555423
     20        1          -0.003193106   -0.007488142    0.002625175
     21        1          -0.004210506    0.002362749    0.009690275
     22        1          -0.004118666   -0.003958379   -0.007335250
     23        1           0.004011897    0.006067698    0.009280695
     24        1          -0.009426218    0.002562058   -0.002013157
     25        1          -0.001029939    0.010663443   -0.002464861
     26        1          -0.004789356   -0.004771272   -0.004335285
     27        1           0.005523451    0.005261501    0.001642745
 -------------------------------------------------------------------
 Cartesian Forces:  Max     0.036790002 RMS     0.008825618

 GradGradGradGradGradGradGradGradGradGradGradGradGradGradGradGradGradGrad
 Berny optimization.
 FormGI is forming the generalized inverse of G from B-inverse, IUseBI=4.
 Internal  Forces:  Max     0.037649525 RMS     0.006829424
 Search for a local minimum.
 Step number   1 out of a maximum of   20
 All quantities printed in internal units (Hartrees-Bohrs-Radians)
 Mixed Optimization -- RFO/linear search
 Second derivative matrix not updated -- first step.
 ITU=  0
     Eigenvalues ---    0.00235   0.00768   0.01064   0.01163   0.01207
     Eigenvalues ---    0.01469   0.01532   0.01600   0.02004   0.02032
     Eigenvalues ---    0.02117   0.02661   0.03661   0.04511   0.04701
     Eigenvalues ---    0.04837   0.05064   0.05140   0.05298   0.05862
     Eigenvalues ---    0.06279   0.07296   0.07701   0.07715   0.07860
     Eigenvalues ---    0.07999   0.08034   0.08049   0.10464   0.11748
     Eigenvalues ---    0.12291   0.13547   0.15255   0.15971   0.15992
     Eigenvalues ---    0.16099   0.20153   0.22065   0.24994   0.25000
     Eigenvalues ---    0.25000   0.25277   0.26003   0.26657   0.27994
     Eigenvalues ---    0.28080   0.28360   0.28508   0.31006   0.31482
     Eigenvalues ---    0.32053   0.32239   0.32289   0.32380   0.32386
     Eigenvalues ---    0.32401   0.32508   0.32526   0.32585   0.33342
     Eigenvalues ---    0.33391   0.33598   0.35010   0.43873   0.44374
     Eigenvalues ---    0.49619   0.67276   0.90069   0.908821000.00000
     Eigenvalues --- 1000.000001000.000001000.000001000.000001000.00000
     Eigenvalues --- 1000.000001000.000001000.000001000.000001000.00000
     Eigenvalues --- 1000.000001000.000001000.000001000.000001000.00000
     Eigenvalues --- 1000.000001000.000001000.000001000.000001000.00000
     Eigenvalues --- 1000.000001000.000001000.000001000.000001000.00000
     Eigenvalues --- 1000.000001000.000001000.000001000.000001000.00000
     Eigenvalues --- 1000.000001000.000001000.000001000.000001000.00000
     Eigenvalues --- 1000.000001000.000001000.000001000.000001000.00000
     Eigenvalues --- 1000.000001000.000001000.000001000.000001000.00000
     Eigenvalues --- 1000.000001000.000001000.000001000.000001000.00000
     Eigenvalues --- 1000.000001000.000001000.000001000.000001000.00000
     Eigenvalues --- 1000.000001000.000001000.000001000.000001000.00000
     Eigenvalues --- 1000.000001000.000001000.000001000.000001000.00000
     Eigenvalues --- 1000.000001000.000001000.000001000.000001000.00000
     Eigenvalues --- 1000.000001000.000001000.000001000.000001000.00000
     Eigenvalues --- 1000.000001000.000001000.000001000.000001000.00000
     Eigenvalues --- 1000.000001000.000001000.000001000.000001000.00000
     Eigenvalues --- 1000.000001000.000001000.000001000.000001000.00000
     Eigenvalues --- 1000.00000
 RFO step:  Lambda=-2.38073596D-02 EMin= 2.35017347D-03
 Linear search not attempted -- first point.
 Iteration  1 RMS(Cart)=  0.05393961 RMS(Int)=  0.00117258
 Iteration  2 RMS(Cart)=  0.00133138 RMS(Int)=  0.00024680
 Iteration  3 RMS(Cart)=  0.00000139 RMS(Int)=  0.00024680
 Iteration  4 RMS(Cart)=  0.00000000 RMS(Int)=  0.00024680
 Iteration  1 RMS(Cart)=  0.00001920 RMS(Int)=  0.00001420
 Iteration  2 RMS(Cart)=  0.00001129 RMS(Int)=  0.00001569
 Iteration  3 RMS(Cart)=  0.00000675 RMS(Int)=  0.00001783
 Iteration  4 RMS(Cart)=  0.00000421 RMS(Int)=  0.00001952
 Iteration  5 RMS(Cart)=  0.00000284 RMS(Int)=  0.00002073
 Iteration  6 RMS(Cart)=  0.00000211 RMS(Int)=  0.00002160
 Iteration  7 RMS(Cart)=  0.00000170 RMS(Int)=  0.00002225
 Iteration  8 RMS(Cart)=  0.00000144 RMS(Int)=  0.00002275
 Iteration  9 RMS(Cart)=  0.00000124 RMS(Int)=  0.00002315
 Iteration 10 RMS(Cart)=  0.00000108 RMS(Int)=  0.00002348
 Iteration 11 RMS(Cart)=  0.00000094 RMS(Int)=  0.00002376
 Variable       Old X    -DE/DX   Delta X   Delta X   Delta X     New X
                                 (Linear)    (Quad)   (Total)
    R1        2.32529   0.01756   0.00000   0.01883   0.01883   2.34412
    R2        2.32901   0.01525   0.00000   0.01650   0.01650   2.34551
    R3        2.91042  -0.03765   0.00000  -0.12189  -0.12189   2.78853
    R4        2.63978  -0.03214   0.00000  -0.07029  -0.07009   2.56969
    R5        2.80345  -0.02171   0.00000  -0.06446  -0.06432   2.73913
    R6        2.58758  -0.02263   0.00000  -0.04325  -0.04310   2.54448
    R7        2.08371  -0.01146   0.00000  -0.03204  -0.03204   2.05167
    R8        2.82892  -0.02149   0.00000  -0.05769  -0.05771   2.77121
    R9        1.93307  -0.00657   0.00000  -0.01421  -0.01421   1.91886
   R10        2.11803  -0.01214   0.00000  -0.03585  -0.03585   2.08217
   R11        2.92749  -0.01274   0.00000  -0.04324  -0.04323   2.88426
   R12        2.90957  -0.00561   0.00000  -0.01128  -0.01126   2.89831
   R13        2.91153  -0.00464   0.00000  -0.01464  -0.01468   2.89685
   R14        2.09925  -0.00985   0.00000  -0.02823  -0.02823   2.07102
   R15        2.09892  -0.00813   0.00000  -0.02330  -0.02330   2.07562
   R16        2.90424  -0.00195   0.00000  -0.00733  -0.00740   2.89684
   R17        2.10143  -0.01057   0.00000  -0.03040  -0.03040   2.07103
   R18        2.10318  -0.00900   0.00000  -0.02597  -0.02597   2.07721
   R19        2.91711  -0.00903   0.00000  -0.02873  -0.02873   2.88838
   R20        2.10409  -0.01162   0.00000  -0.03357  -0.03357   2.07052
   R21        2.10116  -0.00995   0.00000  -0.02860  -0.02860   2.07256
   R22        2.93517  -0.01071   0.00000  -0.03658  -0.03655   2.89862
   R23        2.10155  -0.01082   0.00000  -0.03114  -0.03114   2.07041
   R24        2.09786  -0.00784   0.00000  -0.02241  -0.02241   2.07545
   R25        2.10746  -0.00946   0.00000  -0.02747  -0.02747   2.08000
   R26        2.77393  -0.00775   0.00000  -0.01637  -0.01667   2.75726
   R27        2.44121  -0.00287   0.00000  -0.00452  -0.00462   2.43659
   R28        2.08014  -0.00718   0.00000  -0.01996  -0.01996   2.06018
    A1        2.14649   0.01329   0.00000   0.04927   0.04837   2.19487
    A2        2.05824  -0.00824   0.00000  -0.02937  -0.03027   2.02797
    A3        2.07779  -0.00493   0.00000  -0.01727  -0.01817   2.05962
    A4        1.99271  -0.00180   0.00000  -0.00764  -0.00779   1.98492
    A5        2.00018   0.00224   0.00000   0.00707   0.00690   2.00708
    A6        2.29003  -0.00047   0.00000   0.00000   0.00000   2.29003
    A7        2.16885   0.01273   0.00000   0.03970   0.04014   2.20899
    A8        2.08365  -0.00746   0.00000  -0.02539  -0.02569   2.05795
    A9        2.02956  -0.00522   0.00000  -0.01341  -0.01373   2.01583
   A10        2.25274  -0.00640   0.00000  -0.02199  -0.02183   2.23091
   A11        2.11135  -0.01140   0.00000  -0.06574  -0.06631   2.04504
   A12        1.87237   0.01792   0.00000   0.09756   0.09759   1.96996
   A13        1.83648  -0.00167   0.00000  -0.01706  -0.01681   1.81967
   A14        2.00291  -0.00070   0.00000  -0.01169  -0.01187   1.99103
   A15        1.97694   0.00034   0.00000  -0.00449  -0.00488   1.97206
   A16        1.85245   0.00262   0.00000   0.02588   0.02572   1.87817
   A17        1.84795   0.00108   0.00000   0.02115   0.02089   1.86884
   A18        1.93283  -0.00131   0.00000  -0.00856  -0.00832   1.92451
   A19        1.91068   0.00012   0.00000  -0.00532  -0.00543   1.90525
   A20        1.92133  -0.00071   0.00000  -0.01290  -0.01288   1.90845
   A21        1.92322  -0.00164   0.00000  -0.00657  -0.00657   1.91664
   A22        1.91899  -0.00040   0.00000   0.00520   0.00513   1.92413
   A23        1.90468   0.00307   0.00000   0.02522   0.02523   1.92991
   A24        1.88474  -0.00041   0.00000  -0.00522  -0.00546   1.87928
   A25        1.94099  -0.00112   0.00000   0.00465   0.00454   1.94553
   A26        1.91876  -0.00065   0.00000  -0.00687  -0.00687   1.91189
   A27        1.90489   0.00038   0.00000  -0.00272  -0.00278   1.90211
   A28        1.91596   0.00087   0.00000   0.00730   0.00733   1.92329
   A29        1.89851   0.00180   0.00000   0.01156   0.01160   1.91011
   A30        1.88366  -0.00126   0.00000  -0.01437  -0.01446   1.86920
   A31        1.94450   0.00066   0.00000   0.00520   0.00532   1.94982
   A32        1.90263   0.00057   0.00000   0.00610   0.00606   1.90869
   A33        1.91715   0.00046   0.00000   0.00530   0.00526   1.92241
   A34        1.90709  -0.00122   0.00000  -0.01497  -0.01502   1.89208
   A35        1.91525  -0.00043   0.00000   0.00057   0.00049   1.91574
   A36        1.87586  -0.00006   0.00000  -0.00258  -0.00261   1.87325
   A37        1.94556  -0.00277   0.00000  -0.01757  -0.01760   1.92796
   A38        1.90627   0.00241   0.00000   0.01651   0.01635   1.92262
   A39        1.91144   0.00141   0.00000   0.01342   0.01340   1.92485
   A40        1.90644   0.00014   0.00000  -0.00419  -0.00404   1.90240
   A41        1.91240  -0.00033   0.00000  -0.00444  -0.00437   1.90804
   A42        1.88055  -0.00079   0.00000  -0.00325  -0.00344   1.87711
   A43        1.84517   0.00453   0.00000   0.02185   0.02189   1.86706
   A44        1.93313  -0.00390   0.00000  -0.02749  -0.02793   1.90520
   A45        1.99499   0.00039   0.00000   0.01248   0.01276   2.00776
   A46        1.88096   0.00221   0.00000   0.03059   0.03083   1.91179
   A47        1.89069  -0.00390   0.00000  -0.03006  -0.03012   1.86057
   A48        1.91400   0.00089   0.00000  -0.00499  -0.00483   1.90917
   A49        2.09014  -0.00683   0.00000  -0.01714  -0.01750   2.07264
   A50        2.22582   0.00083   0.00000  -0.00535  -0.00540   2.22041
   A51        1.99578   0.00137   0.00000   0.01181   0.01147   2.00726
   A52        2.06098  -0.00223   0.00000  -0.00778  -0.00812   2.05286
    D1       -3.01924   0.00064   0.00000  -0.02381  -0.02389  -3.04313
    D2        0.14414   0.00180   0.00000   0.00000  -0.00000   0.14414
    D3        0.16021  -0.00289   0.00000  -0.10033  -0.10036   0.05986
    D4       -2.95959  -0.00173   0.00000  -0.07652  -0.07647  -3.03605
    D5        3.05925   0.00127   0.00000   0.01819   0.01801   3.07726
    D6       -0.02939   0.00021   0.00000  -0.00234  -0.00257  -0.03196
    D7       -0.10868  -0.00010   0.00000  -0.01050  -0.01070  -0.11938
    D8        3.08586  -0.00116   0.00000  -0.03103  -0.03127   3.05459
    D9       -2.79371  -0.00060   0.00000  -0.02382  -0.02407  -2.81778
   D10        0.38627   0.00036   0.00000   0.01825   0.01819   0.40446
   D11        0.37431   0.00082   0.00000   0.00515   0.00510   0.37941
   D12       -2.72890   0.00178   0.00000   0.04721   0.04736  -2.68154
   D13       -0.03926  -0.00026   0.00000   0.00282   0.00304  -0.03622
   D14        2.73554   0.00356   0.00000   0.05824   0.05715   2.79269
   D15        3.05088   0.00068   0.00000   0.02238   0.02280   3.07368
   D16       -0.45751   0.00450   0.00000   0.07780   0.07691  -0.38060
   D17       -2.55934  -0.00048   0.00000  -0.00395  -0.00357  -2.56291
   D18        1.69443  -0.00223   0.00000  -0.01831  -0.01788   1.67655
   D19       -0.54880  -0.00002   0.00000   0.00886   0.00890  -0.53990
   D20        0.91012   0.00036   0.00000  -0.02927  -0.02988   0.88024
   D21       -1.11929  -0.00139   0.00000  -0.04363  -0.04419  -1.16348
   D22        2.92066   0.00082   0.00000  -0.01646  -0.01741   2.90325
   D23        2.93688   0.00252   0.00000   0.03067   0.03054   2.96742
   D24       -1.23493   0.00165   0.00000   0.02555   0.02545  -1.20949
   D25        0.84201  -0.00032   0.00000   0.00699   0.00695   0.84896
   D26        0.91665   0.00325   0.00000   0.04111   0.04112   0.95777
   D27        3.02803   0.00237   0.00000   0.03600   0.03602   3.06405
   D28       -1.17822   0.00040   0.00000   0.01744   0.01753  -1.16069
   D29       -1.08118   0.00119   0.00000   0.00626   0.00627  -1.07491
   D30        1.03019   0.00031   0.00000   0.00114   0.00117   1.03137
   D31        3.10714  -0.00166   0.00000  -0.01742  -0.01732   3.08981
   D32       -2.89599  -0.00095   0.00000  -0.01535  -0.01512  -2.91111
   D33       -0.86314   0.00225   0.00000   0.01929   0.01918  -0.84397
   D34        1.30938   0.00060   0.00000   0.00000  -0.00000   1.30937
   D35       -0.89230  -0.00214   0.00000  -0.02537  -0.02530  -0.91760
   D36        1.14055   0.00107   0.00000   0.00928   0.00900   1.14955
   D37       -2.97012  -0.00059   0.00000  -0.01002  -0.01018  -2.98030
   D38        1.10836   0.00090   0.00000   0.01243   0.01254   1.12089
   D39        3.14121   0.00410   0.00000   0.04708   0.04683  -3.09514
   D40       -0.96946   0.00245   0.00000   0.02778   0.02765  -0.94181
   D41        0.95665   0.00068   0.00000   0.00000   0.00001   0.95666
   D42        3.08233   0.00058   0.00000   0.00764   0.00761   3.08993
   D43       -1.13796  -0.00110   0.00000  -0.01550  -0.01546  -1.15342
   D44       -1.15614   0.00173   0.00000   0.01607   0.01614  -1.14001
   D45        0.96954   0.00164   0.00000   0.02371   0.02373   0.99327
   D46        3.03243  -0.00005   0.00000   0.00057   0.00066   3.03310
   D47        3.06283   0.00064   0.00000   0.00425   0.00422   3.06705
   D48       -1.09468   0.00054   0.00000   0.01189   0.01181  -1.08286
   D49        0.96822  -0.00114   0.00000  -0.01125  -0.01126   0.95696
   D50       -0.92192  -0.00074   0.00000   0.00000   0.00001  -0.92191
   D51        1.18409  -0.00147   0.00000  -0.01134  -0.01135   1.17274
   D52       -3.04794  -0.00095   0.00000  -0.00783  -0.00786  -3.05580
   D53       -3.04923   0.00023   0.00000   0.00060   0.00063  -3.04860
   D54       -0.94321  -0.00050   0.00000  -0.01074  -0.01073  -0.95395
   D55        1.10794   0.00003   0.00000  -0.00722  -0.00724   1.10070
   D56        1.17647   0.00019   0.00000   0.00699   0.00703   1.18350
   D57       -3.00070  -0.00054   0.00000  -0.00435  -0.00433  -3.00504
   D58       -0.94955  -0.00001   0.00000  -0.00083  -0.00084  -0.95040
   D59        0.99142  -0.00098   0.00000  -0.01107  -0.01110   0.98032
   D60        3.09970  -0.00098   0.00000  -0.01657  -0.01672   3.08299
   D61       -1.12783   0.00030   0.00000  -0.00306  -0.00302  -1.13085
   D62       -1.11197  -0.00130   0.00000  -0.01211  -0.01208  -1.12406
   D63        0.99632  -0.00130   0.00000  -0.01761  -0.01770   0.97861
   D64        3.05197  -0.00002   0.00000  -0.00409  -0.00401   3.04796
   D65        3.11854  -0.00026   0.00000  -0.00052  -0.00051   3.11803
   D66       -1.05636  -0.00026   0.00000  -0.00602  -0.00613  -1.06248
   D67        0.99929   0.00102   0.00000   0.00750   0.00757   1.00686
   D68       -1.05890   0.00024   0.00000  -0.00075  -0.00070  -1.05960
   D69       -3.12681   0.00132   0.00000   0.00473   0.00436  -3.12245
   D70        1.08671   0.00118   0.00000   0.01016   0.01012   1.09683
   D71        3.11610  -0.00110   0.00000  -0.00736  -0.00724   3.10887
   D72        1.04819  -0.00001   0.00000  -0.00188  -0.00217   1.04602
   D73       -1.02147  -0.00016   0.00000   0.00356   0.00358  -1.01789
   D74        1.05979  -0.00003   0.00000   0.00161   0.00176   1.06155
   D75       -1.00813   0.00105   0.00000   0.00709   0.00683  -1.00130
   D76       -3.07779   0.00090   0.00000   0.01252   0.01258  -3.06520
   D77       -1.17216   0.00375   0.00000   0.00000  -0.00000  -1.17216
   D78        3.05909   0.00049   0.00000  -0.01452  -0.01441   3.04468
   D79        1.01051  -0.00043   0.00000  -0.03118  -0.03144   0.97906
   D80        0.22623  -0.00162   0.00000  -0.00232  -0.00242   0.22381
   D81       -2.95500  -0.00254   0.00000  -0.04538  -0.04527  -3.00027
         Item               Value     Threshold  Converged?
 Maximum Force            0.037650     0.000450     NO 
 RMS     Force            0.006921     0.000300     NO 
 Maximum Displacement     0.271216     0.001800     NO 
 RMS     Displacement     0.054094     0.001200     NO 
 Predicted change in Energy=-1.337046D-02
 GradGradGradGradGradGradGradGradGradGradGradGradGradGradGradGradGradGrad

                          Input orientation:                          
 ---------------------------------------------------------------------
 Center     Atomic      Atomic             Coordinates (Angstroms)
 Number     Number       Type             X           Y           Z
 ---------------------------------------------------------------------
      1          8           0       -3.483277   -1.403406   -0.259520
      2          7           0       -3.116397   -0.229227   -0.100045
      3          8           0       -3.863718    0.748795    0.059767
      4          6           0       -1.659051   -0.003421   -0.048723
      5          6           0       -1.314009    1.278007    0.247928
      6          7           0       -0.066524    1.751610    0.428171
      7          6           0        1.193832    1.002909    0.389995
      8          1           0        1.835422    1.513866    1.125750
      9          6           0        1.907217    1.052922   -0.958382
     10          6           0        3.311225    0.456386   -0.807274
     11          6           0        3.259658   -0.957205   -0.216504
     12          6           0        2.456564   -0.997978    1.083334
     13          6           0        1.041870   -0.450037    0.857059
     14          1           0        0.484043   -0.468059    1.805749
     15          7           0        0.397434   -1.342326   -0.100768
     16          6           0       -0.848225   -1.158754   -0.378530
     17          1           0       -2.112592    2.000754    0.384454
     18          1           0        0.066896    2.753917    0.335149
     19          1           0        1.330390    0.483041   -1.695662
     20          1           0        1.965001    2.091627   -1.310752
     21          1           0        3.809864    0.440697   -1.783080
     22          1           0        3.906899    1.105936   -0.150374
     23          1           0        2.787296   -1.634737   -0.936450
     24          1           0        4.275766   -1.328651   -0.036452
     25          1           0        2.385689   -2.027546    1.451211
     26          1           0        2.957029   -0.402861    1.858959
     27          1           0       -1.346312   -1.912249   -0.989011
 ---------------------------------------------------------------------
                    Distance matrix (angstroms):
                    1          2          3          4          5
     1  O    0.000000
     2  N    1.240456   0.000000
     3  O    2.208767   1.241192   0.000000
     4  C    2.309154   1.475628   2.331985   0.000000
     5  C    3.486145   2.375172   2.610841   1.359822   0.000000
     6  N    4.701196   3.674840   3.944622   2.417376   1.346478
     7  C    5.299771   4.509587   5.074687   3.056815   2.526881
     8  H    6.222379   5.390868   5.848235   3.986589   3.277974
     9  C    5.964845   5.255221   5.867949   3.829049   3.447049
    10  C    7.065700   6.502658   7.233054   5.048809   4.814696
    11  C    6.757818   6.418534   7.330024   5.013138   5.111780
    12  C    6.103224   5.748848   6.636632   4.382806   4.482771
    13  C    4.757374   4.272702   5.112501   2.883553   2.984516
    14  H    4.569446   4.080718   4.840684   2.871900   2.951024
    15  N    3.884436   3.685918   4.749313   2.454487   3.149090
    16  C    2.649059   2.467018   3.595004   1.449485   2.558752
    17  H    3.725827   2.493026   2.176986   2.100014   1.085697
    18  H    5.499154   4.384278   4.421095   3.275541   2.023071
    19  H    5.365871   4.777785   5.489164   3.447581   3.376738
    20  H    6.557749   5.716011   6.136407   4.372151   3.720667
    21  H    7.675406   7.159225   7.897777   5.754500   5.574958
    22  H    7.805345   7.149257   7.781658   5.676338   5.238905
    23  H    6.311246   6.126061   7.135101   4.818636   5.167933
    24  H    7.762609   7.473744   8.400967   6.080991   6.174230
    25  H    6.144991   5.992770   6.978487   4.765166   5.105128
    26  H    6.853217   6.383913   7.147448   5.010689   4.864412
    27  H    2.314670   2.599236   3.810306   2.150714   3.421812
                    6          7          8          9         10
     6  N    0.000000
     7  C    1.466461   0.000000
     8  H    2.039740   1.101839   0.000000
     9  C    2.511245   1.526283   2.135704   0.000000
    10  C    3.822711   2.493089   2.651950   1.532947   0.000000
    11  C    4.337830   2.911619   3.152187   2.533789   1.532941
    12  C    3.788859   2.465515   2.587852   2.945603   2.533776
    13  C    2.501945   1.533719   2.135143   2.510684   2.956616
    14  H    2.669790   2.161460   2.493321   3.461102   3.959223
    15  N    3.172929   2.524922   3.424907   2.958405   3.496383
    16  C    3.119622   3.071387   4.075257   3.580531   4.482580
    17  H    2.061644   3.453717   4.046405   4.342863   5.763946
    18  H    1.015418   2.083032   2.300100   2.820176   4.136357
    19  H    2.841004   2.153805   3.045984   1.095936   2.171094
    20  H    2.695656   2.161608   2.507417   1.098368   2.177113
    21  H    4.651292   3.447022   3.675787   2.162177   1.095940
    22  H    4.066903   2.768275   2.466965   2.157409   1.099210
    23  H    4.633986   3.354961   3.882323   2.828167   2.159626
    24  H    5.344097   3.887975   3.922485   3.483083   2.170453
    25  H    4.619738   3.424961   3.598654   3.940095   3.482426
    26  H    3.978791   2.691265   2.338683   3.340482   2.823572
    27  H    4.131600   4.105135   5.131657   4.402116   5.228394
                   11         12         13         14         15
    11  C    0.000000
    12  C    1.528464   0.000000
    13  C    2.515619   1.533884   0.000000
    14  H    3.468834   2.166458   1.100686   0.000000
    15  N    2.890336   2.400144   1.459078   2.099203   0.000000
    16  C    4.116014   3.617254   2.366731   2.650108   1.289386
    17  H    6.162121   5.509811   4.022481   3.854559   4.208545
    18  H    4.926507   4.510766   3.389437   3.566203   4.132613
    19  H    2.825648   3.344325   2.733178   3.725691   2.597318
    20  H    3.488394   3.939409   3.465780   4.296255   3.964009
    21  H    2.170488   3.481026   3.927536   4.976608   4.201670
    22  H    2.163295   2.837598   3.412384   4.244976   4.279346
    23  H    1.095672   2.143449   2.768881   3.766400   2.548590
    24  H    1.096753   2.161657   3.468200   4.302498   3.878890
    25  H    2.165808   1.095612   2.155783   2.484745   2.613680
    26  H    2.169431   1.098282   2.161913   2.474418   3.357775
    27  H    4.766952   4.426327   3.354019   3.639584   2.038243
                   16         17         18         19         20
    16  C    0.000000
    17  H    3.487587   0.000000
    18  H    4.081150   2.306481   0.000000
    19  H    3.029306   4.299356   3.298104   0.000000
    20  H    4.398666   4.416871   2.598157   1.771563   0.000000
    21  H    5.121406   6.496728   4.883410   2.481376   2.520354
    22  H    5.271820   6.109092   4.206804   3.068275   2.467596
    23  H    3.708753   6.242634   5.317690   2.680291   3.834327
    24  H    5.138207   7.216177   5.875376   3.835420   4.319928
    25  H    3.815881   6.131859   5.429989   4.161672   4.977248
    26  H    4.478581   5.801085   4.543139   4.008255   4.153752
    27  H    1.090198   4.217248   5.052095   3.660806   5.205702
                   21         22         23         24         25
    21  H    0.000000
    22  H    1.765698   0.000000
    23  H    2.463708   3.063122   0.000000
    24  H    2.529500   2.465006   1.766134   0.000000
    25  H    4.310584   3.833779   2.452858   2.504792   0.000000
    26  H    3.834497   2.686288   3.059517   2.487717   1.769827
    27  H    5.723028   6.116288   4.143246   5.731991   4.460472
                   26         27
    26  H    0.000000
    27  H    5.376609   0.000000
 Symmetry turned off by external request.
 Stoichiometry    C9H13N3O2
 Framework group  C1[X(C9H13N3O2)]
 Deg. of freedom    75
 Full point group                 C1      NOp   1
 Rotational constants (GHZ):           1.6746171           0.4234324           0.3732868
 Standard basis: 6-31G(d) (6D, 7F)
   236 basis functions,   444 primitive gaussians,   236 cartesian basis functions
    52 alpha electrons       52 beta electrons
       nuclear repulsion energy       932.2030997115 Hartrees.
 NAtoms=   27 NActive=   27 NUniq=   27 SFac= 1.00D+00 NAtFMM=   60 NAOKFM=F Big=F
 Integral buffers will be    131072 words long.
 Raffenetti 1 integral format.
 Two-electron integral symmetry is turned off.
 One-electron integrals computed using PRISM.
 NBasis=   236 RedAO= T EigKep=  9.91D-04  NBF=   236
 NBsUse=   236 1.00D-06 EigRej= -1.00D+00 NBFU=   236
 Initial guess from the checkpoint file:  "/home/alexey/tmp/Gau-1363932.chk"
 B after Tr=     0.052221    0.003571    0.003840
         Rot=    0.999999   -0.001532   -0.000257    0.000713 Ang=  -0.20 deg.
 ExpMin= 1.61D-01 ExpMax= 5.48D+03 ExpMxC= 8.25D+02 IAcc=3 IRadAn=         5 AccDes= 0.00D+00
 Harris functional with IExCor=  205 and IRadAn=       5 diagonalized for initial guess.
 HarFok:  IExCor=  205 AccDes= 0.00D+00 IRadAn=         5 IDoV= 1 UseB2=F ITyADJ=14
 ICtDFT=  3500011 ScaDFX=  1.000000  1.000000  1.000000  1.000000
 FoFCou: FMM=F IPFlag=           0 FMFlag=      100000 FMFlg1=           0
         NFxFlg=           0 DoJE=T BraDBF=F KetDBF=T FulRan=T
         wScrn=  0.000000 ICntrl=       500 IOpCl=  0 I1Cent=   200000004 NGrid=           0
         NMat0=    1 NMatS0=      1 NMatT0=    0 NMatD0=    1 NMtDS0=    0 NMtDT0=    0
 Symmetry not used in FoFCou.
 Keep R1 ints in memory in canonical form, NReq=397720213.
 Requested convergence on RMS density matrix=1.00D-08 within 128 cycles.
 Requested convergence on MAX density matrix=1.00D-06.
 Requested convergence on             energy=1.00D-06.
 No special actions if energy rises.
 SCF Done:  E(RHF) =  -661.297420961     A.U. after   15 cycles
            NFock= 15  Conv=0.52D-08     -V/T= 2.0025
 ExpMin= 1.61D-01 ExpMax= 5.48D+03 ExpMxC= 8.25D+02 IAcc=3 IRadAn=         5 AccDes= 0.00D+00
 HarFok:  IExCor=  205 AccDes= 0.00D+00 IRadAn=         5 IDoV=-2 UseB2=F ITyADJ=14
 ICtDFT= 12500011 ScaDFX=  1.000000  1.000000  1.000000  1.000000
 Range of M.O.s used for correlation:    15   236
 NBasis=   236 NAE=    52 NBE=    52 NFC=    14 NFV=     0
 NROrb=    222 NOA=    38 NOB=    38 NVA=   184 NVB=   184
 Fully direct method using O(ONN) memory.
 JobTyp=1 Pass  1:  I=  15 to  52 NPSUse=  4 ParTrn=T ParDer=T DoDerP=T.
 Spin components of T(2) and E(2):
     alpha-alpha T2 =       0.9134658690D-01 E2=     -0.2724390352D+00
     alpha-beta  T2 =       0.4915666683D+00 E2=     -0.1488355991D+01
     beta-beta   T2 =       0.9134658690D-01 E2=     -0.2724390352D+00
 ANorm=    0.1293931931D+01
 E2 =    -0.2033234061D+01 EUMP2 =    -0.66333065502265D+03
          IDoAtm=111111111111111111111111111
          Differentiating once with respect to electric field.
                with respect to dipole field.
          Differentiating once with respect to nuclear coordinates.
 Keep R1 ints in memory in canonical form, NReq=397723379.
          There are     1 degrees of freedom in the 1st order CPHF.  IDoFFX=0 NUNeed=     1.
 LinEq1:  Iter=  0 NonCon=     1 RMS=4.59D-03 Max=1.11D-01 NDo=     1
 AX will form     1 AO Fock derivatives at one time.
 LinEq1:  Iter=  1 NonCon=     1 RMS=1.54D-03 Max=2.97D-02 NDo=     1
 LinEq1:  Iter=  2 NonCon=     1 RMS=6.47D-04 Max=1.88D-02 NDo=     1
 LinEq1:  Iter=  3 NonCon=     1 RMS=2.81D-04 Max=8.03D-03 NDo=     1
 LinEq1:  Iter=  4 NonCon=     1 RMS=8.76D-05 Max=2.02D-03 NDo=     1
 LinEq1:  Iter=  5 NonCon=     1 RMS=3.64D-05 Max=1.73D-03 NDo=     1
 LinEq1:  Iter=  6 NonCon=     1 RMS=1.42D-05 Max=5.53D-04 NDo=     1
 LinEq1:  Iter=  7 NonCon=     1 RMS=5.39D-06 Max=9.72D-05 NDo=     1
 LinEq1:  Iter=  8 NonCon=     1 RMS=2.16D-06 Max=4.97D-05 NDo=     1
[...]
    27  H    4.740923   4.424165   3.358342   3.644767   2.035774
                   16         17         18         19         20
    16  C    0.000000
    17  H    3.484808   0.000000
    18  H    4.125986   2.255765   0.000000
    19  H    3.009493   4.295669   3.523798   0.000000
    20  H    4.397950   4.444174   2.888693   1.768525   0.000000
    21  H    5.108872   6.508444   5.091110   2.499271   2.520599
    22  H    5.261713   6.105029   4.312210   3.070242   2.462199
    23  H    3.692438   6.234761   5.427248   2.702309   3.842152
    24  H    5.132737   7.205893   5.938305   3.848272   4.317142
    25  H    3.814190   6.099799   5.370229   4.170643   4.984199
    26  H    4.493570   5.789118   4.474821   4.029945   4.176266
    27  H    1.088462   4.228720   5.120298   3.623948   5.187384
                   21         22         23         24         25
    21  H    0.000000
    22  H    1.758935   0.000000
    23  H    2.470233   3.062646   0.000000
    24  H    2.517782   2.460331   1.764592   0.000000
    25  H    4.311757   3.837382   2.445284   2.518133   0.000000
    26  H    3.843949   2.700153   3.060426   2.493961   1.768206
    27  H    5.686818   6.088033   4.106727   5.707888   4.452167
                   26         27
    26  H    0.000000
    27  H    5.382294   0.000000
 Symmetry turned off by external request.
 Stoichiometry    C9H13N3O2
 Framework group  C1[X(C9H13N3O2)]
 Deg. of freedom    75
 Full point group                 C1      NOp   1
 Rotational constants (GHZ):           1.6667883           0.4233258           0.3741688

 **********************************************************************

            Population analysis using the SCF Density.

 **********************************************************************

 Alpha  occ. eigenvalues --  -20.59203 -20.58865 -15.84576 -15.63995 -15.56109
 Alpha  occ. eigenvalues --  -11.34955 -11.29635 -11.29559 -11.28648 -11.27166
 Alpha  occ. eigenvalues --  -11.23710 -11.23182 -11.22669 -11.22067  -1.57047
 Alpha  occ. eigenvalues --   -1.36646  -1.30841  -1.23043  -1.14632  -1.09736
 Alpha  occ. eigenvalues --   -1.02762  -1.01189  -0.94458  -0.89484  -0.85472
 Alpha  occ. eigenvalues --   -0.82501  -0.78606  -0.77391  -0.75260  -0.71762
 Alpha  occ. eigenvalues --   -0.69734  -0.69321  -0.67743  -0.64884  -0.63765
 Alpha  occ. eigenvalues --   -0.62432  -0.60512  -0.57643  -0.56983  -0.55137
 Alpha  occ. eigenvalues --   -0.54573  -0.50703  -0.50138  -0.48622  -0.48087
 Alpha  occ. eigenvalues --   -0.47330  -0.46100  -0.45979  -0.43649  -0.41695
 Alpha  occ. eigenvalues --   -0.39844  -0.33760
 Alpha virt. eigenvalues --    0.07551   0.11673   0.17335   0.21845   0.24156
 Alpha virt. eigenvalues --    0.25694   0.27115   0.28769   0.29043   0.29547
 Alpha virt. eigenvalues --    0.30641   0.31796   0.32043   0.32786   0.33993
 Alpha virt. eigenvalues --    0.34415   0.35767   0.37403   0.38538   0.40369
 Alpha virt. eigenvalues --    0.41359   0.42365   0.45074   0.46149   0.46797
 Alpha virt. eigenvalues --    0.47212   0.49202   0.54060   0.57761   0.59538
 Alpha virt. eigenvalues --    0.63902   0.69151   0.69684   0.72912   0.74208
 Alpha virt. eigenvalues --    0.74322   0.75817   0.76713   0.78548   0.79488
 Alpha virt. eigenvalues --    0.81589   0.84394   0.85838   0.86089   0.88728
 Alpha virt. eigenvalues --    0.89479   0.91142   0.91951   0.92923   0.94670
 Alpha virt. eigenvalues --    0.95637   0.97956   0.99797   1.01760   1.02556
 Alpha virt. eigenvalues --    1.03202   1.05846   1.07062   1.08206   1.09027
 Alpha virt. eigenvalues --    1.10561   1.11137   1.11933   1.12565   1.13948
 Alpha virt. eigenvalues --    1.14728   1.15088   1.15771   1.17007   1.18722
 Alpha virt. eigenvalues --    1.19066   1.21318   1.22769   1.24077   1.24309
 Alpha virt. eigenvalues --    1.24702   1.26165   1.27233   1.27300   1.29282
 Alpha virt. eigenvalues --    1.29888   1.33452   1.36223   1.37841   1.40926
 Alpha virt. eigenvalues --    1.41888   1.47669   1.48671   1.51484   1.54351
 Alpha virt. eigenvalues --    1.56225   1.58282   1.59615   1.63912   1.64686
 Alpha virt. eigenvalues --    1.67809   1.68173   1.72878   1.75534   1.78043
 Alpha virt. eigenvalues --    1.81713   1.84950   1.87983   1.90427   1.93060
 Alpha virt. eigenvalues --    1.95753   1.96670   1.99838   2.01222   2.02614
 Alpha virt. eigenvalues --    2.04742   2.05875   2.08348   2.09363   2.12523
 Alpha virt. eigenvalues --    2.13395   2.15167   2.18690   2.19949   2.22503
 Alpha virt. eigenvalues --    2.22889   2.24366   2.25256   2.28331   2.29520
 Alpha virt. eigenvalues --    2.32523   2.33504   2.34907   2.36702   2.38148
 Alpha virt. eigenvalues --    2.40573   2.42098   2.44575   2.45750   2.47693
 Alpha virt. eigenvalues --    2.50431   2.51977   2.53153   2.55930   2.60528
 Alpha virt. eigenvalues --    2.62349   2.65061   2.67449   2.70264   2.70466
 Alpha virt. eigenvalues --    2.72151   2.72468   2.77355   2.78804   2.83371
 Alpha virt. eigenvalues --    2.88495   2.89017   2.92569   2.93073   2.95764
 Alpha virt. eigenvalues --    2.99754   3.00994   3.04520   3.05806   3.07798
 Alpha virt. eigenvalues --    3.09441   3.14776   3.21158   3.24971   3.27604
 Alpha virt. eigenvalues --    3.32716   3.37095   3.38118   3.51984   3.66660
 Alpha virt. eigenvalues --    4.13513   4.27013   4.35781   4.39111   4.45871
 Alpha virt. eigenvalues --    4.55797   4.61625   4.62291   4.73555   4.79250
 Alpha virt. eigenvalues --    4.99746   5.00878   5.05663   5.10878
          Condensed to atoms (all electrons):
               1          2          3          4          5          6
     1  O    8.318559   0.306091  -0.083582  -0.084395   0.004716  -0.000018
     2  N    0.306091   5.718815   0.300284   0.268991  -0.057024   0.000979
     3  O   -0.083582   0.300284   8.355917  -0.091952   0.003120   0.000822
     4  C   -0.084395   0.268991  -0.091952   5.213995   0.569679  -0.050455
     5  C    0.004716  -0.057024   0.003120   0.569679   4.712794   0.314849
     6  N   -0.000018   0.000979   0.000822  -0.050455   0.314849   7.195920
     7  C    0.000004  -0.000167   0.000002   0.003815  -0.030166   0.171359
     8  H   -0.000000   0.000003  -0.000000  -0.000176   0.002873  -0.050227
     9  C   -0.000000  -0.000005   0.000000   0.000660   0.000967  -0.062872
    10  C   -0.000000   0.000000   0.000000  -0.000030  -0.000066   0.003766
    11  C   -0.000000  -0.000000  -0.000000  -0.000041   0.000029  -0.000191
    12  C   -0.000000   0.000002  -0.000000  -0.000082  -0.000213   0.003847
    13  C   -0.000028  -0.000037  -0.000004  -0.012008  -0.000576  -0.046317
    14  H   -0.000004  -0.000098   0.000001   0.002452   0.006157  -0.006717
    15  N    0.000414   0.002502  -0.000019  -0.064450  -0.007744   0.002108
    16  C    0.000426  -0.028859   0.002613   0.334880  -0.050225  -0.000473
    17  H    0.000244  -0.007554   0.018126  -0.021969   0.372886  -0.032491
    18  H    0.000001  -0.000056   0.000013   0.001531  -0.030701   0.338027
    19  H    0.000001  -0.000003   0.000000  -0.001205   0.001191  -0.000355
    20  H    0.000000  -0.000000   0.000000  -0.000092   0.000188  -0.000409
    21  H   -0.000000  -0.000000   0.000000   0.000001   0.000001  -0.000078
    22  H   -0.000000   0.000000  -0.000000  -0.000000  -0.000003  -0.000117
    23  H    0.000000  -0.000000   0.000000   0.000041   0.000002  -0.000031
    24  H    0.000000   0.000000   0.000000   0.000000  -0.000000   0.000006
    25  H    0.000000  -0.000000   0.000000   0.000026   0.000001  -0.000089
    26  H    0.000000  -0.000000   0.000000   0.000005   0.000001  -0.000058
    27  H    0.005854  -0.001025   0.000014  -0.060619   0.001945   0.000013
               7          8          9         10         11         12
     1  O    0.000004  -0.000000  -0.000000  -0.000000  -0.000000  -0.000000
     2  N   -0.000167   0.000003  -0.000005   0.000000  -0.000000   0.000002
     3  O    0.000002  -0.000000   0.000000   0.000000  -0.000000  -0.000000
     4  C    0.003815  -0.000176   0.000660  -0.000030  -0.000041  -0.000082
     5  C   -0.030166   0.002873   0.000967  -0.000066   0.000029  -0.000213
     6  N    0.171359  -0.050227  -0.062872   0.003766  -0.000191   0.003847
     7  C    5.019870   0.418231   0.349948  -0.054398  -0.009006  -0.060881
     8  H    0.418231   0.537014  -0.054586   0.000665  -0.000305  -0.002509
     9  C    0.349948  -0.054586   5.157962   0.324997  -0.050582  -0.005192
    10  C   -0.054398   0.000665   0.324997   5.119190   0.336869  -0.061258
    11  C   -0.009006  -0.000305  -0.050582   0.336869   5.120605   0.336109
    12  C   -0.060881  -0.002509  -0.005192  -0.061258   0.336109   5.119265
    13  C    0.336172  -0.037367  -0.060862  -0.000284  -0.050888   0.371575
    14  H   -0.047008  -0.000678   0.004419  -0.000401   0.004196  -0.036152
    15  N   -0.057649   0.003751  -0.013579   0.001598  -0.013292  -0.082015
    16  C   -0.001188  -0.000062  -0.000814  -0.000051   0.000060   0.002611
    17  H    0.001527  -0.000053  -0.000057   0.000001   0.000000  -0.000000
    18  H   -0.021139  -0.004491   0.001394  -0.000083   0.000003  -0.000112
    19  H   -0.037024   0.004359   0.390336  -0.032335  -0.002219   0.000665
    20  H   -0.042210  -0.001963   0.399486  -0.035259   0.003928  -0.000412
    21  H    0.004590  -0.000074  -0.036401   0.402422  -0.034939   0.004367
    22  H   -0.004901   0.003559  -0.046926   0.397738  -0.045306  -0.001092
    23  H    0.000570   0.000037  -0.001977  -0.039040   0.399264  -0.038056
    24  H   -0.000130  -0.000103   0.004390  -0.038405   0.402308  -0.038632
    25  H    0.005156  -0.000019  -0.000430   0.004208  -0.033355   0.398407
    26  H   -0.003985   0.001688   0.000978  -0.002295  -0.041462   0.396592
    27  H   -0.000378   0.000008  -0.000047   0.000005   0.000012  -0.000041
              13         14         15         16         17         18
     1  O   -0.000028  -0.000004   0.000414   0.000426   0.000244   0.000001
     2  N   -0.000037  -0.000098   0.002502  -0.028859  -0.007554  -0.000056
     3  O   -0.000004   0.000001  -0.000019   0.002613   0.018126   0.000013
     4  C   -0.012008   0.002452  -0.064450   0.334880  -0.021969   0.001531
     5  C   -0.000576   0.006157  -0.007744  -0.050225   0.372886  -0.030701
     6  N   -0.046317  -0.006717   0.002108  -0.000473  -0.032491   0.338027
     7  C    0.336172  -0.047008  -0.057649  -0.001188   0.001527  -0.021139
     8  H   -0.037367  -0.000678   0.003751  -0.000062  -0.000053  -0.004491
     9  C   -0.060862   0.004419  -0.013579  -0.000814  -0.000057   0.001394
    10  C   -0.000284  -0.000401   0.001598  -0.000051   0.000001  -0.000083
    11  C   -0.050888   0.004196  -0.013292   0.000060   0.000000   0.000003
    12  C    0.371575  -0.036152  -0.082015   0.002611  -0.000000  -0.000112
    13  C    5.040799   0.403384   0.247510  -0.071060  -0.000001   0.002823
    14  H    0.403384   0.526840  -0.037467  -0.005084   0.000085  -0.000113
    15  N    0.247510  -0.037467   6.966223   0.581535  -0.000093  -0.000126
    16  C   -0.071060  -0.005084   0.581535   4.706837   0.001612  -0.000175
    17  H   -0.000001   0.000085  -0.000093   0.001612   0.368203  -0.002472
    18  H    0.002823  -0.000113  -0.000126  -0.000175  -0.002472   0.311192
    19  H   -0.007566   0.000114   0.007639   0.002770   0.000014  -0.000149
    20  H    0.004331  -0.000068   0.000116  -0.000037   0.000002   0.000753
    21  H   -0.000440   0.000010  -0.000040   0.000004  -0.000000   0.000001
    22  H    0.000086  -0.000053   0.000019  -0.000002   0.000000   0.000001
    23  H   -0.007546   0.000006   0.008655   0.000113   0.000000   0.000000
    24  H    0.004707  -0.000058   0.000128   0.000006   0.000000  -0.000000
    25  H   -0.035641  -0.002863   0.000518  -0.000021  -0.000000   0.000002
    26  H   -0.047338  -0.001046   0.004889  -0.000059   0.000000  -0.000000
    27  H    0.004860  -0.000153  -0.038849   0.402556  -0.000076   0.000001
              19         20         21         22         23         24
     1  O    0.000001   0.000000  -0.000000  -0.000000   0.000000   0.000000
     2  N   -0.000003  -0.000000  -0.000000   0.000000  -0.000000   0.000000
     3  O    0.000000   0.000000   0.000000  -0.000000   0.000000   0.000000
     4  C   -0.001205  -0.000092   0.000001  -0.000000   0.000041   0.000000
     5  C    0.001191   0.000188   0.000001  -0.000003   0.000002  -0.000000
     6  N   -0.000355  -0.000409  -0.000078  -0.000117  -0.000031   0.000006
     7  C   -0.037024  -0.042210   0.004590  -0.004901   0.000570  -0.000130
     8  H    0.004359  -0.001963  -0.000074   0.003559   0.000037  -0.000103
     9  C    0.390336   0.399486  -0.036401  -0.046926  -0.001977   0.004390
    10  C   -0.032335  -0.035259   0.402422   0.397738  -0.039040  -0.038405
    11  C   -0.002219   0.003928  -0.034939  -0.045306   0.399264   0.402308
    12  C    0.000665  -0.000412   0.004367  -0.001092  -0.038056  -0.038632
    13  C   -0.007566   0.004331  -0.000440   0.000086  -0.007546   0.004707
    14  H    0.000114  -0.000068   0.000010  -0.000053   0.000006  -0.000058
    15  N    0.007639   0.000116  -0.000040   0.000019   0.008655   0.000128
    16  C    0.002770  -0.000037   0.000004  -0.000002   0.000113   0.000006
    17  H    0.000014   0.000002  -0.000000   0.000000   0.000000   0.000000
    18  H   -0.000149   0.000753   0.000001   0.000001   0.000000  -0.000000
    19  H    0.506362  -0.024675  -0.002776   0.003970   0.001535  -0.000067
    20  H   -0.024675   0.540161  -0.002713  -0.002965  -0.000045  -0.000083
    21  H   -0.002776  -0.002713   0.524345  -0.027412  -0.002896  -0.002251
    22  H    0.003970  -0.002965  -0.027412   0.571299   0.004131  -0.003639
    23  H    0.001535  -0.000045  -0.002896   0.004131   0.498868  -0.025397
    24  H   -0.000067  -0.000083  -0.002251  -0.003639  -0.025397   0.538012
    25  H   -0.000029   0.000012  -0.000087  -0.000081  -0.002289  -0.002327
    26  H    0.000020  -0.000030  -0.000080   0.002389   0.004069  -0.002992
    27  H    0.000074   0.000000  -0.000000   0.000000  -0.000032  -0.000000
              25         26         27
     1  O    0.000000   0.000000   0.005854
     2  N   -0.000000  -0.000000  -0.001025
     3  O    0.000000   0.000000   0.000014
     4  C    0.000026   0.000005  -0.060619
     5  C    0.000001   0.000001   0.001945
     6  N   -0.000089  -0.000058   0.000013
     7  C    0.005156  -0.003985  -0.000378
     8  H   -0.000019   0.001688   0.000008
     9  C   -0.000430   0.000978  -0.000047
    10  C    0.004208  -0.002295   0.000005
    11  C   -0.033355  -0.041462   0.000012
    12  C    0.398407   0.396592  -0.000041
    13  C   -0.035641  -0.047338   0.004860
    14  H   -0.002863  -0.001046  -0.000153
    15  N    0.000518   0.004889  -0.038849
    16  C   -0.000021  -0.000059   0.402556
    17  H   -0.000000   0.000000  -0.000076
    18  H    0.000002  -0.000000   0.000001
    19  H   -0.000029   0.000020   0.000074
    20  H    0.000012  -0.000030   0.000000
    21  H   -0.000087  -0.000080  -0.000000
    22  H   -0.000081   0.002389   0.000000
    23  H   -0.002289   0.004069  -0.000032
    24  H   -0.002327  -0.002992  -0.000000
    25  H    0.505473  -0.024049  -0.000013
    26  H   -0.024049   0.562622   0.000001
    27  H   -0.000013   0.000001   0.432426
 Mulliken charges:
               1
     1  O   -0.468282
     2  N    0.497162
     3  O   -0.505354
     4  C   -0.008603
     5  C    0.185319
     6  N   -0.780800
     7  C    0.058986
     8  H    0.180427
     9  C   -0.301206
    10  C   -0.327552
    11  C   -0.321798
    12  C   -0.306793
    13  C   -0.038283
    14  H    0.190299
    15  N   -0.512282
    16  C    0.122089
    17  H    0.302064
    18  H    0.403875
    19  H    0.189352
    20  H    0.161984
    21  H    0.174448
    22  H    0.149307
    23  H    0.200018
    24  H    0.164528
    25  H    0.187488
    26  H    0.150142
    27  H    0.253465
 Sum of Mulliken charges =  -0.00000
 Mulliken charges with hydrogens summed into heavy atoms:
               1
     1  O   -0.468282
     2  N    0.497162
     3  O   -0.505354
     4  C   -0.008603
     5  C    0.487383
     6  N   -0.376924
     7  C    0.239413
     9  C    0.050131
    10  C   -0.003797
    11  C    0.042748
    12  C    0.030837
    13  C    0.152016
    15  N   -0.512282
    16  C    0.375554
 Electronic spatial extent (au):  <R**2>=           2990.0147
 Charge=              0.0000 electrons
 Dipole moment (field-independent basis, Debye):
    X=              5.3462    Y=              4.7692    Z=              1.3453  Tot=              7.2895
 Quadrupole moment (field-independent basis, Debye-Ang):
   XX=           -105.8647   YY=            -79.2437   ZZ=            -81.4109
   XY=             -1.6465   XZ=             -0.2716   YZ=              2.2043
 Traceless Quadrupole moment (field-independent basis, Debye-Ang):
   XX=            -17.0249   YY=              9.5961   ZZ=              7.4288
   XY=             -1.6465   XZ=             -0.2716   YZ=              2.2043
 Octapole moment (field-independent basis, Debye-Ang**2):
  XXX=             89.5294  YYY=             36.0277  ZZZ=             -0.7153  XYY=             -5.3860
  XXY=              9.3196  XXZ=              5.7410  XZZ=            -10.3296  YZZ=             -0.3717
  YYZ=              8.3816  XYZ=             -0.4647
 Hexadecapole moment (field-independent basis, Debye-Ang**3):
 XXXX=          -3348.4342 YYYY=           -608.6632 ZZZZ=           -301.7657 XXXY=            -18.8705
 XXXZ=            -18.3523 YYYX=             -6.7105 YYYZ=             27.7525 ZZZX=             -0.5654
 ZZZY=              8.3800 XXYY=           -624.0978 XXZZ=           -518.7225 YYZZ=           -157.7783
 XXYZ=             -1.2318 YYXZ=              1.3220 ZZXY=              5.4847
 N-N= 9.319369384827D+02 E-N=-3.410623267506D+03  KE= 6.596273452020D+02
 Unable to Open any file for archive entry.
 1\1\GINC-LOTUS\FOpt\RMP2-FC\6-31G(d)\C9H13N3O2\ALEXEY\01-Jul-2023\0\\#
 MP2/6-31G* SCF=Tight Opt=(ModRedun, MaxCycle=20 ) NoSymm\\MolName:\\0,
 1\O,-3.4863042421,-1.3884155784,-0.3403139781\N,-3.0949558342,-0.22361
 41646,-0.1310265308\O,-3.8691971005,0.7439257336,0.0026542169\C,-1.650
 4081148,-0.0142890764,-0.0314830861\C,-1.3008785326,1.2742833958,0.269
 7935716\N,-0.0568040239,1.7635870098,0.390747623\C,1.2005998693,1.0242
 602907,0.3654301401\H,1.8506522886,1.5435729292,1.0852403415\C,1.90353
 42197,1.0397390623,-0.9912163127\C,3.3022651076,0.4328540432,-0.832442
 5506\C,3.2549269387,-0.9654246246,-0.2112290467\C,2.4621733114,-0.9792
 585801,1.0972519593\C,1.0493349084,-0.431983403,0.8608022845\H,0.47336
 60508,-0.4156990054,1.7995103688\N,0.4060854444,-1.3393424416,-0.08756
 64112\C,-0.844729915,-1.1637624816,-0.3753779089\H,-2.1061671625,1.989
 1207731,0.4069195945\H,0.0067756407,2.7424900106,0.6443707881\H,1.3076
 969618,0.4638022579,-1.7077214758\H,1.9680444251,2.0685515261,-1.36654
 34945\H,3.8041759408,0.3986002592,-1.8062063916\H,3.9032384012,1.09672
 62196,-0.1947915088\H,2.775229898,-1.6597914228,-0.9082399364\H,4.2741
 509973,-1.3303814535,-0.0373160651\H,2.3803852994,-2.0015599351,1.4806
 314591\H,2.9709463962,-0.3797551833,1.8647379793\H,-1.3221471736,-1.92
 42261606,-0.9906156295\\Version=ES64L-G16RevC.02\HF=-661.2990607\MP2=-
 663.3338313\RMSD=7.811e-09\RMSF=2.572e-03\Dipole=1.95445,1.6860739,0.4
 913031\PG=C01 [X(C9H13N3O2)]\\@
 The archive entry for this job was punched.


 Discoveries are often made by not following instructions,
 by going off the main road, by trying the untried.
 -- Frank Tyger
 Job cpu time:       0 days  1 hours 20 minutes 11.1 seconds.
 Elapsed time:       0 days  0 hours 24 minutes 29.5 seconds.
 File lengths (MBytes):  RWF=     36 Int=      0 D2E=      0 Chk=      7 Scr=      1
 Normal termination of Gaussian 16 at Sat Jul  1 18:20:58 2023.
