 Entering Gaussian System, Link 0=g16
 Initial command:
 /home/alexey/programs//g16/l1.exe "/home/alexey/tmp/Gau-1366908.inp" -scrdir="/home/alexey/tmp/"
 Entering Link 1 = /home/alexey/programs//g16/l1.exe PID=   1366910.
  
 Copyright (c) 1988-2021, Gaussian, Inc.  All Rights Reserved.
  
 This is part of the Gaussian(R) 16 program.  It is based on
 the Gaussian(R) 09 system (copyright 2009, Gaussian, Inc.),
 the Gaussian(R) 03 system (copyright 2003, Gaussian, Inc.),
 the Gaussian(R) 98 system (copyright 1998, Gaussian, Inc.),
 the Gaussian(R) 94 system (copyright 1995, Gaussian, Inc.),
 the Gaussian 92(TM) system (copyright 1992, Gaussian, Inc.),
 the Gaussian 90(TM) system (copyright 1990, Gaussian, Inc.),
 the Gaussian 88(TM) system (copyright 1988, Gaussian, Inc.),
 the Gaussian 86(TM) system (copyright 1986, Carnegie Mellon
 University), and the Gaussian 82(TM) system (copyright 1983,
 Carnegie Mellon University). Gaussian is a federally registered
 trademark of Gaussian, Inc.
  
 This software contains proprietary and confidential information,
 including trade secrets, belonging to Gaussian, Inc.
  
 This software is provided under written license and may be
 used, copied, transmitted, or stored only in accord with that
 written license.
  
 The following legend is applicable only to US Government
 contracts under FAR:
  
                    RESTRICTED RIGHTS LEGEND
  
 Use, reproduction and disclosure by the US Government is
 subject to restrictions as set forth in subparagraphs (a)
 and (c) of the Commercial Computer Software - Restricted
 Rights clause in FAR 52.227-19.
  
 Gaussian, Inc.
 340 Quinnipiac St., Bldg. 40, Wallingford CT 06492
  
  
 ---------------------------------------------------------------
 Warning -- This program may not be used in any manner that
 competes with the business of Gaussian, Inc. or will provide
 assistance to any competitor of Gaussian, Inc.  The licensee
 of this program is prohibited from giving any competitor of
 Gaussian, Inc. access to this program.  By using this program,
 the user acknowledges that Gaussian, Inc. is engaged in the
 business of creating and licensing software in the field of
 computational chemistry and represents and warrants to the
 licensee that it is not a competitor of Gaussian, Inc. and that
 it will not use this program in any manner prohibited above.
 ---------------------------------------------------------------
  

 Cite this work as:
 Gaussian 16, Revision C.02,
 M. J. Frisch, G. W. Trucks, H. B. Schlegel, G. E. Scuseria, 
 M. A. Robb, J. R. Cheeseman, G. Scalmani, V. Barone, 
 G. A. Petersson, H. Nakatsuji, X. Li, M. Caricato, A. V. Marenich, 
 J. Bloino, B. G. Janesko, R. Gomperts, B. Mennucci, H. P. Hratchian, 
 J. V. Ortiz, A. F. Izmaylov, J. L. Sonnenberg, D. Williams-Young, 
 F. Ding, F. Lipparini, F. Egidi, J. Goings, B. Peng, A. Petrone, 
 T. Henderson, D. Ranasinghe, V. G. Zakrzewski, J. Gao, N. Rega, 
 G. Zheng, W. Liang, M. Hada, M. Ehara, K. Toyota, R. Fukuda, 
 J. Hasegawa, M. Ishida, T. Nakajima, Y. Honda, O. Kitao, H. Nakai, 
 T. Vreven, K. Throssell, J. A. Montgomery, Jr., J. E. Peralta, 
 F. Ogliaro, M. J. Bearpark, J. J. Heyd, E. N. Brothers, K. N. Kudin, 
 V. N. Staroverov, T. A. Keith, R. Kobayashi, J. Normand, 
 K. Raghavachari, A. P. Rendell, J. C. Burant, S. S. Iyengar, 
 J. Tomasi, M. Cossi, J. M. Millam, M. Klene, C. Adamo, R. Cammi, 
 J. W. Ochterski, R. L. Martin, K. Morokuma, O. Farkas, 
 J. B. Foresman, and D. J. Fox, Gaussian, Inc., Wallingford CT, 2019.
 
 ******************************************
 Gaussian 16:  ES64L-G16RevC.02  7-Dec-2021
                 1-Jul-2023 
 ******************************************
 %mem=8GB
 %NPROCS=4
 Will use up to    4 processors via shared memory.
 %NoSave
 ---------------------------------------------------------
 #MP2/6-31G* SCF=Tight Opt=(ModRedun, MaxCycle=20 ) NoSymm
 ---------------------------------------------------------
 1/6=20,18=120,19=15,38=1/1,3;
 2/9=110,12=2,15=1,17=6,18=5,40=1/2;
 3/5=1,6=6,7=1,11=9,25=1,30=1,71=1/1,2,3;
 4//1;
 5/5=2,32=2,38=5/2;
 8/6=4,10=2/1;
 9/15=2,16=-3/6;
 10/5=1,31=1/2;
 6/7=2,8=2,9=2,10=2/1;
 7/12=2,30=1/1,2,3,16;
 1/6=20,18=20,19=15/3(2);
 2/9=110,15=1/2;
 99//99;
 2/9=110,15=1/2;
 3/5=1,6=6,7=1,11=9,25=1,30=1,71=1/1,2,3;
 4/5=5,16=3,69=1/1;
 5/5=2,32=2,38=5/2;
 8/6=4,10=2/1;
 9/15=2,16=-3/6;
 10/5=1,31=1/2;
 7/12=2,30=1/1,2,3,16;
 1/6=20,18=20,19=15/3(-8);
 2/9=110,15=1/2;
 6/7=2,8=2,9=2,10=2/1;
 99/9=10/99;
 --------
 MolName:
 --------
 Symbolic Z-matrix:
 Charge =  0 Multiplicity = 1
 8                    0    -3.61077  -1.37506  -0.28138 
 7                    0    -3.20681  -0.21879  -0.15732 
 8                    0    -3.96779   0.75149  -0.1788 
 6                    0    -1.67624   0.01594  -0.05612 
 6                    0    -1.36607   1.33986   0.25516 
 7                    0    -0.0871    1.76219   0.49349 
 6                    0     1.19043   0.98252   0.41516 
 1                    0     1.87946   1.47456   1.14931 
 6                    0     1.90455   1.04979  -0.95796 
 6                    0     3.32803   0.47523  -0.82596 
 6                    0     3.30273  -0.94545  -0.24036 
 6                    0     2.50444  -0.9965    1.07964 
 6                    0     1.05253  -0.48093   0.88344 
 1                    0     0.538    -0.52775   1.8717 
 7                    0     0.37092  -1.37344  -0.06606 
 6                    0    -0.88447  -1.20816  -0.32043 
 1                    0    -2.1673    2.08922   0.36636 
 1                    0     0.1587    2.75262   0.4218 
 1                    0     1.33128   0.47146  -1.71365 
 1                    0     1.96739   2.10252  -1.30653 
 1                    0     3.8257    0.46335  -1.82036 
 1                    0     3.92477   1.1299   -0.15218 
 1                    0     2.83535  -1.63443  -0.97968 
 1                    0     4.34198  -1.29956  -0.06454 
 1                    0     2.47436  -2.04495   1.44928 
 1                    0     3.01774  -0.38146   1.84811 
 1                    0    -1.41982  -2.00814  -0.85413 
 
 The following ModRedundant input section has been read:
 A       5       4      16 F                                                   
 D       1       2       4      16 F                                           
 D       7      13      15      16 F                                           
 D       7       9      10      11 F                                           
 D       9      10      11      12 F                                           
 D       6       7      13      15 F                                           
 

 GradGradGradGradGradGradGradGradGradGradGradGradGradGradGradGradGradGrad
 Berny optimization.
 Initialization pass.
                           ----------------------------
                           !    Initial Parameters    !
                           ! (Angstroms and Degrees)  !
 --------------------------                            --------------------------
 ! Name  Definition              Value          Derivative Info.                !
 --------------------------------------------------------------------------------
 ! R1    R(1,2)                  1.2311         estimate D2E/DX2                !
 ! R2    R(2,3)                  1.2333         estimate D2E/DX2                !
 ! R3    R(2,4)                  1.5518         estimate D2E/DX2                !
 ! R4    R(4,5)                  1.3949         estimate D2E/DX2                !
 ! R5    R(4,16)                 1.4816         estimate D2E/DX2                !
 ! R6    R(5,6)                  1.3678         estimate D2E/DX2                !
 ! R7    R(5,17)                 1.1027         estimate D2E/DX2                !
 ! R8    R(6,7)                  1.4987         estimate D2E/DX2                !
 ! R9    R(6,18)                 1.023          estimate D2E/DX2                !
 ! R10   R(7,8)                  1.1206         estimate D2E/DX2                !
 ! R11   R(7,9)                  1.5492         estimate D2E/DX2                !
 ! R12   R(7,13)                 1.5427         estimate D2E/DX2                !
 ! R13   R(9,10)                 1.5407         estimate D2E/DX2                !
 ! R14   R(9,19)                 1.1109         estimate D2E/DX2                !
 ! R15   R(9,20)                 1.1107         estimate D2E/DX2                !
 ! R16   R(10,11)                1.5368         estimate D2E/DX2                !
 ! R17   R(10,21)                1.112          estimate D2E/DX2                !
 ! R18   R(10,22)                1.113          estimate D2E/DX2                !
 ! R19   R(11,12)                1.5435         estimate D2E/DX2                !
 ! R20   R(11,23)                1.1134         estimate D2E/DX2                !
 ! R21   R(11,24)                1.1119         estimate D2E/DX2                !
 ! R22   R(12,13)                1.5532         estimate D2E/DX2                !
 ! R23   R(12,25)                1.1121         estimate D2E/DX2                !
 ! R24   R(12,26)                1.1101         estimate D2E/DX2                !
 ! R25   R(13,14)                1.1152         estimate D2E/DX2                !
 ! R26   R(13,15)                1.4706         estimate D2E/DX2                !
 ! R27   R(15,16)                1.2915         estimate D2E/DX2                !
 ! R28   R(16,27)                1.1006         estimate D2E/DX2                !
 ! A1    A(1,2,3)              122.3245         estimate D2E/DX2                !
 ! A2    A(1,2,4)              118.1838         estimate D2E/DX2                !
 ! A3    A(3,2,4)              119.3888         estimate D2E/DX2                !
 ! A4    A(2,4,5)              112.1748         estimate D2E/DX2                !
 ! A5    A(2,4,16)             112.9848         estimate D2E/DX2                !
 ! A6    A(5,4,16)             134.8386         Frozen                          !
 ! A7    A(4,5,6)              122.6723         estimate D2E/DX2                !
 ! A8    A(4,5,17)             120.3926         estimate D2E/DX2                !
 ! A9    A(6,5,17)             116.8738         estimate D2E/DX2                !
 ! A10   A(5,6,7)              128.8527         estimate D2E/DX2                !
 ! A11   A(5,6,18)             120.7566         estimate D2E/DX2                !
 ! A12   A(7,6,18)             107.1691         estimate D2E/DX2                !
 ! A13   A(6,7,8)              105.1566         estimate D2E/DX2                !
 ! A14   A(6,7,9)              114.6249         estimate D2E/DX2                !
 ! A15   A(6,7,13)             113.6681         estimate D2E/DX2                !
 ! A16   A(8,7,9)              106.1511         estimate D2E/DX2                !
 ! A17   A(8,7,13)             105.8199         estimate D2E/DX2                !
 ! A18   A(9,7,13)             110.5755         estimate D2E/DX2                !
 ! A19   A(7,9,10)             109.497          estimate D2E/DX2                !
 ! A20   A(7,9,19)             110.0261         estimate D2E/DX2                !
 ! A21   A(7,9,20)             110.2059         estimate D2E/DX2                !
 ! A22   A(10,9,19)            109.9319         estimate D2E/DX2                !
 ! A23   A(10,9,20)            109.1512         estimate D2E/DX2                !
 ! A24   A(19,9,20)            108.0065         estimate D2E/DX2                !
 ! A25   A(9,10,11)            111.2331         estimate D2E/DX2                !
 ! A26   A(9,10,21)            109.9283         estimate D2E/DX2                !
 ! A27   A(9,10,22)            109.1403         estimate D2E/DX2                !
 ! A28   A(11,10,21)           109.7685         estimate D2E/DX2                !
 ! A29   A(11,10,22)           108.7785         estimate D2E/DX2                !
 ! A30   A(21,10,22)           107.9196         estimate D2E/DX2                !
 ! A31   A(10,11,12)           111.4053         estimate D2E/DX2                !
 ! A32   A(10,11,23)           109.0211         estimate D2E/DX2                !
 ! A33   A(10,11,24)           109.8319         estimate D2E/DX2                !
 ! A34   A(12,11,23)           109.2867         estimate D2E/DX2                !
 ! A35   A(12,11,24)           109.7334         estimate D2E/DX2                !
 ! A36   A(23,11,24)           107.4734         estimate D2E/DX2                !
 ! A37   A(11,12,13)           111.3752         estimate D2E/DX2                !
 ! A38   A(11,12,25)           109.234          estimate D2E/DX2                !
 ! A39   A(11,12,26)           109.5455         estimate D2E/DX2                !
 ! A40   A(13,12,25)           109.2474         estimate D2E/DX2                !
 ! A41   A(13,12,26)           109.6201         estimate D2E/DX2                !
 ! A42   A(25,12,26)           107.7429         estimate D2E/DX2                !
 ! A43   A(7,13,12)            105.6449         estimate D2E/DX2                !
 ! A44   A(7,13,14)            110.4916         estimate D2E/DX2                !
 ! A45   A(7,13,15)            114.9078         estimate D2E/DX2                !
 ! A46   A(12,13,14)           107.7839         estimate D2E/DX2                !
 ! A47   A(12,13,15)           108.2625         estimate D2E/DX2                !
 ! A48   A(14,13,15)           109.4415         estimate D2E/DX2                !
 ! A49   A(13,15,16)           120.001          estimate D2E/DX2                !
 ! A50   A(4,16,15)            126.16           estimate D2E/DX2                !
 ! A51   A(4,16,27)            115.2822         estimate D2E/DX2                !
 ! A52   A(15,16,27)           118.3776         estimate D2E/DX2                !
 ! D1    D(1,2,4,5)           -172.1563         estimate D2E/DX2                !
 ! D2    D(1,2,4,16)             8.2584         Frozen                          !
 ! D3    D(3,2,4,5)             11.4454         estimate D2E/DX2                !
 ! D4    D(3,2,4,16)          -168.1399         estimate D2E/DX2                !
 ! D5    D(2,4,5,6)            175.0356         estimate D2E/DX2                !
 ! D6    D(2,4,5,17)            -2.0277         estimate D2E/DX2                !
 ! D7    D(16,4,5,6)            -5.5028         estimate D2E/DX2                !
 ! D8    D(16,4,5,17)          177.4339         estimate D2E/DX2                !
 ! D9    D(2,4,16,15)         -166.2033         estimate D2E/DX2                !
 ! D10   D(2,4,16,27)           18.784          estimate D2E/DX2                !
 ! D11   D(5,4,16,15)           14.3383         estimate D2E/DX2                !
 ! D12   D(5,4,16,27)         -160.6744         estimate D2E/DX2                !
 ! D13   D(4,5,6,7)              3.2036         estimate D2E/DX2                !
 ! D14   D(4,5,6,18)           160.1977         estimate D2E/DX2                !
 ! D15   D(17,5,6,7)          -179.6361         estimate D2E/DX2                !
 ! D16   D(17,5,6,18)          -22.642          estimate D2E/DX2                !
 ! D17   D(5,6,7,8)           -151.5046         estimate D2E/DX2                !
 ! D18   D(5,6,7,9)             92.3156         estimate D2E/DX2                !
 ! D19   D(5,6,7,13)           -36.2206         estimate D2E/DX2                !
 ! D20   D(18,6,7,8)            49.0757         estimate D2E/DX2                !
 ! D21   D(18,6,7,9)           -67.1041         estimate D2E/DX2                !
 ! D22   D(18,6,7,13)          164.3597         estimate D2E/DX2                !
 ! D23   D(6,7,9,10)           167.9388         estimate D2E/DX2                !
 ! D24   D(6,7,9,19)           -71.133          estimate D2E/DX2                !
 ! D25   D(6,7,9,20)            47.8626         estimate D2E/DX2                !
 ! D26   D(8,7,9,10)            52.3331         estimate D2E/DX2                !
 ! D27   D(8,7,9,19)           173.2613         estimate D2E/DX2                !
 ! D28   D(8,7,9,20)           -67.7431         estimate D2E/DX2                !
 ! D29   D(13,7,9,10)          -61.9891         estimate D2E/DX2                !
 ! D30   D(13,7,9,19)           58.9391         estimate D2E/DX2                !
 ! D31   D(13,7,9,20)          177.9348         estimate D2E/DX2                !
 ! D32   D(6,7,13,12)         -165.7132         estimate D2E/DX2                !
 ! D33   D(6,7,13,14)          -49.4008         estimate D2E/DX2                !
 ! D34   D(6,7,13,15)           75.0224         Frozen                          !
 ! D35   D(8,7,13,12)          -50.8217         estimate D2E/DX2                !
 ! D36   D(8,7,13,14)           65.4906         estimate D2E/DX2                !
 ! D37   D(8,7,13,15)         -170.0861         estimate D2E/DX2                !
 ! D38   D(9,7,13,12)           63.7094         estimate D2E/DX2                !
 ! D39   D(9,7,13,14)         -179.9783         estimate D2E/DX2                !
 ! D40   D(9,7,13,15)          -55.555          estimate D2E/DX2                !
 ! D41   D(7,9,10,11)           54.8121         Frozen                          !
 ! D42   D(7,9,10,21)          176.6036         estimate D2E/DX2                !
 ! D43   D(7,9,10,22)          -65.2152         estimate D2E/DX2                !
 ! D44   D(19,9,10,11)         -66.1732         estimate D2E/DX2                !
 ! D45   D(19,9,10,21)          55.6183         estimate D2E/DX2                !
 ! D46   D(19,9,10,22)         173.7995         estimate D2E/DX2                !
 ! D47   D(20,9,10,11)         175.5313         estimate D2E/DX2                !
 ! D48   D(20,9,10,21)         -62.6772         estimate D2E/DX2                !
 ! D49   D(20,9,10,22)          55.504          estimate D2E/DX2                !
 ! D50   D(9,10,11,12)         -52.8217         Frozen                          !
 ! D51   D(9,10,11,23)          67.8683         estimate D2E/DX2                !
 ! D52   D(9,10,11,24)        -174.6181         estimate D2E/DX2                !
 ! D53   D(21,10,11,12)       -174.7062         estimate D2E/DX2                !
 ! D54   D(21,10,11,23)        -54.0161         estimate D2E/DX2                !
 ! D55   D(21,10,11,24)         63.4975         estimate D2E/DX2                !
 ! D56   D(22,10,11,12)         67.4197         estimate D2E/DX2                !
 ! D57   D(22,10,11,23)       -171.8903         estimate D2E/DX2                !
 ! D58   D(22,10,11,24)        -54.3766         estimate D2E/DX2                !
 ! D59   D(10,11,12,13)         56.9663         estimate D2E/DX2                !
 ! D60   D(10,11,12,25)        177.7291         estimate D2E/DX2                !
 ! D61   D(10,11,12,26)        -64.4724         estimate D2E/DX2                !
 ! D62   D(23,11,12,13)        -63.5679         estimate D2E/DX2                !
 ! D63   D(23,11,12,25)         57.1949         estimate D2E/DX2                !
 ! D64   D(23,11,12,26)        174.9935         estimate D2E/DX2                !
 ! D65   D(24,11,12,13)        178.8197         estimate D2E/DX2                !
 ! D66   D(24,11,12,25)        -60.4175         estimate D2E/DX2                !
 ! D67   D(24,11,12,26)         57.381          estimate D2E/DX2                !
 ! D68   D(11,12,13,7)         -60.9447         estimate D2E/DX2                !
 ! D69   D(11,12,13,14)       -179.0835         estimate D2E/DX2                !
 ! D70   D(11,12,13,15)         62.6266         estimate D2E/DX2                !
 ! D71   D(25,12,13,7)         178.3003         estimate D2E/DX2                !
 ! D72   D(25,12,13,14)         60.1615         estimate D2E/DX2                !
 ! D73   D(25,12,13,15)        -58.1284         estimate D2E/DX2                !
 ! D74   D(26,12,13,7)          60.4505         estimate D2E/DX2                !
 ! D75   D(26,12,13,14)        -57.6883         estimate D2E/DX2                !
 ! D76   D(26,12,13,15)       -175.9782         estimate D2E/DX2                !
 ! D77   D(7,13,15,16)         -67.1604         Frozen                          !
 ! D78   D(12,13,15,16)        175.0432         estimate D2E/DX2                !
 ! D79   D(14,13,15,16)         57.8139         estimate D2E/DX2                !
 ! D80   D(13,15,16,4)          18.2737         estimate D2E/DX2                !
 ! D81   D(13,15,16,27)       -166.8522         estimate D2E/DX2                !
 --------------------------------------------------------------------------------
 Trust Radius=3.00D-01 FncErr=1.00D-07 GrdErr=1.00D-07 EigMax=2.50D+02 EigMin=1.00D-04
 Number of steps in this run=     20 maximum allowed number of steps=    162.
 GradGradGradGradGradGradGradGradGradGradGradGradGradGradGradGradGradGrad

                          Input orientation:                          
 ---------------------------------------------------------------------
 Center     Atomic      Atomic             Coordinates (Angstroms)
 Number     Number       Type             X           Y           Z
 ---------------------------------------------------------------------
      1          8           0       -3.610770   -1.375060   -0.281380
      2          7           0       -3.206810   -0.218790   -0.157320
      3          8           0       -3.967790    0.751490   -0.178800
      4          6           0       -1.676240    0.015940   -0.056120
      5          6           0       -1.366070    1.339860    0.255160
      6          7           0       -0.087100    1.762190    0.493490
      7          6           0        1.190430    0.982520    0.415160
      8          1           0        1.879460    1.474560    1.149310
      9          6           0        1.904550    1.049790   -0.957960
     10          6           0        3.328030    0.475230   -0.825960
     11          6           0        3.302730   -0.945450   -0.240360
     12          6           0        2.504440   -0.996500    1.079640
     13          6           0        1.052530   -0.480930    0.883440
     14          1           0        0.538000   -0.527750    1.871700
     15          7           0        0.370920   -1.373440   -0.066060
     16          6           0       -0.884470   -1.208160   -0.320430
     17          1           0       -2.167300    2.089220    0.366360
     18          1           0        0.158700    2.752620    0.421800
     19          1           0        1.331280    0.471460   -1.713650
     20          1           0        1.967390    2.102520   -1.306530
     21          1           0        3.825700    0.463350   -1.820360
     22          1           0        3.924770    1.129900   -0.152180
     23          1           0        2.835350   -1.634430   -0.979680
     24          1           0        4.341980   -1.299560   -0.064540
     25          1           0        2.474360   -2.044950    1.449280
     26          1           0        3.017740   -0.381460    1.848110
     27          1           0       -1.419820   -2.008140   -0.854130
 ---------------------------------------------------------------------
                    Distance matrix (angstroms):
                    1          2          3          4          5
     1  O    0.000000
     2  N    1.231071   0.000000
     3  O    2.158750   1.233286   0.000000
     4  C    2.393330   1.551768   2.409831   0.000000
     5  C    3.563333   2.447009   2.702489   1.394943   0.000000
     6  N    4.781110   3.752389   4.066109   2.424217   1.367819
     7  C    5.393966   4.594192   5.197441   3.061728   2.586307
     8  H    6.349003   5.517686   6.039622   4.027858   3.369141
     9  C    6.062707   5.326943   5.931311   3.834608   3.500394
    10  C    7.201881   6.605519   7.329674   5.083928   4.893974
    11  C    6.926957   6.550499   7.466181   5.074284   5.221674
    12  C    6.276263   5.895191   6.821210   4.448940   4.595562
    13  C    4.889033   4.392479   5.277388   2.928453   3.091866
    14  H    4.750366   4.270361   5.113037   2.985791   3.118758
    15  N    3.987508   3.760545   4.832436   2.474134   3.237640
    16  C    2.731683   2.529569   3.656111   1.481614   2.656247
    17  H    3.808465   2.584905   2.308351   2.172123   1.102667
    18  H    5.633925   4.526733   4.625274   3.329389   2.085326
    19  H    5.466708   4.846944   5.523977   3.464113   3.450511
    20  H    6.652846   5.786321   6.190591   4.381025   3.759319
    21  H    7.813405   7.258596   7.969707   5.795176   5.659552
    22  H    7.942033   7.257990   7.901671   5.711519   5.310649
    23  H    6.489018   6.260033   7.253740   4.891945   5.293691
    24  H    7.956064   7.626330   8.559915   6.160323   6.296871
    25  H    6.361819   6.179945   7.209162   4.872471   5.256592
    26  H    7.032717   6.541654   7.361356   5.081089   4.971742
    27  H    2.351403   2.623099   3.816252   2.190770   3.527395
                    6          7          8          9         10
     6  N    0.000000
     7  C    1.498701   0.000000
     8  H    2.092890   1.120644   0.000000
     9  C    2.565325   1.549178   2.149801   0.000000
    10  C    3.880764   2.523303   2.645507   1.540727   0.000000
    11  C    4.400091   2.934039   3.132623   2.539850   1.536847
    12  C    3.830146   2.466714   2.549822   2.949404   2.544720
    13  C    2.546057   1.542721   2.139729   2.541613   3.002364
    14  H    2.744820   2.197291   2.516070   3.516115   4.008442
    15  N    3.217927   2.540417   3.444404   3.003257   3.569248
    16  C    3.181390   3.105701   4.122673   3.644642   4.564484
    17  H    2.109584   3.535748   4.167383   4.406155   5.850234
    18  H    1.022990   2.048845   2.263564   2.802028   4.097324
    19  H    2.923911   2.193822   3.082734   1.110933   2.185182
    20  H    2.752603   2.195970   2.536378   1.110716   2.174939
    21  H    4.727673   3.494529   3.691793   2.185970   1.112047
    22  H    4.112394   2.796464   2.448665   2.176462   1.112956
    23  H    4.716776   3.391131   3.887434   2.841108   2.171872
    24  H    5.413175   3.920493   3.902970   3.501244   2.181223
    25  H    4.687102   3.447239   3.582016   3.961932   3.500968
    26  H    4.008773   2.693111   2.286660   3.340913   2.825039
    27  H    4.219906   4.167559   5.198867   4.518092   5.358171
                   11         12         13         14         15
    11  C    0.000000
    12  C    1.543461   0.000000
    13  C    2.557754   1.553174   0.000000
    14  H    3.504141   2.171168   1.115164   0.000000
    15  N    2.968007   2.450841   1.470618   2.120854   0.000000
    16  C    4.196197   3.672834   2.393770   2.700336   1.291521
    17  H    6.284788   5.644076   4.152150   4.053792   4.315039
    18  H    4.898888   4.471146   3.386427   3.606509   4.160218
    19  H    2.839865   3.366553   2.780220   3.805581   2.653394
    20  H    3.494277   3.947930   3.508155   4.366076   4.021167
    21  H    2.180508   3.505266   3.986561   5.042079   4.287991
    22  H    2.168360   2.838361   3.452107   4.279498   4.347870
    23  H    1.113432   2.181113   2.824929   3.825301   2.641256
    24  H    1.111911   2.185760   3.519844   4.337624   3.971747
    25  H    2.179445   1.112109   2.188135   2.495962   2.677992
    26  H    2.181974   1.110089   2.191468   2.484163   3.413756
    27  H    4.879396   4.490289   3.385858   3.668073   2.056854
                   16         17         18         19         20
    16  C    0.000000
    17  H    3.604171   0.000000
    18  H    4.162558   2.419390   0.000000
    19  H    3.109941   4.379915   3.337481   0.000000
    20  H    4.479520   4.460314   2.584785   1.797426   0.000000
    21  H    5.218183   6.583407   4.869797   2.496715   2.530655
    22  H    5.350105   6.188901   4.140768   3.098051   2.471811
    23  H    3.801760   6.379961   5.326801   2.689928   3.850322
    24  H    5.233509   7.351206   5.844358   3.862692   4.330746
    25  H    3.887651   6.309444   5.425373   4.200366   5.005299
    26  H    4.540181   5.931651   4.475592   4.032091   4.150319
    27  H    1.100638   4.340125   5.175380   3.802071   5.345595
                   21         22         23         24         25
    21  H    0.000000
    22  H    1.799147   0.000000
    23  H    2.467431   3.084333   0.000000
    24  H    2.541122   2.466581   1.794311   0.000000
    25  H    4.336846   3.840317   2.489716   2.516995   0.000000
    26  H    3.850218   2.666097   3.098322   2.500950   1.794861
    27  H    5.878549   6.237361   4.273394   5.858658   4.524565
                   26         27
    26  H    0.000000
    27  H    5.444275   0.000000
 Symmetry turned off by external request.
 Stoichiometry    C9H13N3O2
 Framework group  C1[X(C9H13N3O2)]
 Deg. of freedom    75
 Full point group                 C1      NOp   1
 Rotational constants (GHZ):           1.6380633           0.4064148           0.3595152
 Standard basis: 6-31G(d) (6D, 7F)
   236 basis functions,   444 primitive gaussians,   236 cartesian basis functions
    52 alpha electrons       52 beta electrons
       nuclear repulsion energy       918.3035983425 Hartrees.
 NAtoms=   27 NActive=   27 NUniq=   27 SFac= 1.00D+00 NAtFMM=   60 NAOKFM=F Big=F
 Integral buffers will be    131072 words long.
 Raffenetti 1 integral format.
 Two-electron integral symmetry is turned off.
 One-electron integrals computed using PRISM.
 NBasis=   236 RedAO= T EigKep=  1.25D-03  NBF=   236
 NBsUse=   236 1.00D-06 EigRej= -1.00D+00 NBFU=   236
 ExpMin= 1.61D-01 ExpMax= 5.48D+03 ExpMxC= 8.25D+02 IAcc=3 IRadAn=         5 AccDes= 0.00D+00
 Harris functional with IExCor=  205 and IRadAn=       5 diagonalized for initial guess.
 HarFok:  IExCor=  205 AccDes= 0.00D+00 IRadAn=         5 IDoV= 1 UseB2=F ITyADJ=14
 ICtDFT=  3500011 ScaDFX=  1.000000  1.000000  1.000000  1.000000
 FoFCou: FMM=F IPFlag=           0 FMFlag=      100000 FMFlg1=           0
         NFxFlg=           0 DoJE=T BraDBF=F KetDBF=T FulRan=T
         wScrn=  0.000000 ICntrl=       500 IOpCl=  0 I1Cent=   200000004 NGrid=           0
         NMat0=    1 NMatS0=      1 NMatT0=    0 NMatD0=    1 NMtDS0=    0 NMtDT0=    0
 Symmetry not used in FoFCou.
 Keep R1 ints in memory in canonical form, NReq=397720213.
 Requested convergence on RMS density matrix=1.00D-08 within 128 cycles.
 Requested convergence on MAX density matrix=1.00D-06.
 Requested convergence on             energy=1.00D-06.
 No special actions if energy rises.
 SCF Done:  E(RHF) =  -661.277724859     A.U. after   16 cycles
            NFock= 16  Conv=0.87D-08     -V/T= 2.0037
 ExpMin= 1.61D-01 ExpMax= 5.48D+03 ExpMxC= 8.25D+02 IAcc=3 IRadAn=         5 AccDes= 0.00D+00
 HarFok:  IExCor=  205 AccDes= 0.00D+00 IRadAn=         5 IDoV=-2 UseB2=F ITyADJ=14
 ICtDFT= 12500011 ScaDFX=  1.000000  1.000000  1.000000  1.000000
 Range of M.O.s used for correlation:    15   236
 NBasis=   236 NAE=    52 NBE=    52 NFC=    14 NFV=     0
 NROrb=    222 NOA=    38 NOB=    38 NVA=   184 NVB=   184
 Fully direct method using O(ONN) memory.
 JobTyp=1 Pass  1:  I=  15 to  52 NPSUse=  4 ParTrn=T ParDer=T DoDerP=T.
 Spin components of T(2) and E(2):
     alpha-alpha T2 =       0.9213047241D-01 E2=     -0.2719077775D+00
     alpha-beta  T2 =       0.5001292547D+00 E2=     -0.1494172115D+01
     beta-beta   T2 =       0.9213047241D-01 E2=     -0.2719077775D+00
 ANorm=    0.1297840591D+01
 E2 =    -0.2037987670D+01 EUMP2 =    -0.66331571252949D+03
          IDoAtm=111111111111111111111111111
          Differentiating once with respect to electric field.
                with respect to dipole field.
          Differentiating once with respect to nuclear coordinates.
 Keep R1 ints in memory in canonical form, NReq=397723379.
          There are     1 degrees of freedom in the 1st order CPHF.  IDoFFX=0 NUNeed=     1.
 LinEq1:  Iter=  0 NonCon=     1 RMS=4.64D-03 Max=1.31D-01 NDo=     1
 AX will form     1 AO Fock derivatives at one time.
 LinEq1:  Iter=  1 NonCon=     1 RMS=1.58D-03 Max=3.15D-02 NDo=     1
 LinEq1:  Iter=  2 NonCon=     1 RMS=6.51D-04 Max=2.15D-02 NDo=     1
 LinEq1:  Iter=  3 NonCon=     1 RMS=2.92D-04 Max=8.45D-03 NDo=     1
 LinEq1:  Iter=  4 NonCon=     1 RMS=9.07D-05 Max=2.37D-03 NDo=     1
 LinEq1:  Iter=  5 NonCon=     1 RMS=3.70D-05 Max=1.71D-03 NDo=     1
 LinEq1:  Iter=  6 NonCon=     1 RMS=1.55D-05 Max=6.25D-04 NDo=     1
 LinEq1:  Iter=  7 NonCon=     1 RMS=5.90D-06 Max=9.15D-05 NDo=     1
 LinEq1:  Iter=  8 NonCon=     1 RMS=2.39D-06 Max=5.09D-05 NDo=     1
 LinEq1:  Iter=  9 NonCon=     1 RMS=8.83D-07 Max=2.41D-05 NDo=     1
 LinEq1:  Iter= 10 NonCon=     1 RMS=4.28D-07 Max=1.31D-05 NDo=     1
 LinEq1:  Iter= 11 NonCon=     1 RMS=1.58D-07 Max=5.61D-06 NDo=     1
 LinEq1:  Iter= 12 NonCon=     1 RMS=5.61D-08 Max=7.71D-07 NDo=     1
 LinEq1:  Iter= 13 NonCon=     1 RMS=1.85D-08 Max=3.54D-07 NDo=     1
 LinEq1:  Iter= 14 NonCon=     1 RMS=5.98D-09 Max=1.46D-07 NDo=     1
 LinEq1:  Iter= 15 NonCon=     1 RMS=2.19D-09 Max=6.10D-08 NDo=     1
 LinEq1:  Iter= 16 NonCon=     1 RMS=7.10D-10 Max=1.16D-08 NDo=     1
 LinEq1:  Iter= 17 NonCon=     1 RMS=2.14D-10 Max=3.00D-09 NDo=     1
 LinEq1:  Iter= 18 NonCon=     0 RMS=6.61D-11 Max=8.75D-10 NDo=     1
 Linear equations converged to 1.000D-10 1.000D-09 after    18 iterations.
 End of Minotr F.D. properties file   721 does not exist.
 End of Minotr F.D. properties file   722 does not exist.
 End of Minotr F.D. properties file   788 does not exist.

 **********************************************************************

            Population analysis using the SCF Density.

 **********************************************************************

 Alpha  occ. eigenvalues --  -20.59414 -20.58995 -15.84587 -15.63434 -15.56520
 Alpha  occ. eigenvalues --  -11.35921 -11.30595 -11.30222 -11.30128 -11.27858
 Alpha  occ. eigenvalues --  -11.24680 -11.23917 -11.23430 -11.22880  -1.57958
 Alpha  occ. eigenvalues --   -1.37316  -1.28666  -1.22662  -1.13248  -1.08171
 Alpha  occ. eigenvalues --   -1.01857  -1.00550  -0.93541  -0.88481  -0.84877
 Alpha  occ. eigenvalues --   -0.81647  -0.77627  -0.77126  -0.74539  -0.70550
 Alpha  occ. eigenvalues --   -0.69897  -0.69261  -0.67297  -0.64388  -0.63284
 Alpha  occ. eigenvalues --   -0.62000  -0.60654  -0.57433  -0.56525  -0.54853
 Alpha  occ. eigenvalues --   -0.54082  -0.50711  -0.49763  -0.48394  -0.47607
 Alpha  occ. eigenvalues --   -0.47361  -0.46240  -0.45585  -0.43663  -0.42193
 Alpha  occ. eigenvalues --   -0.39527  -0.33534
 Alpha virt. eigenvalues --    0.07604   0.11699   0.17695   0.21382   0.23582
 Alpha virt. eigenvalues --    0.24415   0.26070   0.27829   0.28550   0.28813
 Alpha virt. eigenvalues --    0.29482   0.31140   0.31822   0.32310   0.33253
 Alpha virt. eigenvalues --    0.33853   0.34342   0.35421   0.37568   0.38529
 Alpha virt. eigenvalues --    0.40394   0.41411   0.44379   0.45161   0.45228
 Alpha virt. eigenvalues --    0.46863   0.49942   0.53624   0.57385   0.59329
 Alpha virt. eigenvalues --    0.63367   0.67515   0.69037   0.72207   0.73795
 Alpha virt. eigenvalues --    0.74219   0.75754   0.75803   0.77885   0.78829
 Alpha virt. eigenvalues --    0.81226   0.82785   0.85143   0.85454   0.87948
 Alpha virt. eigenvalues --    0.89056   0.89953   0.90904   0.91950   0.94150
 Alpha virt. eigenvalues --    0.95192   0.97096   0.98964   1.00590   1.02173
 Alpha virt. eigenvalues --    1.02985   1.04681   1.07039   1.07069   1.08486
 Alpha virt. eigenvalues --    1.10040   1.10454   1.11420   1.12143   1.13203
 Alpha virt. eigenvalues --    1.13618   1.14379   1.15703   1.16128   1.16591
 Alpha virt. eigenvalues --    1.17975   1.20158   1.21449   1.21989   1.22859
 Alpha virt. eigenvalues --    1.23297   1.24346   1.25513   1.27496   1.27845
 Alpha virt. eigenvalues --    1.28872   1.32342   1.33744   1.37463   1.39348
 Alpha virt. eigenvalues --    1.41742   1.46345   1.48411   1.51336   1.52677
 Alpha virt. eigenvalues --    1.54762   1.56279   1.59374   1.62653   1.64803
 Alpha virt. eigenvalues --    1.67826   1.69932   1.72821   1.73211   1.77323
 Alpha virt. eigenvalues --    1.77700   1.81870   1.84202   1.89076   1.91325
 Alpha virt. eigenvalues --    1.93646   1.93736   1.97526   1.98888   2.01279
 Alpha virt. eigenvalues --    2.02895   2.04135   2.05864   2.08692   2.11884
 Alpha virt. eigenvalues --    2.12778   2.14255   2.17170   2.18189   2.20012
 Alpha virt. eigenvalues --    2.20715   2.22533   2.23401   2.24968   2.25938
 Alpha virt. eigenvalues --    2.30030   2.31744   2.32485   2.35601   2.35994
 Alpha virt. eigenvalues --    2.39260   2.40754   2.42231   2.44343   2.46289
 Alpha virt. eigenvalues --    2.48544   2.50252   2.51530   2.55145   2.57514
 Alpha virt. eigenvalues --    2.60366   2.63078   2.64731   2.67944   2.68382
 Alpha virt. eigenvalues --    2.69440   2.69899   2.74116   2.79119   2.81493
 Alpha virt. eigenvalues --    2.84792   2.86408   2.89085   2.90572   2.94672
 Alpha virt. eigenvalues --    2.97315   2.97678   3.02160   3.04825   3.05856
 Alpha virt. eigenvalues --    3.08035   3.13155   3.17850   3.22593   3.27076
 Alpha virt. eigenvalues --    3.29354   3.32955   3.37334   3.42143   3.61772
 Alpha virt. eigenvalues --    4.09001   4.22329   4.32625   4.36098   4.42479
 Alpha virt. eigenvalues --    4.51591   4.59004   4.60015   4.70737   4.77272
 Alpha virt. eigenvalues --    4.97210   4.99171   5.04032   5.09115
          Condensed to atoms (all electrons):
               1          2          3          4          5          6
     1  O    8.306064   0.309269  -0.093425  -0.074461   0.003782  -0.000016
     2  N    0.309269   5.698237   0.304148   0.266382  -0.053585   0.000930
     3  O   -0.093425   0.304148   8.337102  -0.083593   0.007861   0.000527
     4  C   -0.074461   0.266382  -0.083593   5.231819   0.579719  -0.056477
     5  C    0.003782  -0.053585   0.007861   0.579719   4.683137   0.304913
     6  N   -0.000016   0.000930   0.000527  -0.056477   0.304913   7.177806
     7  C    0.000002  -0.000129   0.000001   0.003299  -0.028142   0.203469
     8  H   -0.000000   0.000002  -0.000000  -0.000084   0.002268  -0.047288
     9  C    0.000000  -0.000006   0.000000   0.000239   0.001824  -0.058800
    10  C   -0.000000   0.000000  -0.000000  -0.000012  -0.000072   0.003389
    11  C   -0.000000  -0.000000  -0.000000  -0.000025   0.000019  -0.000150
    12  C   -0.000000   0.000001  -0.000000  -0.000109  -0.000196   0.003505
    13  C   -0.000017   0.000001  -0.000002  -0.009541  -0.000092  -0.044026
    14  H   -0.000001  -0.000046   0.000001   0.002153   0.003959  -0.005088
    15  N    0.000368   0.001791  -0.000017  -0.066180  -0.006003   0.002770
    16  C    0.002664  -0.028316   0.002115   0.327129  -0.039671   0.000741
    17  H    0.000179  -0.004876   0.013764  -0.022420   0.372844  -0.030042
    18  H    0.000000  -0.000046   0.000010   0.001469  -0.024826   0.328643
    19  H    0.000000   0.000001   0.000000  -0.000886   0.000839   0.000264
    20  H    0.000000  -0.000000   0.000000  -0.000043   0.000050  -0.001195
    21  H   -0.000000  -0.000000  -0.000000   0.000000   0.000001  -0.000062
    22  H   -0.000000   0.000000  -0.000000  -0.000000  -0.000002  -0.000095
    23  H    0.000000  -0.000000   0.000000   0.000026   0.000001  -0.000023
    24  H    0.000000   0.000000   0.000000   0.000000  -0.000000   0.000004
    25  H    0.000000  -0.000000   0.000000   0.000022   0.000001  -0.000067
    26  H    0.000000  -0.000000   0.000000   0.000003   0.000003  -0.000065
    27  H    0.006116  -0.000193   0.000019  -0.060149   0.001347   0.000017
               7          8          9         10         11         12
     1  O    0.000002  -0.000000   0.000000  -0.000000  -0.000000  -0.000000
     2  N   -0.000129   0.000002  -0.000006   0.000000  -0.000000   0.000001
     3  O    0.000001  -0.000000   0.000000  -0.000000  -0.000000  -0.000000
     4  C    0.003299  -0.000084   0.000239  -0.000012  -0.000025  -0.000109
     5  C   -0.028142   0.002268   0.001824  -0.000072   0.000019  -0.000196
     6  N    0.203469  -0.047288  -0.058800   0.003389  -0.000150   0.003505
     7  C    5.023402   0.414905   0.340431  -0.049072  -0.007861  -0.063604
     8  H    0.414905   0.543129  -0.058990   0.000961  -0.000241  -0.003248
     9  C    0.340431  -0.058990   5.178356   0.318881  -0.053273  -0.005624
    10  C   -0.049072   0.000961   0.318881   5.126897   0.332662  -0.060594
    11  C   -0.007861  -0.000241  -0.053273   0.332662   5.125154   0.330471
    12  C   -0.063604  -0.003248  -0.005624  -0.060594   0.330471   5.137814
    13  C    0.322804  -0.038006  -0.053124  -0.001333  -0.048047   0.367386
    14  H   -0.041299  -0.000866   0.003824  -0.000382   0.003982  -0.040868
    15  N   -0.060309   0.003845  -0.011575   0.001396  -0.007840  -0.073649
    16  C   -0.000050  -0.000155  -0.000007  -0.000082   0.000046   0.002195
    17  H    0.001237  -0.000040  -0.000043   0.000001   0.000000   0.000000
    18  H   -0.028789  -0.003315   0.000900  -0.000118   0.000010  -0.000136
    19  H   -0.035336   0.004044   0.387185  -0.033238  -0.002166   0.000563
    20  H   -0.041727  -0.001730   0.397323  -0.037199   0.004111  -0.000366
    21  H    0.004054  -0.000074  -0.035884   0.400124  -0.035868   0.004238
    22  H   -0.004397   0.003539  -0.045655   0.395832  -0.045506  -0.001276
    23  H    0.000449   0.000036  -0.002016  -0.040156   0.396709  -0.036688
    24  H   -0.000142  -0.000102   0.004393  -0.038465   0.400259  -0.037889
    25  H    0.005002  -0.000006  -0.000382   0.004102  -0.033711   0.395337
    26  H   -0.004461   0.001530   0.001070  -0.002467  -0.042281   0.394386
    27  H   -0.000343   0.000007  -0.000038   0.000003   0.000006  -0.000027
              13         14         15         16         17         18
     1  O   -0.000017  -0.000001   0.000368   0.002664   0.000179   0.000000
     2  N    0.000001  -0.000046   0.001791  -0.028316  -0.004876  -0.000046
     3  O   -0.000002   0.000001  -0.000017   0.002115   0.013764   0.000010
     4  C   -0.009541   0.002153  -0.066180   0.327129  -0.022420   0.001469
     5  C   -0.000092   0.003959  -0.006003  -0.039671   0.372844  -0.024826
     6  N   -0.044026  -0.005088   0.002770   0.000741  -0.030042   0.328643
     7  C    0.322804  -0.041299  -0.060309  -0.000050   0.001237  -0.028789
     8  H   -0.038006  -0.000866   0.003845  -0.000155  -0.000040  -0.003315
     9  C   -0.053124   0.003824  -0.011575  -0.000007  -0.000043   0.000900
    10  C   -0.001333  -0.000382   0.001396  -0.000082   0.000001  -0.000118
    11  C   -0.048047   0.003982  -0.007840   0.000046   0.000000   0.000010
    12  C    0.367386  -0.040868  -0.073649   0.002195   0.000000  -0.000136
    13  C    5.016141   0.404806   0.247902  -0.067525  -0.000042   0.003577
    14  H    0.404806   0.516735  -0.034976  -0.005593   0.000035  -0.000002
    15  N    0.247902  -0.034976   6.952295   0.578666  -0.000069  -0.000115
    16  C   -0.067525  -0.005593   0.578666   4.698390   0.000991  -0.000152
    17  H   -0.000042   0.000035  -0.000069   0.000991   0.366288  -0.001783
    18  H    0.003577  -0.000002  -0.000115  -0.000152  -0.001783   0.327954
    19  H   -0.006083   0.000067   0.006789   0.001940   0.000008  -0.000124
    20  H    0.003872  -0.000053   0.000072  -0.000033  -0.000004   0.002506
    21  H   -0.000400   0.000009  -0.000033   0.000003  -0.000000   0.000000
    22  H    0.000347  -0.000042   0.000006  -0.000001   0.000000   0.000002
    23  H   -0.005950   0.000008   0.006880   0.000087   0.000000   0.000000
    24  H    0.004184  -0.000061   0.000028   0.000004   0.000000  -0.000000
    25  H   -0.034265  -0.002717   0.001125  -0.000050  -0.000000   0.000002
    26  H   -0.044907  -0.000902   0.004161  -0.000038   0.000000  -0.000001
    27  H    0.004293  -0.000121  -0.036869   0.399795  -0.000055   0.000001
              19         20         21         22         23         24
     1  O    0.000000   0.000000  -0.000000  -0.000000   0.000000   0.000000
     2  N    0.000001  -0.000000  -0.000000   0.000000  -0.000000   0.000000
     3  O    0.000000   0.000000  -0.000000  -0.000000   0.000000   0.000000
     4  C   -0.000886  -0.000043   0.000000  -0.000000   0.000026   0.000000
     5  C    0.000839   0.000050   0.000001  -0.000002   0.000001  -0.000000
     6  N    0.000264  -0.001195  -0.000062  -0.000095  -0.000023   0.000004
     7  C   -0.035336  -0.041727   0.004054  -0.004397   0.000449  -0.000142
     8  H    0.004044  -0.001730  -0.000074   0.003539   0.000036  -0.000102
     9  C    0.387185   0.397323  -0.035884  -0.045655  -0.002016   0.004393
    10  C   -0.033238  -0.037199   0.400124   0.395832  -0.040156  -0.038465
    11  C   -0.002166   0.004111  -0.035868  -0.045506   0.396709   0.400259
    12  C    0.000563  -0.000366   0.004238  -0.001276  -0.036688  -0.037889
    13  C   -0.006083   0.003872  -0.000400   0.000347  -0.005950   0.004184
    14  H    0.000067  -0.000053   0.000009  -0.000042   0.000008  -0.000061
    15  N    0.006789   0.000072  -0.000033   0.000006   0.006880   0.000028
    16  C    0.001940  -0.000033   0.000003  -0.000001   0.000087   0.000004
    17  H    0.000008  -0.000004  -0.000000   0.000000   0.000000   0.000000
    18  H   -0.000124   0.002506   0.000000   0.000002   0.000000  -0.000000
    19  H    0.507493  -0.023713  -0.002572   0.003771   0.001675  -0.000072
    20  H   -0.023713   0.547853  -0.002670  -0.002915  -0.000049  -0.000090
    21  H   -0.002572  -0.002670   0.525886  -0.024689  -0.002822  -0.002085
    22  H    0.003771  -0.002915  -0.024689   0.569190   0.004058  -0.003583
    23  H    0.001675  -0.000049  -0.002822   0.004058   0.509233  -0.024884
    24  H   -0.000072  -0.000090  -0.002085  -0.003583  -0.024884   0.540830
    25  H   -0.000027   0.000011  -0.000086  -0.000083  -0.002057  -0.002410
    26  H    0.000023  -0.000035  -0.000073   0.002461   0.003818  -0.002722
    27  H    0.000060   0.000000  -0.000000   0.000000  -0.000018  -0.000000
              25         26         27
     1  O    0.000000   0.000000   0.006116
     2  N   -0.000000  -0.000000  -0.000193
     3  O    0.000000   0.000000   0.000019
     4  C    0.000022   0.000003  -0.060149
     5  C    0.000001   0.000003   0.001347
     6  N   -0.000067  -0.000065   0.000017
     7  C    0.005002  -0.004461  -0.000343
     8  H   -0.000006   0.001530   0.000007
     9  C   -0.000382   0.001070  -0.000038
    10  C    0.004102  -0.002467   0.000003
    11  C   -0.033711  -0.042281   0.000006
    12  C    0.395337   0.394386  -0.000027
    13  C   -0.034265  -0.044907   0.004293
    14  H   -0.002717  -0.000902  -0.000121
    15  N    0.001125   0.004161  -0.036869
    16  C   -0.000050  -0.000038   0.399795
    17  H   -0.000000   0.000000  -0.000055
    18  H    0.000002  -0.000001   0.000001
    19  H   -0.000027   0.000023   0.000060
    20  H    0.000011  -0.000035   0.000000
    21  H   -0.000086  -0.000073  -0.000000
    22  H   -0.000083   0.002461   0.000000
    23  H   -0.002057   0.003818  -0.000018
    24  H   -0.002410  -0.002722  -0.000000
    25  H    0.508491  -0.023170  -0.000012
    26  H   -0.023170   0.562003   0.000001
    27  H   -0.000012   0.000001   0.429017
 Mulliken charges:
               1
     1  O   -0.460524
     2  N    0.506435
     3  O   -0.488511
     4  C   -0.038279
     5  C    0.190020
     6  N   -0.783582
     7  C    0.046606
     8  H    0.179881
     9  C   -0.309008
    10  C   -0.321057
    11  C   -0.316459
    12  C   -0.311619
    13  C   -0.021952
    14  H    0.197441
    15  N   -0.510458
    16  C    0.126907
    17  H    0.304026
    18  H    0.394332
    19  H    0.189495
    20  H    0.156025
    21  H    0.173003
    22  H    0.149038
    23  H    0.191684
    24  H    0.162801
    25  H    0.184951
    26  H    0.151661
    27  H    0.257145
 Sum of Mulliken charges =  -0.00000
 Mulliken charges with hydrogens summed into heavy atoms:
               1
     1  O   -0.460524
     2  N    0.506435
     3  O   -0.488511
     4  C   -0.038279
     5  C    0.494047
     6  N   -0.389251
     7  C    0.226487
     9  C    0.036511
    10  C    0.000983
    11  C    0.038026
    12  C    0.024993
    13  C    0.175489
    15  N   -0.510458
    16  C    0.384052
 Electronic spatial extent (au):  <R**2>=           3097.9573
 Charge=             -0.0000 electrons
 Dipole moment (field-independent basis, Debye):
    X=              5.4644    Y=              4.4577    Z=              0.9895  Tot=              7.1211
 Quadrupole moment (field-independent basis, Debye-Ang):
   XX=           -105.5868   YY=            -79.5913   ZZ=            -82.4962
   XY=             -1.2537   XZ=             -0.9539   YZ=              0.7951
 Traceless Quadrupole moment (field-independent basis, Debye-Ang):
   XX=            -16.3621   YY=              9.6335   ZZ=              6.7286
   XY=             -1.2537   XZ=             -0.9539   YZ=              0.7951
 Octapole moment (field-independent basis, Debye-Ang**2):
  XXX=             99.6527  YYY=             35.3967  ZZZ=             -2.0917  XYY=             -3.9230
  XXY=              9.7129  XXZ=              9.6479  XZZ=             -7.7785  YZZ=             -2.9981
  YYZ=              3.3370  XYZ=             -1.8636
 Hexadecapole moment (field-independent basis, Debye-Ang**3):
 XXXX=          -3501.3093 YYYY=           -625.9787 ZZZZ=           -303.8500 XXXY=            -20.7370
 XXXZ=            -44.8840 YYYX=             -2.1271 YYYZ=             19.2510 ZZZX=            -12.0051
 ZZZY=              8.7003 XXYY=           -646.8101 XXZZ=           -538.0957 YYZZ=           -167.4166
 XXYZ=              7.0357 YYXZ=             -1.2789 ZZXY=              6.7395
 N-N= 9.183035983425D+02 E-N=-3.382699622820D+03  KE= 6.588499398666D+02
 Calling FoFJK, ICntrl=  10002127 FMM=F ISym2X=0 I1Cent= 0 IOpClX= 0 NMat=1 NMatS=1 NMatT=0.
 -------------------------------------------------------------------
 Center     Atomic                   Forces (Hartrees/Bohr)
 Number     Number              X              Y              Z
 -------------------------------------------------------------------
      1        8           0.003970694   -0.019997851    0.001499714
      2        7           0.034448715    0.010425814   -0.005771122
      3        8          -0.001927457    0.017431447    0.004185535
      4        6          -0.041939845   -0.000222890    0.007475494
      5        6           0.023025828   -0.023452143   -0.003886116
      6        7           0.018036776   -0.002160420   -0.006274917
      7        6          -0.005976825    0.005285782    0.002425319
      8        1          -0.011202328   -0.001832198   -0.007196243
      9        6          -0.003923754    0.000471551   -0.002252146
     10        6           0.002839843   -0.001027114    0.000765610
     11        6          -0.000520785   -0.004437360   -0.002182156
     12        6           0.000590380   -0.008740981   -0.003558405
     13        6           0.006570186    0.000935483    0.000438402
     14        1           0.000622123    0.003405535   -0.010601153
     15        7           0.005466258   -0.008383620    0.011089854
     16        6          -0.006775523    0.025959605   -0.000411653
     17        1           0.007896361   -0.009178973   -0.003574911
     18        1          -0.016552619   -0.002381667    0.003626175
     19        1           0.003244105    0.005810038    0.007396857
     20        1          -0.003122094   -0.007643871    0.002685694
     21        1          -0.004028717    0.002326453    0.009771348
     22        1          -0.004267968   -0.003950144   -0.007245541
     23        1           0.004095054    0.006003380    0.009216066
     24        1          -0.009483467    0.002490060   -0.001854411
     25        1          -0.001268458    0.010725104   -0.002504642
     26        1          -0.004814110   -0.004729872   -0.004262156
     27        1           0.004997630    0.006868854    0.000999503
 -------------------------------------------------------------------
 Cartesian Forces:  Max     0.041939845 RMS     0.010052238

 GradGradGradGradGradGradGradGradGradGradGradGradGradGradGradGradGradGrad
 Berny optimization.
 FormGI is forming the generalized inverse of G from B-inverse, IUseBI=4.
 Internal  Forces:  Max     0.037176713 RMS     0.007035220
 Search for a local minimum.
 Step number   1 out of a maximum of   20
 All quantities printed in internal units (Hartrees-Bohrs-Radians)
 Mixed Optimization -- RFO/linear search
 Second derivative matrix not updated -- first step.
 ITU=  0
     Eigenvalues ---    0.00243   0.00767   0.01064   0.01173   0.01232
     Eigenvalues ---    0.01432   0.01533   0.01605   0.02007   0.02051
     Eigenvalues ---    0.02140   0.02650   0.03649   0.04517   0.04705
     Eigenvalues ---    0.04836   0.05055   0.05141   0.05296   0.05840
     Eigenvalues ---    0.06291   0.07275   0.07698   0.07713   0.07847
     Eigenvalues ---    0.08003   0.08019   0.08048   0.10465   0.11745
     Eigenvalues ---    0.12294   0.13409   0.15132   0.15747   0.15972
     Eigenvalues ---    0.15999   0.20161   0.22138   0.24999   0.25000
     Eigenvalues ---    0.25000   0.25177   0.25922   0.26662   0.27501
     Eigenvalues ---    0.28005   0.28080   0.28317   0.31116   0.31499
     Eigenvalues ---    0.32059   0.32239   0.32289   0.32378   0.32384
     Eigenvalues ---    0.32398   0.32501   0.32524   0.32591   0.33389
     Eigenvalues ---    0.33420   0.33612   0.34810   0.43864   0.44693
     Eigenvalues ---    0.50045   0.67535   0.89731   0.906421000.00000
     Eigenvalues --- 1000.000001000.000001000.000001000.000001000.00000
     Eigenvalues --- 1000.000001000.000001000.000001000.000001000.00000
     Eigenvalues --- 1000.000001000.000001000.000001000.000001000.00000
     Eigenvalues --- 1000.000001000.000001000.000001000.000001000.00000
     Eigenvalues --- 1000.000001000.000001000.000001000.000001000.00000
     Eigenvalues --- 1000.000001000.000001000.000001000.000001000.00000
     Eigenvalues --- 1000.000001000.000001000.000001000.000001000.00000
     Eigenvalues --- 1000.000001000.000001000.000001000.000001000.00000
     Eigenvalues --- 1000.000001000.000001000.000001000.000001000.00000
     Eigenvalues --- 1000.000001000.000001000.000001000.000001000.00000
     Eigenvalues --- 1000.000001000.000001000.000001000.000001000.00000
     Eigenvalues --- 1000.000001000.000001000.000001000.000001000.00000
     Eigenvalues --- 1000.000001000.000001000.000001000.000001000.00000
     Eigenvalues --- 1000.000001000.000001000.000001000.000001000.00000
     Eigenvalues --- 1000.000001000.000001000.000001000.000001000.00000
     Eigenvalues --- 1000.000001000.000001000.000001000.000001000.00000
     Eigenvalues --- 1000.000001000.000001000.000001000.000001000.00000
     Eigenvalues --- 1000.000001000.000001000.000001000.000001000.00000
     Eigenvalues --- 1000.00000
 RFO step:  Lambda=-2.48551359D-02 EMin= 2.43469268D-03
 Linear search not attempted -- first point.
 Iteration  1 RMS(Cart)=  0.05699222 RMS(Int)=  0.00162080
 Iteration  2 RMS(Cart)=  0.00175921 RMS(Int)=  0.00037856
 Iteration  3 RMS(Cart)=  0.00000363 RMS(Int)=  0.00037855
 Iteration  4 RMS(Cart)=  0.00000001 RMS(Int)=  0.00037855
 Iteration  1 RMS(Cart)=  0.00001803 RMS(Int)=  0.00002200
 Iteration  2 RMS(Cart)=  0.00001247 RMS(Int)=  0.00002368
 Iteration  3 RMS(Cart)=  0.00000949 RMS(Int)=  0.00002681
 Iteration  4 RMS(Cart)=  0.00000772 RMS(Int)=  0.00003005
 Iteration  5 RMS(Cart)=  0.00000650 RMS(Int)=  0.00003302
 Iteration  6 RMS(Cart)=  0.00000554 RMS(Int)=  0.00003565
 Iteration  7 RMS(Cart)=  0.00000474 RMS(Int)=  0.00003794
 Iteration  8 RMS(Cart)=  0.00000405 RMS(Int)=  0.00003992
 Iteration  9 RMS(Cart)=  0.00000345 RMS(Int)=  0.00004163
 Iteration 10 RMS(Cart)=  0.00000294 RMS(Int)=  0.00004310
 Iteration 11 RMS(Cart)=  0.00000249 RMS(Int)=  0.00004436
 Iteration 12 RMS(Cart)=  0.00000212 RMS(Int)=  0.00004543
 Iteration 13 RMS(Cart)=  0.00000180 RMS(Int)=  0.00004634
 Iteration 14 RMS(Cart)=  0.00000152 RMS(Int)=  0.00004713
 Iteration 15 RMS(Cart)=  0.00000129 RMS(Int)=  0.00004779
 Iteration 16 RMS(Cart)=  0.00000109 RMS(Int)=  0.00004835
 Iteration 17 RMS(Cart)=  0.00000092 RMS(Int)=  0.00004883
 Variable       Old X    -DE/DX   Delta X   Delta X   Delta X     New X
                                 (Linear)    (Quad)   (Total)
    R1        2.32639   0.01733   0.00000   0.01861   0.01861   2.34499
    R2        2.33057   0.01483   0.00000   0.01608   0.01608   2.34666
    R3        2.93242  -0.03718   0.00000  -0.12398  -0.12398   2.80844
    R4        2.63606  -0.02991   0.00000  -0.06906  -0.06886   2.56720
    R5        2.79984  -0.02196   0.00000  -0.07042  -0.07025   2.72960
    R6        2.58480  -0.02044   0.00000  -0.03913  -0.03902   2.54578
    R7        2.08374  -0.01234   0.00000  -0.03439  -0.03439   2.04935
    R8        2.83213  -0.02294   0.00000  -0.05726  -0.05733   2.77480
    R9        1.93317  -0.00654   0.00000  -0.01410  -0.01410   1.91907
   R10        2.11771  -0.01241   0.00000  -0.03651  -0.03651   2.08120
   R11        2.92752  -0.01256   0.00000  -0.04202  -0.04201   2.88552
   R12        2.91532  -0.00643   0.00000  -0.00855  -0.00847   2.90685
   R13        2.91155  -0.00458   0.00000  -0.01476  -0.01479   2.89677
   R14        2.09936  -0.00973   0.00000  -0.02781  -0.02781   2.07155
   R15        2.09895  -0.00826   0.00000  -0.02361  -0.02361   2.07534
   R16        2.90422  -0.00200   0.00000  -0.00755  -0.00760   2.89662
   R17        2.10146  -0.01057   0.00000  -0.03030  -0.03030   2.07116
   R18        2.10318  -0.00900   0.00000  -0.02588  -0.02588   2.07731
   R19        2.91672  -0.00901   0.00000  -0.02896  -0.02897   2.88775
   R20        2.10408  -0.01155   0.00000  -0.03327  -0.03327   2.07081
   R21        2.10121  -0.00995   0.00000  -0.02852  -0.02852   2.07269
   R22        2.93507  -0.01090   0.00000  -0.03668  -0.03665   2.89842
   R23        2.10158  -0.01091   0.00000  -0.03129  -0.03129   2.07029
   R24        2.09776  -0.00780   0.00000  -0.02223  -0.02223   2.07553
   R25        2.10735  -0.00982   0.00000  -0.02844  -0.02844   2.07891
   R26        2.77906  -0.00973   0.00000  -0.01811  -0.01845   2.76061
   R27        2.44062  -0.00024   0.00000  -0.00189  -0.00196   2.43866
   R28        2.07990  -0.00791   0.00000  -0.02191  -0.02191   2.05800
    A1        2.13496   0.01559   0.00000   0.05856   0.05641   2.19137
    A2        2.06270  -0.00866   0.00000  -0.02965  -0.03180   2.03090
    A3        2.08373  -0.00661   0.00000  -0.02221  -0.02435   2.05937
    A4        1.95782   0.00303   0.00000  -0.00714  -0.00720   1.95062
    A5        1.97196   0.00692   0.00000   0.00701   0.00695   1.97890
    A6        2.35338  -0.00996   0.00000   0.00000   0.00000   2.35338
    A7        2.14103   0.01825   0.00000   0.04402   0.04448   2.18552
    A8        2.10125  -0.01104   0.00000  -0.03195  -0.03223   2.06902
    A9        2.03983  -0.00716   0.00000  -0.01139  -0.01168   2.02815
   A10        2.24890  -0.00711   0.00000  -0.02598  -0.02595   2.22295
   A11        2.10760  -0.01046   0.00000  -0.05901  -0.05972   2.04788
   A12        1.87045   0.01764   0.00000   0.09796   0.09805   1.96850
   A13        1.83533  -0.00181   0.00000  -0.01643  -0.01618   1.81915
   A14        2.00058  -0.00027   0.00000  -0.01326  -0.01356   1.98702
   A15        1.98388  -0.00018   0.00000  -0.00567  -0.00599   1.97789
   A16        1.85269   0.00264   0.00000   0.02733   0.02723   1.87992
   A17        1.84690   0.00134   0.00000   0.02386   0.02347   1.87038
   A18        1.92991  -0.00132   0.00000  -0.00973  -0.00951   1.92040
   A19        1.91108   0.00009   0.00000  -0.00548  -0.00556   1.90553
   A20        1.92032  -0.00066   0.00000  -0.01269  -0.01269   1.90763
   A21        1.92346  -0.00166   0.00000  -0.00633  -0.00634   1.91712
   A22        1.91867  -0.00044   0.00000   0.00476   0.00469   1.92336
   A23        1.90505   0.00313   0.00000   0.02550   0.02549   1.93054
   A24        1.88507  -0.00044   0.00000  -0.00537  -0.00560   1.87947
   A25        1.94138  -0.00131   0.00000   0.00430   0.00423   1.94562
   A26        1.91861  -0.00063   0.00000  -0.00693  -0.00694   1.91167
   A27        1.90486   0.00044   0.00000  -0.00269  -0.00275   1.90210
   A28        1.91582   0.00091   0.00000   0.00729   0.00732   1.92314
   A29        1.89854   0.00189   0.00000   0.01165   0.01167   1.91021
   A30        1.88355  -0.00128   0.00000  -0.01407  -0.01415   1.86940
   A31        1.94439   0.00075   0.00000   0.00525   0.00532   1.94971
   A32        1.90278   0.00046   0.00000   0.00655   0.00654   1.90932
   A33        1.91693   0.00053   0.00000   0.00496   0.00491   1.92184
   A34        1.90741  -0.00129   0.00000  -0.01532  -0.01536   1.89206
   A35        1.91521  -0.00044   0.00000   0.00080   0.00072   1.91593
   A36        1.87576  -0.00005   0.00000  -0.00260  -0.00264   1.87313
   A37        1.94386  -0.00278   0.00000  -0.01787  -0.01789   1.92598
   A38        1.90649   0.00234   0.00000   0.01605   0.01590   1.92239
   A39        1.91193   0.00150   0.00000   0.01384   0.01380   1.92573
   A40        1.90673   0.00019   0.00000  -0.00524  -0.00512   1.90161
   A41        1.91323  -0.00042   0.00000  -0.00363  -0.00354   1.90969
   A42        1.88047  -0.00075   0.00000  -0.00265  -0.00284   1.87763
   A43        1.84385   0.00471   0.00000   0.01956   0.01958   1.86343
   A44        1.92844  -0.00371   0.00000  -0.02525  -0.02567   1.90277
   A45        2.00552  -0.00003   0.00000   0.01828   0.01873   2.02425
   A46        1.88118   0.00222   0.00000   0.02983   0.03003   1.91121
   A47        1.88954  -0.00399   0.00000  -0.03302  -0.03315   1.85639
   A48        1.91011   0.00106   0.00000  -0.00728  -0.00710   1.90301
   A49        2.09441  -0.00679   0.00000  -0.02075  -0.02137   2.07304
   A50        2.20191   0.00594   0.00000  -0.00502  -0.00500   2.19690
   A51        2.01205  -0.00254   0.00000   0.00308   0.00277   2.01482
   A52        2.06608  -0.00336   0.00000  -0.00081  -0.00112   2.06496
    D1       -3.00469   0.00218   0.00000  -0.01430  -0.01439  -3.01909
    D2        0.14414   0.00319   0.00000   0.00000  -0.00000   0.14414
    D3        0.19976  -0.00395   0.00000  -0.13358  -0.13357   0.06619
    D4       -2.93460  -0.00295   0.00000  -0.11928  -0.11918  -3.05377
    D5        3.05495   0.00162   0.00000   0.01355   0.01352   3.06847
    D6       -0.03539   0.00070   0.00000  -0.00222  -0.00241  -0.03780
    D7       -0.09604   0.00043   0.00000  -0.00498  -0.00508  -0.10112
    D8        3.09681  -0.00048   0.00000  -0.02075  -0.02101   3.07579
    D9       -2.90079   0.00078   0.00000  -0.00375  -0.00378  -2.90458
   D10        0.32784   0.00032   0.00000   0.03436   0.03424   0.36209
   D11        0.25025   0.00199   0.00000   0.01494   0.01510   0.26535
   D12       -2.80430   0.00153   0.00000   0.05306   0.05312  -2.75118
   D13        0.05591  -0.00053   0.00000  -0.01685  -0.01669   0.03922
   D14        2.79598   0.00336   0.00000   0.04781   0.04643   2.84241
   D15       -3.13524   0.00021   0.00000  -0.00225  -0.00171  -3.13695
   D16       -0.39518   0.00411   0.00000   0.06241   0.06141  -0.33377
   D17       -2.64425  -0.00009   0.00000   0.01368   0.01393  -2.63032
   D18        1.61121  -0.00201   0.00000  -0.00209  -0.00179   1.60942
   D19       -0.63217   0.00031   0.00000   0.02947   0.02924  -0.60292
   D20        0.85653   0.00085   0.00000  -0.01895  -0.01965   0.83688
   D21       -1.17119  -0.00107   0.00000  -0.03471  -0.03538  -1.20657
   D22        2.86862   0.00125   0.00000  -0.00316  -0.00434   2.86427
   D23        2.93108   0.00272   0.00000   0.03308   0.03286   2.96395
   D24       -1.24151   0.00182   0.00000   0.02747   0.02728  -1.21423
   D25        0.83536  -0.00016   0.00000   0.00901   0.00888   0.84424
   D26        0.91338   0.00338   0.00000   0.04270   0.04269   0.95607
   D27        3.02398   0.00247   0.00000   0.03709   0.03710   3.06108
   D28       -1.18234   0.00049   0.00000   0.01863   0.01870  -1.16364
   D29       -1.08191   0.00102   0.00000   0.00459   0.00469  -1.07722
   D30        1.02868   0.00011   0.00000  -0.00102  -0.00089   1.02779
   D31        3.10555  -0.00187   0.00000  -0.01948  -0.01929   3.08625
   D32       -2.89224  -0.00078   0.00000  -0.01706  -0.01679  -2.90903
   D33       -0.86221   0.00260   0.00000   0.01638   0.01633  -0.84588
   D34        1.30939   0.00097   0.00000   0.00000  -0.00001   1.30938
   D35       -0.88701  -0.00224   0.00000  -0.02515  -0.02511  -0.91212
   D36        1.14303   0.00114   0.00000   0.00829   0.00801   1.15104
   D37       -2.96856  -0.00049   0.00000  -0.00809  -0.00833  -2.97689
   D38        1.11194   0.00095   0.00000   0.01512   0.01521   1.12714
   D39       -3.14121   0.00433   0.00000   0.04855   0.04833  -3.09289
   D40       -0.96962   0.00269   0.00000   0.03217   0.03199  -0.93763
   D41        0.95665   0.00074   0.00000   0.00000   0.00000   0.95665
   D42        3.08231   0.00058   0.00000   0.00736   0.00733   3.08964
   D43       -1.13822  -0.00108   0.00000  -0.01542  -0.01539  -1.15361
   D44       -1.15494   0.00178   0.00000   0.01618   0.01624  -1.13870
   D45        0.97072   0.00162   0.00000   0.02354   0.02356   0.99428
   D46        3.03337  -0.00004   0.00000   0.00076   0.00084   3.03422
   D47        3.06360   0.00070   0.00000   0.00464   0.00461   3.06820
   D48       -1.09392   0.00054   0.00000   0.01200   0.01193  -1.08199
   D49        0.96873  -0.00112   0.00000  -0.01078  -0.01079   0.95794
   D50       -0.92191  -0.00072   0.00000   0.00000   0.00000  -0.92191
   D51        1.18453  -0.00155   0.00000  -0.01146  -0.01146   1.17306
   D52       -3.04766  -0.00103   0.00000  -0.00790  -0.00792  -3.05558
   D53       -3.04920   0.00032   0.00000   0.00091   0.00093  -3.04827
   D54       -0.94276  -0.00051   0.00000  -0.01054  -0.01054  -0.95330
   D55        1.10824   0.00001   0.00000  -0.00699  -0.00700   1.10124
   D56        1.17670   0.00023   0.00000   0.00689   0.00691   1.18361
   D57       -3.00005  -0.00059   0.00000  -0.00457  -0.00455  -3.00460
   D58       -0.94905  -0.00007   0.00000  -0.00101  -0.00101  -0.95006
   D59        0.99425  -0.00118   0.00000  -0.00874  -0.00874   0.98551
   D60        3.10196  -0.00118   0.00000  -0.01606  -0.01619   3.08577
   D61       -1.12526   0.00016   0.00000  -0.00182  -0.00176  -1.12702
   D62       -1.10947  -0.00138   0.00000  -0.01013  -0.01010  -1.11957
   D63        0.99824  -0.00138   0.00000  -0.01745  -0.01754   0.98070
   D64        3.05421  -0.00004   0.00000  -0.00321  -0.00312   3.05109
   D65        3.12099  -0.00031   0.00000   0.00156   0.00157   3.12257
   D66       -1.05448  -0.00030   0.00000  -0.00576  -0.00587  -1.06036
   D67        1.00149   0.00103   0.00000   0.00848   0.00855   1.01004
   D68       -1.06369   0.00036   0.00000  -0.00384  -0.00382  -1.06751
   D69       -3.12560   0.00115   0.00000   0.00079   0.00047  -3.12513
   D70        1.09304   0.00084   0.00000   0.01097   0.01104   1.10408
   D71        3.11193  -0.00091   0.00000  -0.00900  -0.00895   3.10298
   D72        1.05002  -0.00012   0.00000  -0.00438  -0.00466   1.04536
   D73       -1.01453  -0.00042   0.00000   0.00581   0.00591  -1.00862
   D74        1.05506   0.00013   0.00000  -0.00060  -0.00051   1.05455
   D75       -1.00685   0.00092   0.00000   0.00403   0.00378  -1.00307
   D76       -3.07140   0.00062   0.00000   0.01421   0.01435  -3.05704
   D77       -1.17217   0.00442   0.00000   0.00000  -0.00001  -1.17218
   D78        3.05508   0.00128   0.00000  -0.01293  -0.01272   3.04236
   D79        1.00904   0.00030   0.00000  -0.02586  -0.02609   0.98295
   D80        0.31894  -0.00445   0.00000  -0.01402  -0.01422   0.30472
   D81       -2.91212  -0.00392   0.00000  -0.05304  -0.05306  -2.96518
         Item               Value     Threshold  Converged?
 Maximum Force            0.037177     0.000450     NO 
 RMS     Force            0.006979     0.000300     NO 
 Maximum Displacement     0.271889     0.001800     NO 
 RMS     Displacement     0.057382     0.001200     NO 
 Predicted change in Energy=-1.416144D-02
 GradGradGradGradGradGradGradGradGradGradGradGradGradGradGradGradGradGrad

                          Input orientation:                          
 ---------------------------------------------------------------------
 Center     Atomic      Atomic             Coordinates (Angstroms)
 Number     Number       Type             X           Y           Z
 ---------------------------------------------------------------------
      1          8           0       -3.473435   -1.377129   -0.302623
      2          7           0       -3.087955   -0.205439   -0.166896
      3          8           0       -3.823912    0.788069   -0.051275
      4          6           0       -1.619548   -0.001774   -0.062110
      5          6           0       -1.309780    1.286974    0.235714
      6          7           0       -0.068000    1.752955    0.471753
      7          6           0        1.191854    1.000899    0.414632
      8          1           0        1.843786    1.509200    1.142321
      9          6           0        1.882706    1.056192   -0.945971
     10          6           0        3.290411    0.462555   -0.820474
     11          6           0        3.252301   -0.952691   -0.232955
     12          6           0        2.471752   -0.998865    1.079979
     13          6           0        1.050457   -0.460081    0.874769
     14          1           0        0.507023   -0.483821    1.830994
     15          7           0        0.398353   -1.367215   -0.066483
     16          6           0       -0.854606   -1.198448   -0.325248
     17          1           0       -2.116290    2.006419    0.325245
     18          1           0        0.070897    2.757566    0.419225
     19          1           0        1.294795    0.485552   -1.674271
     20          1           0        1.931336    2.095533   -1.297401
     21          1           0        3.772116    0.450580   -1.804883
     22          1           0        3.895769    1.111808   -0.172098
     23          1           0        2.769650   -1.630040   -0.946453
     24          1           0        4.272502   -1.321571   -0.071316
     25          1           0        2.412116   -2.029228    1.447437
     26          1           0        2.981255   -0.401673    1.848151
     27          1           0       -1.373563   -1.970296   -0.891775
 ---------------------------------------------------------------------
                    Distance matrix (angstroms):
                    1          2          3          4          5
     1  O    0.000000
     2  N    1.240917   0.000000
     3  O    2.207735   1.241797   0.000000
     4  C    2.320850   1.486163   2.341622   0.000000
     5  C    3.473997   2.356119   2.579173   1.358501   0.000000
     6  N    4.689784   3.655586   3.912984   2.402371   1.347171
     7  C    5.285299   4.484438   5.041853   3.022683   2.524286
     8  H    6.220256   5.382945   5.836737   3.965901   3.288814
     9  C    5.918039   5.187112   5.782548   3.763812   3.411979
    10  C    7.028671   6.446467   7.163186   4.989831   4.791342
    11  C    6.739475   6.384481   7.289448   4.966723   5.103756
    12  C    6.115547   5.752787   6.641405   4.363174   4.498647
    13  C    4.763699   4.275086   5.116143   2.866481   3.005214
    14  H    4.603734   4.122248   4.890567   2.887649   2.996900
    15  N    3.878994   3.676159   4.740570   2.436466   3.170766
    16  C    2.625015   2.449284   3.583029   1.444440   2.588278
    17  H    3.699250   2.465491   2.131224   2.104670   1.084471
    18  H    5.493547   4.370501   4.389742   3.271581   2.025485
    19  H    5.299718   4.685951   5.378364   3.365998   3.327781
    20  H    6.500808   5.636115   6.032012   4.305045   3.675464
    21  H    7.622028   7.083356   7.803120   5.684357   5.539788
    22  H    7.779268   7.106867   7.727411   5.627688   5.224436
    23  H    6.281288   6.078547   7.079806   4.764280   5.152497
    24  H    7.749589   7.445214   8.366774   6.038062   6.169331
    25  H    6.174759   6.015235   7.005095   4.758531   5.130105
    26  H    6.873163   6.397987   7.164748   4.997640   4.885127
    27  H    2.260179   2.565017   3.784076   2.150332   3.447478
                    6          7          8          9         10
     6  N    0.000000
     7  C    1.468361   0.000000
     8  H    2.040589   1.101325   0.000000
     9  C    2.510115   1.526949   2.137217   0.000000
    10  C    3.822814   2.493841   2.653442   1.532902   0.000000
    11  C    4.340684   2.912271   3.152174   2.533731   1.532824
    12  C    3.793784   2.465742   2.586236   2.945286   2.533313
    13  C    2.512150   1.538240   2.139864   2.511338   2.956772
    14  H    2.679805   2.163208   2.496665   3.460590   3.958935
    15  N    3.200413   2.543438   3.438640   2.974845   3.504363
    16  C    3.156698   3.093953   4.094683   3.600218   4.492810
    17  H    2.069107   3.458739   4.073947   4.302428   5.738345
    18  H    1.015527   2.083853   2.285699   2.835681   4.143573
    19  H    2.840588   2.153995   3.046709   1.096216   2.170710
    20  H    2.691582   2.162432   2.510717   1.098225   2.177421
    21  H    4.650349   3.447731   3.677655   2.162028   1.096013
    22  H    4.066581   2.769063   2.469059   2.157405   1.099263
    23  H    4.637696   3.356163   3.882657   2.828871   2.160097
    24  H    5.346737   3.888496   3.922351   3.482801   2.169987
    25  H    4.626861   3.425988   3.596744   3.940621   3.481926
    26  H    3.979303   2.687777   2.333124   3.337559   2.822060
    27  H    4.174482   4.137156   5.157108   4.445880   5.260846
                   11         12         13         14         15
    11  C    0.000000
    12  C    1.528132   0.000000
    13  C    2.513530   1.533779   0.000000
    14  H    3.466450   2.165515   1.100114   0.000000
    15  N    2.888696   2.397716   1.460852   2.095856   0.000000
    16  C    4.115288   3.616511   2.369492   2.648415   1.290483
    17  H    6.155460   5.536378   4.051405   3.917952   4.225906
    18  H    4.930788   4.506825   3.394158   3.562287   4.166168
    19  H    2.824493   3.342845   2.729748   3.721176   2.611768
    20  H    3.488504   3.939453   3.467771   4.297510   3.981936
    21  H    2.170330   3.480556   3.926483   4.975293   4.208170
    22  H    2.163309   2.837334   3.415049   4.247589   4.288196
    23  H    1.095826   2.143258   2.764286   3.761318   2.542926
    24  H    1.096818   2.161556   3.466816   4.301098   3.874421
    25  H    2.165309   1.095550   2.155061   2.482897   2.604891
    26  H    2.169812   1.098326   2.163068   2.475656   3.357005
    27  H    4.782069   4.429214   3.358169   3.627627   2.045604
                   16         17         18         19         20
    16  C    0.000000
    17  H    3.505162   0.000000
    18  H    4.130477   2.314486   0.000000
    19  H    3.045593   4.236343   3.323056   0.000000
    20  H    4.422314   4.361674   2.616549   1.771794   0.000000
    21  H    5.129831   6.452240   4.895698   2.481008   2.520293
    22  H    5.284581   6.098568   4.205690   3.068189   2.468405
    23  H    3.702350   6.222014   5.329111   2.679672   3.834818
    24  H    5.134868   7.214530   5.876519   3.834305   4.319831
    25  H    3.808422   6.168648   5.426963   4.161440   4.977845
    26  H    4.480217   5.839788   4.526898   4.004843   4.151249
    27  H    1.089045   4.224575   5.114476   3.709935   5.255268
                   21         22         23         24         25
    21  H    0.000000
    22  H    1.765927   0.000000
    23  H    2.463904   3.063576   0.000000
    24  H    2.529063   2.464430   1.766234   0.000000
    25  H    4.310062   3.832783   2.453140   2.503683   0.000000
    26  H    3.833595   2.684839   3.059979   2.489555   1.770149
    27  H    5.759550   6.146800   4.157520   5.742129   4.450478
                   26         27
    26  H    0.000000
    27  H    5.378867   0.000000
 Symmetry turned off by external request.
 Stoichiometry    C9H13N3O2
 Framework group  C1[X(C9H13N3O2)]
 Deg. of freedom    75
 Full point group                 C1      NOp   1
 Rotational constants (GHZ):           1.6553998           0.4274630           0.3759903
 Standard basis: 6-31G(d) (6D, 7F)
   236 basis functions,   444 primitive gaussians,   236 cartesian basis functions
    52 alpha electrons       52 beta electrons
       nuclear repulsion energy       932.9254103164 Hartrees.
 NAtoms=   27 NActive=   27 NUniq=   27 SFac= 1.00D+00 NAtFMM=   60 NAOKFM=F Big=F
 Integral buffers will be    131072 words long.
 Raffenetti 1 integral format.
 Two-electron integral symmetry is turned off.
 One-electron integrals computed using PRISM.
 NBasis=   236 RedAO= T EigKep=  9.66D-04  NBF=   236
 NBsUse=   236 1.00D-06 EigRej= -1.00D+00 NBFU=   236
 Initial guess from the checkpoint file:  "/home/alexey/tmp/Gau-1366910.chk"
 B after Tr=     0.053772    0.002070    0.008634
         Rot=    0.999997   -0.001727   -0.001469    0.000307 Ang=  -0.26 deg.
 ExpMin= 1.61D-01 ExpMax= 5.48D+03 ExpMxC= 8.25D+02 IAcc=3 IRadAn=         5 AccDes= 0.00D+00
 Harris functional with IExCor=  205 and IRadAn=       5 diagonalized for initial guess.
 HarFok:  IExCor=  205 AccDes= 0.00D+00 IRadAn=         5 IDoV= 1 UseB2=F ITyADJ=14
 ICtDFT=  3500011 ScaDFX=  1.000000  1.000000  1.000000  1.000000
 FoFCou: FMM=F IPFlag=           0 FMFlag=      100000 FMFlg1=           0
         NFxFlg=           0 DoJE=T BraDBF=F KetDBF=T FulRan=T
         wScrn=  0.000000 ICntrl=       500 IOpCl=  0 I1Cent=   200000004 NGrid=           0
         NMat0=    1 NMatS0=      1 NMatT0=    0 NMatD0=    1 NMtDS0=    0 NMtDT0=    0
 Symmetry not used in FoFCou.
 Keep R1 ints in memory in canonical form, NReq=397720213.
 Requested convergence on RMS density matrix=1.00D-08 within 128 cycles.
 Requested convergence on MAX density matrix=1.00D-06.
 Requested convergence on             energy=1.00D-06.
 No special actions if energy rises.
 SCF Done:  E(RHF) =  -661.294024938     A.U. after   15 cycles
            NFock= 15  Conv=0.60D-08     -V/T= 2.0025
 ExpMin= 1.61D-01 ExpMax= 5.48D+03 ExpMxC= 8.25D+02 IAcc=3 IRadAn=         5 AccDes= 0.00D+00
 HarFok:  IExCor=  205 AccDes= 0.00D+00 IRadAn=         5 IDoV=-2 UseB2=F ITyADJ=14
 ICtDFT= 12500011 ScaDFX=  1.000000  1.000000  1.000000  1.000000
 Range of M.O.s used for correlation:    15   236
 NBasis=   236 NAE=    52 NBE=    52 NFC=    14 NFV=     0
 NROrb=    222 NOA=    38 NOB=    38 NVA=   184 NVB=   184
 Fully direct method using O(ONN) memory.
 JobTyp=1 Pass  1:  I=  15 to  52 NPSUse=  4 ParTrn=T ParDer=T DoDerP=T.
 Spin components of T(2) and E(2):
     alpha-alpha T2 =       0.9148170926D-01 E2=     -0.2726150957D+00
     alpha-beta  T2 =       0.4920127273D+00 E2=     -0.1488889005D+01
     beta-beta   T2 =       0.9148170926D-01 E2=     -0.2726150957D+00
 ANorm=    0.1294208695D+01
 E2 =    -0.2034119196D+01 EUMP2 =    -0.66332814413386D+03
          IDoAtm=111111111111111111111111111
          Differentiating once with respect to electric field.
                with respect to dipole field.
          Differentiating once with respect to nuclear coordinates.
 Keep R1 ints in memory in canonical form, NReq=397723379.
          There are     1 degrees of freedom in the 1st order CPHF.  IDoFFX=0 NUNeed=     1.
 LinEq1:  Iter=  0 NonCon=     1 RMS=4.61D-03 Max=1.14D-01 NDo=     1
 AX will form     1 AO Fock derivatives at one time.
 LinEq1:  Iter=  1 NonCon=     1 RMS=1.55D-03 Max=3.23D-02 NDo=     1
 LinEq1:  Iter=  2 NonCon=     1 RMS=6.52D-04 Max=1.94D-02 NDo=     1
 LinEq1:  Iter=  3 NonCon=     1 RMS=2.81D-04 Max=7.79D-03 NDo=     1
[...]
    26  H    2.175461   1.098736   2.170243   2.499932   3.363863
    27  H    4.758463   4.430895   3.359841   3.633711   2.042627
                   16         17         18         19         20
    16  C    0.000000
    17  H    3.503064   0.000000
    18  H    4.161011   2.276911   0.000000
    19  H    3.028144   4.287602   3.533116   0.000000
    20  H    4.419404   4.438595   2.891644   1.768502   0.000000
    21  H    5.121295   6.505192   5.093341   2.499267   2.520074
    22  H    5.273829   6.109218   4.309958   3.070216   2.462686
    23  H    3.691438   6.234623   5.432927   2.700746   3.841465
    24  H    5.132391   7.210916   5.939855   3.847105   4.317020
    25  H    3.807605   6.111954   5.372866   4.170196   4.983378
    26  H    4.491465   5.797644   4.466781   4.024314   4.170317
    27  H    1.087201   4.236612   5.155694   3.660532   5.221995
                   21         22         23         24         25
    21  H    0.000000
    22  H    1.758998   0.000000
    23  H    2.470989   3.062960   0.000000
    24  H    2.518203   2.460646   1.764602   0.000000
    25  H    4.311525   3.835198   2.446540   2.516556   0.000000
    26  H    3.841207   2.695950   3.060422   2.495965   1.768344
    27  H    5.718731   6.113475   4.124654   5.722458   4.453121
                   26         27
    26  H    0.000000
    27  H    5.386802   0.000000
 Symmetry turned off by external request.
 Stoichiometry    C9H13N3O2
 Framework group  C1[X(C9H13N3O2)]
 Deg. of freedom    75
 Full point group                 C1      NOp   1
 Rotational constants (GHZ):           1.6542236           0.4272796           0.3762458

 **********************************************************************

            Population analysis using the SCF Density.

 **********************************************************************

 Alpha  occ. eigenvalues --  -20.59168 -20.58825 -15.84414 -15.63853 -15.56125
 Alpha  occ. eigenvalues --  -11.34903 -11.29653 -11.29573 -11.28694 -11.27204
 Alpha  occ. eigenvalues --  -11.23692 -11.23158 -11.22652 -11.22048  -1.56968
 Alpha  occ. eigenvalues --   -1.36578  -1.30708  -1.23031  -1.14548  -1.09637
 Alpha  occ. eigenvalues --   -1.02720  -1.01064  -0.94430  -0.89265  -0.85384
 Alpha  occ. eigenvalues --   -0.82542  -0.78604  -0.77359  -0.75309  -0.71500
 Alpha  occ. eigenvalues --   -0.69687  -0.69198  -0.67668  -0.64878  -0.63739
 Alpha  occ. eigenvalues --   -0.62521  -0.60709  -0.57581  -0.56966  -0.55190
 Alpha  occ. eigenvalues --   -0.54558  -0.50648  -0.50162  -0.48588  -0.48047
 Alpha  occ. eigenvalues --   -0.47287  -0.46055  -0.45905  -0.43618  -0.41688
 Alpha  occ. eigenvalues --   -0.39847  -0.33693
 Alpha virt. eigenvalues --    0.07644   0.11564   0.17362   0.21835   0.24168
 Alpha virt. eigenvalues --    0.25644   0.27101   0.28758   0.29058   0.29430
 Alpha virt. eigenvalues --    0.30619   0.31807   0.32057   0.32801   0.34018
 Alpha virt. eigenvalues --    0.34436   0.35656   0.37460   0.38483   0.40400
 Alpha virt. eigenvalues --    0.41284   0.42298   0.45076   0.46138   0.46733
 Alpha virt. eigenvalues --    0.47591   0.49410   0.54095   0.57784   0.59763
 Alpha virt. eigenvalues --    0.63864   0.68551   0.69613   0.72959   0.73806
 Alpha virt. eigenvalues --    0.74276   0.75860   0.76794   0.78484   0.79503
 Alpha virt. eigenvalues --    0.81647   0.84037   0.86074   0.86409   0.88903
 Alpha virt. eigenvalues --    0.89539   0.91094   0.91828   0.92967   0.94750
 Alpha virt. eigenvalues --    0.95773   0.97882   0.99850   1.01811   1.02606
 Alpha virt. eigenvalues --    1.03256   1.05771   1.07184   1.08435   1.09033
 Alpha virt. eigenvalues --    1.10821   1.10996   1.12015   1.12695   1.13976
 Alpha virt. eigenvalues --    1.14636   1.15210   1.15749   1.17087   1.18627
 Alpha virt. eigenvalues --    1.19042   1.21280   1.22854   1.23945   1.24108
 Alpha virt. eigenvalues --    1.24795   1.26168   1.27222   1.27518   1.29093
 Alpha virt. eigenvalues --    1.29772   1.33714   1.36369   1.38427   1.40918
 Alpha virt. eigenvalues --    1.41552   1.48104   1.48606   1.51390   1.54274
 Alpha virt. eigenvalues --    1.56272   1.57757   1.59516   1.63690   1.64836
 Alpha virt. eigenvalues --    1.67617   1.68101   1.72485   1.75742   1.78834
 Alpha virt. eigenvalues --    1.81692   1.85208   1.88264   1.90397   1.92696
 Alpha virt. eigenvalues --    1.95704   1.96264   1.99484   2.00880   2.02990
 Alpha virt. eigenvalues --    2.04443   2.06072   2.08311   2.09157   2.12726
 Alpha virt. eigenvalues --    2.13461   2.14956   2.18668   2.19920   2.22515
 Alpha virt. eigenvalues --    2.23193   2.24228   2.25182   2.28396   2.29552
 Alpha virt. eigenvalues --    2.32987   2.33265   2.35155   2.36946   2.37802
 Alpha virt. eigenvalues --    2.40632   2.42114   2.44901   2.46589   2.48049
 Alpha virt. eigenvalues --    2.50035   2.52016   2.53382   2.56289   2.59642
 Alpha virt. eigenvalues --    2.62331   2.64816   2.67137   2.70265   2.70419
 Alpha virt. eigenvalues --    2.71891   2.72643   2.77139   2.79917   2.83059
 Alpha virt. eigenvalues --    2.88275   2.89272   2.92001   2.93164   2.95500
 Alpha virt. eigenvalues --    2.99961   3.00668   3.04630   3.05661   3.08024
 Alpha virt. eigenvalues --    3.09504   3.14474   3.21019   3.24692   3.27741
 Alpha virt. eigenvalues --    3.31575   3.36113   3.37946   3.52137   3.67201
 Alpha virt. eigenvalues --    4.13387   4.26123   4.36521   4.39146   4.45573
 Alpha virt. eigenvalues --    4.55360   4.61483   4.62262   4.73633   4.78823
 Alpha virt. eigenvalues --    5.00009   5.00863   5.06187   5.10649
          Condensed to atoms (all electrons):
               1          2          3          4          5          6
     1  O    8.320882   0.305028  -0.084363  -0.082919   0.004771  -0.000021
     2  N    0.305028   5.720784   0.298382   0.271955  -0.060312   0.001040
     3  O   -0.084363   0.298382   8.358102  -0.090681   0.002181   0.000856
     4  C   -0.082919   0.271955  -0.090681   5.203733   0.577462  -0.053750
     5  C    0.004771  -0.060312   0.002181   0.577462   4.717629   0.311345
     6  N   -0.000021   0.001040   0.000856  -0.053750   0.311345   7.197632
     7  C    0.000004  -0.000193   0.000001   0.002917  -0.030047   0.173703
     8  H   -0.000000   0.000003  -0.000000  -0.000086   0.002673  -0.049769
     9  C   -0.000000  -0.000006   0.000000   0.000457   0.001263  -0.064110
    10  C   -0.000000   0.000000   0.000000  -0.000022  -0.000079   0.003785
    11  C   -0.000000  -0.000000  -0.000000  -0.000054   0.000032  -0.000190
    12  C   -0.000000   0.000002  -0.000000  -0.000035  -0.000240   0.003794
    13  C   -0.000032  -0.000034  -0.000004  -0.012673  -0.000652  -0.044796
    14  H   -0.000004  -0.000091   0.000001   0.002298   0.006119  -0.006432
    15  N    0.000452   0.002623  -0.000022  -0.065844  -0.008717   0.002516
    16  C   -0.000097  -0.031249   0.002713   0.340764  -0.050186   0.000550
    17  H    0.000276  -0.008069   0.018987  -0.021030   0.371446  -0.031036
    18  H    0.000001  -0.000064   0.000015   0.001561  -0.029873   0.337282
    19  H    0.000001  -0.000003   0.000000  -0.001175   0.001139  -0.000335
    20  H    0.000000  -0.000000   0.000000  -0.000103   0.000224  -0.000404
    21  H   -0.000000  -0.000000   0.000000   0.000001   0.000001  -0.000078
    22  H   -0.000000   0.000000  -0.000000  -0.000000  -0.000003  -0.000118
    23  H    0.000000  -0.000000   0.000000   0.000042   0.000003  -0.000031
    24  H    0.000000   0.000000   0.000000   0.000000  -0.000000   0.000006
    25  H    0.000000  -0.000000   0.000000   0.000028   0.000002  -0.000087
    26  H    0.000000  -0.000000   0.000000   0.000003   0.000004  -0.000055
    27  H    0.005573  -0.001191   0.000011  -0.057710   0.001690   0.000013
               7          8          9         10         11         12
     1  O    0.000004  -0.000000  -0.000000  -0.000000  -0.000000  -0.000000
     2  N   -0.000193   0.000003  -0.000006   0.000000  -0.000000   0.000002
     3  O    0.000001  -0.000000   0.000000   0.000000  -0.000000  -0.000000
     4  C    0.002917  -0.000086   0.000457  -0.000022  -0.000054  -0.000035
     5  C   -0.030047   0.002673   0.001263  -0.000079   0.000032  -0.000240
     6  N    0.173703  -0.049769  -0.064110   0.003785  -0.000190   0.003794
     7  C    5.022542   0.418058   0.349219  -0.054089  -0.008991  -0.060509
     8  H    0.418058   0.535850  -0.054157   0.000557  -0.000285  -0.002800
     9  C    0.349219  -0.054157   5.157686   0.325210  -0.050738  -0.005056
    10  C   -0.054089   0.000557   0.325210   5.119015   0.336741  -0.061495
    11  C   -0.008991  -0.000285  -0.050738   0.336741   5.121137   0.336246
    12  C   -0.060509  -0.002800  -0.005056  -0.061495   0.336246   5.119698
    13  C    0.333790  -0.036841  -0.061366  -0.000304  -0.051096   0.370887
    14  H   -0.047413  -0.000610   0.004414  -0.000397   0.004193  -0.035929
    15  N   -0.057293   0.003601  -0.012526   0.001620  -0.013464  -0.081793
    16  C   -0.000720  -0.000121  -0.000416  -0.000070   0.000089   0.002670
    17  H    0.001445  -0.000059  -0.000045   0.000001   0.000000  -0.000000
    18  H   -0.021079  -0.004485   0.001450  -0.000083   0.000003  -0.000109
    19  H   -0.037207   0.004352   0.390484  -0.032574  -0.002225   0.000642
    20  H   -0.042052  -0.001858   0.399513  -0.035241   0.003927  -0.000409
    21  H    0.004580  -0.000072  -0.036440   0.402407  -0.034986   0.004385
    22  H   -0.004946   0.003558  -0.046909   0.397743  -0.045219  -0.001166
    23  H    0.000559   0.000040  -0.001997  -0.039058   0.399355  -0.038235
    24  H   -0.000129  -0.000105   0.004393  -0.038385   0.402281  -0.038582
    25  H    0.005156  -0.000012  -0.000437   0.004225  -0.033321   0.398583
    26  H   -0.004077   0.001697   0.000986  -0.002356  -0.041439   0.396491
    27  H   -0.000352   0.000007  -0.000038   0.000004   0.000012  -0.000047
              13         14         15         16         17         18
     1  O   -0.000032  -0.000004   0.000452  -0.000097   0.000276   0.000001
     2  N   -0.000034  -0.000091   0.002623  -0.031249  -0.008069  -0.000064
     3  O   -0.000004   0.000001  -0.000022   0.002713   0.018987   0.000015
     4  C   -0.012673   0.002298  -0.065844   0.340764  -0.021030   0.001561
     5  C   -0.000652   0.006119  -0.008717  -0.050186   0.371446  -0.029873
     6  N   -0.044796  -0.006432   0.002516   0.000550  -0.031036   0.337282
     7  C    0.333790  -0.047413  -0.057293  -0.000720   0.001445  -0.021079
     8  H   -0.036841  -0.000610   0.003601  -0.000121  -0.000059  -0.004485
     9  C   -0.061366   0.004414  -0.012526  -0.000416  -0.000045   0.001450
    10  C   -0.000304  -0.000397   0.001620  -0.000070   0.000001  -0.000083
    11  C   -0.051096   0.004193  -0.013464   0.000089   0.000000   0.000003
    12  C    0.370887  -0.035929  -0.081793   0.002670  -0.000000  -0.000109
    13  C    5.042075   0.403597   0.250237  -0.071115   0.000006   0.002679
    14  H    0.403597   0.526747  -0.037584  -0.005612   0.000079  -0.000119
    15  N    0.250237  -0.037584   6.967892   0.576603  -0.000106  -0.000120
    16  C   -0.071115  -0.005612   0.576603   4.708754   0.001306  -0.000157
    17  H    0.000006   0.000079  -0.000106   0.001306   0.360580  -0.002138
    18  H    0.002679  -0.000119  -0.000120  -0.000157  -0.002138   0.311780
    19  H   -0.007554   0.000123   0.007543   0.002530   0.000013  -0.000149
    20  H    0.004318  -0.000070   0.000107  -0.000038   0.000002   0.000713
    21  H   -0.000448   0.000010  -0.000040   0.000004  -0.000000   0.000001
    22  H    0.000129  -0.000052   0.000018  -0.000002   0.000000   0.000000
    23  H   -0.007539   0.000009   0.008687   0.000114   0.000000   0.000000
    24  H    0.004714  -0.000059   0.000121   0.000005   0.000000  -0.000000
    25  H   -0.035733  -0.002909   0.000599  -0.000022  -0.000000   0.000002
    26  H   -0.047242  -0.001048   0.004866  -0.000060   0.000000  -0.000000
    27  H    0.004677  -0.000133  -0.037377   0.401365  -0.000073   0.000000
              19         20         21         22         23         24
     1  O    0.000001   0.000000  -0.000000  -0.000000   0.000000   0.000000
     2  N   -0.000003  -0.000000  -0.000000   0.000000  -0.000000   0.000000
     3  O    0.000000   0.000000   0.000000  -0.000000   0.000000   0.000000
     4  C   -0.001175  -0.000103   0.000001  -0.000000   0.000042   0.000000
     5  C    0.001139   0.000224   0.000001  -0.000003   0.000003  -0.000000
     6  N   -0.000335  -0.000404  -0.000078  -0.000118  -0.000031   0.000006
     7  C   -0.037207  -0.042052   0.004580  -0.004946   0.000559  -0.000129
     8  H    0.004352  -0.001858  -0.000072   0.003558   0.000040  -0.000105
     9  C    0.390484   0.399513  -0.036440  -0.046909  -0.001997   0.004393
    10  C   -0.032574  -0.035241   0.402407   0.397743  -0.039058  -0.038385
    11  C   -0.002225   0.003927  -0.034986  -0.045219   0.399355   0.402281
    12  C    0.000642  -0.000409   0.004385  -0.001166  -0.038235  -0.038582
    13  C   -0.007554   0.004318  -0.000448   0.000129  -0.007539   0.004714
    14  H    0.000123  -0.000070   0.000010  -0.000052   0.000009  -0.000059
    15  N    0.007543   0.000107  -0.000040   0.000018   0.008687   0.000121
    16  C    0.002530  -0.000038   0.000004  -0.000002   0.000114   0.000005
    17  H    0.000013   0.000002  -0.000000   0.000000   0.000000   0.000000
    18  H   -0.000149   0.000713   0.000001   0.000000   0.000000  -0.000000
    19  H    0.507689  -0.024625  -0.002767   0.003981   0.001557  -0.000068
    20  H   -0.024625   0.539348  -0.002735  -0.002946  -0.000046  -0.000083
    21  H   -0.002767  -0.002735   0.524681  -0.027426  -0.002894  -0.002260
    22  H    0.003981  -0.002946  -0.027426   0.571282   0.004126  -0.003624
    23  H    0.001557  -0.000046  -0.002894   0.004126   0.498829  -0.025351
    24  H   -0.000068  -0.000083  -0.002260  -0.003624  -0.025351   0.537930
    25  H   -0.000029   0.000012  -0.000087  -0.000082  -0.002264  -0.002361
    26  H    0.000020  -0.000031  -0.000080   0.002399   0.004071  -0.002954
    27  H    0.000065   0.000000  -0.000000   0.000000  -0.000029  -0.000000
              25         26         27
     1  O    0.000000   0.000000   0.005573
     2  N   -0.000000  -0.000000  -0.001191
     3  O    0.000000   0.000000   0.000011
     4  C    0.000028   0.000003  -0.057710
     5  C    0.000002   0.000004   0.001690
     6  N   -0.000087  -0.000055   0.000013
     7  C    0.005156  -0.004077  -0.000352
     8  H   -0.000012   0.001697   0.000007
     9  C   -0.000437   0.000986  -0.000038
    10  C    0.004225  -0.002356   0.000004
    11  C   -0.033321  -0.041439   0.000012
    12  C    0.398583   0.396491  -0.000047
    13  C   -0.035733  -0.047242   0.004677
    14  H   -0.002909  -0.001048  -0.000133
    15  N    0.000599   0.004866  -0.037377
    16  C   -0.000022  -0.000060   0.401365
    17  H   -0.000000   0.000000  -0.000073
    18  H    0.000002  -0.000000   0.000000
    19  H   -0.000029   0.000020   0.000065
    20  H    0.000012  -0.000031   0.000000
    21  H   -0.000087  -0.000080  -0.000000
    22  H   -0.000082   0.002399   0.000000
    23  H   -0.002264   0.004071  -0.000029
    24  H   -0.002361  -0.002954  -0.000000
    25  H    0.504867  -0.024029  -0.000012
    26  H   -0.024029   0.562814   0.000001
    27  H   -0.000012   0.000001   0.425200
 Mulliken charges:
               1
     1  O   -0.469551
     2  N    0.501395
     3  O   -0.506178
     4  C   -0.015141
     5  C    0.182123
     6  N   -0.781313
     7  C    0.057123
     8  H    0.180862
     9  C   -0.300835
    10  C   -0.327155
    11  C   -0.322009
    12  C   -0.306992
    13  C   -0.039682
    14  H    0.190869
    15  N   -0.512600
    16  C    0.122400
    17  H    0.308417
    18  H    0.402888
    19  H    0.188573
    20  H    0.162475
    21  H    0.174241
    22  H    0.149255
    23  H    0.200053
    24  H    0.164510
    25  H    0.187909
    26  H    0.150019
    27  H    0.258343
 Sum of Mulliken charges =  -0.00000
 Mulliken charges with hydrogens summed into heavy atoms:
               1
     1  O   -0.469551
     2  N    0.501395
     3  O   -0.506178
     4  C   -0.015141
     5  C    0.490539
     6  N   -0.378424
     7  C    0.237985
     9  C    0.050213
    10  C   -0.003659
    11  C    0.042555
    12  C    0.030936
    13  C    0.151187
    15  N   -0.512600
    16  C    0.380743
 Electronic spatial extent (au):  <R**2>=           2974.8131
 Charge=             -0.0000 electrons
 Dipole moment (field-independent basis, Debye):
    X=              5.2774    Y=              4.7412    Z=              1.3911  Tot=              7.2295
 Quadrupole moment (field-independent basis, Debye-Ang):
   XX=           -105.5953   YY=            -79.2365   ZZ=            -81.3645
   XY=             -1.5399   XZ=             -0.3680   YZ=              2.4689
 Traceless Quadrupole moment (field-independent basis, Debye-Ang):
   XX=            -16.8632   YY=              9.4956   ZZ=              7.3676
   XY=             -1.5399   XZ=             -0.3680   YZ=              2.4689
 Octapole moment (field-independent basis, Debye-Ang**2):
  XXX=             86.7173  YYY=             35.8379  ZZZ=             -0.1834  XYY=             -6.2936
  XXY=              9.1575  XXZ=              6.3544  XZZ=            -10.7842  YZZ=             -0.3552
  YYZ=              8.6357  XYZ=             -1.0101
 Hexadecapole moment (field-independent basis, Debye-Ang**3):
 XXXX=          -3315.3385 YYYY=           -615.6334 ZZZZ=           -300.0793 XXXY=            -17.2411
 XXXZ=            -21.9389 YYYX=             -4.6156 YYYZ=             30.0145 ZZZX=             -2.2762
 ZZZY=              9.4753 XXYY=           -620.0383 XXZZ=           -514.1222 YYZZ=           -158.3186
 XXYZ=              1.1409 YYXZ=              1.1857 ZZXY=              6.1792
 N-N= 9.326553031160D+02 E-N=-3.412089689318D+03  KE= 6.596243910875D+02
 Unable to Open any file for archive entry.
 1\1\GINC-LOTUS\FOpt\RMP2-FC\6-31G(d)\C9H13N3O2\ALEXEY\01-Jul-2023\0\\#
 MP2/6-31G* SCF=Tight Opt=(ModRedun, MaxCycle=20 ) NoSymm\\MolName:\\0,
 1\O,-3.4663480024,-1.3839701241,-0.3176641752\N,-3.0689359406,-0.21602
 11444,-0.1399323276\O,-3.8430309198,0.7555556799,-0.0380781914\C,-1.61
 27096043,-0.007208179,-0.0452446468\C,-1.3008407923,1.2869794905,0.263
 9972823\N,-0.0570888216,1.776814356,0.3941838085\C,1.1947827213,1.0240
 829474,0.3710828131\H,1.8467482052,1.5338589499,1.0954827457\C,1.89798
 44315,1.0442062933,-0.9859805731\C,3.2972111987,0.4376352845,-0.831779
 8171\C,3.2508388479,-0.9628362008,-0.2160305429\C,2.4596882564,-0.9803
 539362,1.0930841116\C,1.0436328176,-0.4400235366,0.8565254773\H,0.4682
 076941,-0.4287962959,1.7954973838\N,0.4040978831,-1.3610096695,-0.0849
 515645\C,-0.8502781085,-1.1877344435,-0.3643835403\H,-2.1169570601,1.9
 895706623,0.3917348976\H,0.0114019228,2.7502548661,0.6670030678\H,1.30
 1281746,0.4698265266,-1.7033904228\H,1.9610691457,2.0740098684,-1.3586
 068549\H,3.7976443602,0.4075227638,-1.8064759629\H,3.8987505816,1.0992
 746661,-0.1923718137\H,2.769908776,-1.6549863164,-0.9145101419\H,4.270
 2116872,-1.3286893558,-0.0447736669\H,2.3818409897,-2.003111535,1.4758
 391909\H,2.9668065116,-0.3792250613,1.8603492221\H,-1.3439285271,-1.94
 95965566,-0.9626157587\\Version=ES64L-G16RevC.02\HF=-661.2957606\MP2=-
 663.3313538\RMSD=7.195e-09\RMSF=5.220e-03\Dipole=1.9284602,1.6793905,0
 .5055207\PG=C01 [X(C9H13N3O2)]\\@
 The archive entry for this job was punched.


 FROM THE ASHES OF OUR DESPAIR GROW THE FLOWERS OF TOMORROW.
 Job cpu time:       0 days  1 hours 19 minutes 28.5 seconds.
 Elapsed time:       0 days  0 hours 23 minutes 55.2 seconds.
 File lengths (MBytes):  RWF=     36 Int=      0 D2E=      0 Chk=      7 Scr=      1
 Normal termination of Gaussian 16 at Sat Jul  1 18:45:17 2023.
