 Entering Gaussian System, Link 0=g16
 Initial command:
 /home/alexey/programs//g16/l1.exe "/home/alexey/tmp/Gau-1215879.inp" -scrdir="/home/alexey/tmp/"
 Entering Link 1 = /home/alexey/programs//g16/l1.exe PID=   1215881.
  
 Copyright (c) 1988-2021, Gaussian, Inc.  All Rights Reserved.
  
 This is part of the Gaussian(R) 16 program.  It is based on
 the Gaussian(R) 09 system (copyright 2009, Gaussian, Inc.),
 the Gaussian(R) 03 system (copyright 2003, Gaussian, Inc.),
 the Gaussian(R) 98 system (copyright 1998, Gaussian, Inc.),
 the Gaussian(R) 94 system (copyright 1995, Gaussian, Inc.),
 the Gaussian 92(TM) system (copyright 1992, Gaussian, Inc.),
 the Gaussian 90(TM) system (copyright 1990, Gaussian, Inc.),
 the Gaussian 88(TM) system (copyright 1988, Gaussian, Inc.),
 the Gaussian 86(TM) system (copyright 1986, Carnegie Mellon
 University), and the Gaussian 82(TM) system (copyright 1983,
 Carnegie Mellon University). Gaussian is a federally registered
 trademark of Gaussian, Inc.
  
 This software contains proprietary and confidential information,
 including trade secrets, belonging to Gaussian, Inc.
  
 This software is provided under written license and may be
 used, copied, transmitted, or stored only in accord with that
 written license.
  
 The following legend is applicable only to US Government
 contracts under FAR:
  
                    RESTRICTED RIGHTS LEGEND
  
 Use, reproduction and disclosure by the US Government is
 subject to restrictions as set forth in subparagraphs (a)
 and (c) of the Commercial Computer Software - Restricted
 Rights clause in FAR 52.227-19.
  
 Gaussian, Inc.
 340 Quinnipiac St., Bldg. 40, Wallingford CT 06492
  
  
 ---------------------------------------------------------------
 Warning -- This program may not be used in any manner that
 competes with the business of Gaussian, Inc. or will provide
 assistance to any competitor of Gaussian, Inc.  The licensee
 of this program is prohibited from giving any competitor of
 Gaussian, Inc. access to this program.  By using this program,
 the user acknowledges that Gaussian, Inc. is engaged in the
 business of creating and licensing software in the field of
 computational chemistry and represents and warrants to the
 licensee that it is not a competitor of Gaussian, Inc. and that
 it will not use this program in any manner prohibited above.
 ---------------------------------------------------------------
  

 Cite this work as:
 Gaussian 16, Revision C.02,
 M. J. Frisch, G. W. Trucks, H. B. Schlegel, G. E. Scuseria, 
 M. A. Robb, J. R. Cheeseman, G. Scalmani, V. Barone, 
 G. A. Petersson, H. Nakatsuji, X. Li, M. Caricato, A. V. Marenich, 
 J. Bloino, B. G. Janesko, R. Gomperts, B. Mennucci, H. P. Hratchian, 
 J. V. Ortiz, A. F. Izmaylov, J. L. Sonnenberg, D. Williams-Young, 
 F. Ding, F. Lipparini, F. Egidi, J. Goings, B. Peng, A. Petrone, 
 T. Henderson, D. Ranasinghe, V. G. Zakrzewski, J. Gao, N. Rega, 
 G. Zheng, W. Liang, M. Hada, M. Ehara, K. Toyota, R. Fukuda, 
 J. Hasegawa, M. Ishida, T. Nakajima, Y. Honda, O. Kitao, H. Nakai, 
 T. Vreven, K. Throssell, J. A. Montgomery, Jr., J. E. Peralta, 
 F. Ogliaro, M. J. Bearpark, J. J. Heyd, E. N. Brothers, K. N. Kudin, 
 V. N. Staroverov, T. A. Keith, R. Kobayashi, J. Normand, 
 K. Raghavachari, A. P. Rendell, J. C. Burant, S. S. Iyengar, 
 J. Tomasi, M. Cossi, J. M. Millam, M. Klene, C. Adamo, R. Cammi, 
 J. W. Ochterski, R. L. Martin, K. Morokuma, O. Farkas, 
 J. B. Foresman, and D. J. Fox, Gaussian, Inc., Wallingford CT, 2019.
 
 ******************************************
 Gaussian 16:  ES64L-G16RevC.02  7-Dec-2021
                30-Jun-2023 
 ******************************************
 %mem=8GB
 %NPROCS=4
 Will use up to    4 processors via shared memory.
 %NoSave
 ---------------------------------------------------------
 #MP2/6-31G* SCF=Tight Opt=(ModRedun, MaxCycle=20 ) NoSymm
 ---------------------------------------------------------
 1/6=20,18=120,19=15,38=1/1,3;
 2/9=110,12=2,15=1,17=6,18=5,40=1/2;
 3/5=1,6=6,7=1,11=9,25=1,30=1,71=1/1,2,3;
 4//1;
 5/5=2,32=2,38=5/2;
 8/6=4,10=2/1;
 9/15=2,16=-3/6;
 10/5=1,31=1/2;
 6/7=2,8=2,9=2,10=2/1;
 7/12=2,30=1/1,2,3,16;
 1/6=20,18=20,19=15/3(2);
 2/9=110,15=1/2;
 99//99;
 2/9=110,15=1/2;
 3/5=1,6=6,7=1,11=9,25=1,30=1,71=1/1,2,3;
 4/5=5,16=3,69=1/1;
 5/5=2,32=2,38=5/2;
 8/6=4,10=2/1;
 9/15=2,16=-3/6;
 10/5=1,31=1/2;
 7/12=2,30=1/1,2,3,16;
 1/6=20,18=20,19=15/3(-8);
 2/9=110,15=1/2;
 6/7=2,8=2,9=2,10=2/1;
 99/9=10/99;
 --------
 MolName:
 --------
 Symbolic Z-matrix:
 Charge =  0 Multiplicity = 1
 8                    0    -3.62405  -1.46864  -0.1663 
 7                    0    -3.27705  -0.30364   0.01685 
 8                    0    -4.05678   0.62381   0.23393 
 6                    0    -1.78989   0.00068  -0.03016 
 6                    0    -1.36808   1.30072   0.28332 
 7                    0    -0.07953   1.76735   0.35522 
 6                    0     1.20085   1.00015   0.34183 
 1                    0     1.85526   1.5001    1.10266 
 6                    0     1.9834    1.04677  -0.99422 
 6                    0     3.39031   0.45514  -0.78459 
 6                    0     3.31387  -0.95973  -0.18925 
 6                    0     2.44738  -0.98821   1.08866 
 6                    0     1.01684  -0.44302   0.82552 
 1                    0     0.45663  -0.47996   1.78927 
 7                    0     0.36934  -1.30106  -0.1659 
 6                    0    -0.86669  -1.0801   -0.47683 
 1                    0    -2.14581   2.03779   0.54348 
 1                    0     0.14488   2.74534   0.15682 
 1                    0     1.44278   0.47211  -1.77602 
 1                    0     2.07881   2.0962   -1.34531 
 1                    0     3.93843   0.42765  -1.75172 
 1                    0     3.96035   1.10746  -0.08589 
 1                    0     2.87348  -1.64776  -0.94587 
 1                    0     4.33697  -1.32824   0.04229 
 1                    0     2.37757  -2.03424   1.45968 
 1                    0     2.93521  -0.38048   1.87941 
 1                    0    -1.35349  -1.80319  -1.1489 
 
 The following ModRedundant input section has been read:
 A       5       4      16 F                                                   
 D       1       2       4      16 F                                           
 D       7      13      15      16 F                                           
 D       7       9      10      11 F                                           
 D       9      10      11      12 F                                           
 D       6       7      13      15 F                                           
 

 GradGradGradGradGradGradGradGradGradGradGradGradGradGradGradGradGradGrad
 Berny optimization.
 Initialization pass.
                           ----------------------------
                           !    Initial Parameters    !
                           ! (Angstroms and Degrees)  !
 --------------------------                            --------------------------
 ! Name  Definition              Value          Derivative Info.                !
 --------------------------------------------------------------------------------
 ! R1    R(1,2)                  1.2293         estimate D2E/DX2                !
 ! R2    R(2,3)                  1.231          estimate D2E/DX2                !
 ! R3    R(2,4)                  1.5187         estimate D2E/DX2                !
 ! R4    R(4,5)                  1.4022         estimate D2E/DX2                !
 ! R5    R(4,16)                 1.4899         estimate D2E/DX2                !
 ! R6    R(5,6)                  1.3723         estimate D2E/DX2                !
 ! R7    R(5,17)                 1.1026         estimate D2E/DX2                !
 ! R8    R(6,7)                  1.4927         estimate D2E/DX2                !
 ! R9    R(6,18)                 1.0228         estimate D2E/DX2                !
 ! R10   R(7,8)                  1.1212         estimate D2E/DX2                !
 ! R11   R(7,9)                  1.5491         estimate D2E/DX2                !
 ! R12   R(7,13)                 1.5332         estimate D2E/DX2                !
 ! R13   R(9,10)                 1.5406         estimate D2E/DX2                !
 ! R14   R(9,19)                 1.1107         estimate D2E/DX2                !
 ! R15   R(9,20)                 1.1107         estimate D2E/DX2                !
 ! R16   R(10,11)                1.5369         estimate D2E/DX2                !
 ! R17   R(10,21)                1.112          estimate D2E/DX2                !
 ! R18   R(10,22)                1.1129         estimate D2E/DX2                !
 ! R19   R(11,12)                1.5442         estimate D2E/DX2                !
 ! R20   R(11,23)                1.1135         estimate D2E/DX2                !
 ! R21   R(11,24)                1.1118         estimate D2E/DX2                !
 ! R22   R(12,13)                1.5534         estimate D2E/DX2                !
 ! R23   R(12,25)                1.1121         estimate D2E/DX2                !
 ! R24   R(12,26)                1.1102         estimate D2E/DX2                !
 ! R25   R(13,14)                1.1154         estimate D2E/DX2                !
 ! R26   R(13,15)                1.4623         estimate D2E/DX2                !
 ! R27   R(15,16)                1.2935         estimate D2E/DX2                !
 ! R28   R(16,27)                1.1007         estimate D2E/DX2                !
 ! A1    A(1,2,3)              124.1595         estimate D2E/DX2                !
 ! A2    A(1,2,4)              117.4968         estimate D2E/DX2                !
 ! A3    A(3,2,4)              118.3437         estimate D2E/DX2                !
 ! A4    A(2,4,5)              118.2564         estimate D2E/DX2                !
 ! A5    A(2,4,16)             118.0785         estimate D2E/DX2                !
 ! A6    A(5,4,16)             123.5832         Frozen                          !
 ! A7    A(4,5,6)              127.5465         estimate D2E/DX2                !
 ! A8    A(4,5,17)             117.4071         estimate D2E/DX2                !
 ! A9    A(6,5,17)             115.0            estimate D2E/DX2                !
 ! A10   A(5,6,7)              129.0623         estimate D2E/DX2                !
 ! A11   A(5,6,18)             121.3971         estimate D2E/DX2                !
 ! A12   A(7,6,18)             107.5478         estimate D2E/DX2                !
 ! A13   A(6,7,8)              105.3897         estimate D2E/DX2                !
 ! A14   A(6,7,9)              115.188          estimate D2E/DX2                !
 ! A15   A(6,7,13)             112.2113         estimate D2E/DX2                !
 ! A16   A(8,7,9)              106.0812         estimate D2E/DX2                !
 ! A17   A(8,7,13)             106.0041         estimate D2E/DX2                !
 ! A18   A(9,7,13)             111.1657         estimate D2E/DX2                !
 ! A19   A(7,9,10)             109.4162         estimate D2E/DX2                !
 ! A20   A(7,9,19)             110.2198         estimate D2E/DX2                !
 ! A21   A(7,9,20)             110.1488         estimate D2E/DX2                !
 ! A22   A(10,9,19)            109.9735         estimate D2E/DX2                !
 ! A23   A(10,9,20)            109.1117         estimate D2E/DX2                !
 ! A24   A(19,9,20)            107.9478         estimate D2E/DX2                !
 ! A25   A(9,10,11)            111.1508         estimate D2E/DX2                !
 ! A26   A(9,10,21)            109.9559         estimate D2E/DX2                !
 ! A27   A(9,10,22)            109.1528         estimate D2E/DX2                !
 ! A28   A(11,10,21)           109.7948         estimate D2E/DX2                !
 ! A29   A(11,10,22)           108.7759         estimate D2E/DX2                !
 ! A30   A(21,10,22)           107.9406         estimate D2E/DX2                !
 ! A31   A(10,11,12)           111.4345         estimate D2E/DX2                !
 ! A32   A(10,11,23)           108.9838         estimate D2E/DX2                !
 ! A33   A(10,11,24)           109.8786         estimate D2E/DX2                !
 ! A34   A(12,11,23)           109.2082         estimate D2E/DX2                !
 ! A35   A(12,11,24)           109.7482         estimate D2E/DX2                !
 ! A36   A(23,11,24)           107.4971         estimate D2E/DX2                !
 ! A37   A(11,12,13)           111.7211         estimate D2E/DX2                !
 ! A38   A(11,12,25)           109.1875         estimate D2E/DX2                !
 ! A39   A(11,12,26)           109.4363         estimate D2E/DX2                !
 ! A40   A(13,12,25)           109.1982         estimate D2E/DX2                !
 ! A41   A(13,12,26)           109.4625         estimate D2E/DX2                !
 ! A42   A(25,12,26)           107.7487         estimate D2E/DX2                !
 ! A43   A(7,13,12)            105.8601         estimate D2E/DX2                !
 ! A44   A(7,13,14)            111.35           estimate D2E/DX2                !
 ! A45   A(7,13,15)            113.0527         estimate D2E/DX2                !
 ! A46   A(12,13,14)           107.7317         estimate D2E/DX2                !
 ! A47   A(12,13,15)           108.4627         estimate D2E/DX2                !
 ! A48   A(14,13,15)           110.12           estimate D2E/DX2                !
 ! A49   A(13,15,16)           119.0671         estimate D2E/DX2                !
 ! A50   A(4,16,15)            130.0848         estimate D2E/DX2                !
 ! A51   A(4,16,27)            112.6778         estimate D2E/DX2                !
 ! A52   A(15,16,27)           117.2036         estimate D2E/DX2                !
 ! D1    D(1,2,4,5)           -174.9143         estimate D2E/DX2                !
 ! D2    D(1,2,4,16)             8.258          Frozen                          !
 ! D3    D(3,2,4,5)              5.1089         estimate D2E/DX2                !
 ! D4    D(3,2,4,16)          -171.7187         estimate D2E/DX2                !
 ! D5    D(2,4,5,6)            177.0606         estimate D2E/DX2                !
 ! D6    D(2,4,5,17)            -0.3236         estimate D2E/DX2                !
 ! D7    D(16,4,5,6)            -6.2993         estimate D2E/DX2                !
 ! D8    D(16,4,5,17)          176.3165         estimate D2E/DX2                !
 ! D9    D(2,4,16,15)         -151.0928         estimate D2E/DX2                !
 ! D10   D(2,4,16,27)           26.6988         estimate D2E/DX2                !
 ! D11   D(5,4,16,15)           32.2615         estimate D2E/DX2                !
 ! D12   D(5,4,16,27)         -149.9468         estimate D2E/DX2                !
 ! D13   D(4,5,6,7)            -10.902          estimate D2E/DX2                !
 ! D14   D(4,5,6,18)           150.949          estimate D2E/DX2                !
 ! D15   D(17,5,6,7)           166.5358         estimate D2E/DX2                !
 ! D16   D(17,5,6,18)          -31.6133         estimate D2E/DX2                !
 ! D17   D(5,6,7,8)           -139.3506         estimate D2E/DX2                !
 ! D18   D(5,6,7,9)            104.1016         estimate D2E/DX2                !
 ! D19   D(5,6,7,13)           -24.4357         estimate D2E/DX2                !
 ! D20   D(18,6,7,8)            56.8414         estimate D2E/DX2                !
 ! D21   D(18,6,7,9)           -59.7063         estimate D2E/DX2                !
 ! D22   D(18,6,7,13)          171.7563         estimate D2E/DX2                !
 ! D23   D(6,7,9,10)           169.0886         estimate D2E/DX2                !
 ! D24   D(6,7,9,19)           -69.861          estimate D2E/DX2                !
 ! D25   D(6,7,9,20)            49.1474         estimate D2E/DX2                !
 ! D26   D(8,7,9,10)            52.9342         estimate D2E/DX2                !
 ! D27   D(8,7,9,19)           173.9846         estimate D2E/DX2                !
 ! D28   D(8,7,9,20)           -67.0071         estimate D2E/DX2                !
 ! D29   D(13,7,9,10)          -61.8567         estimate D2E/DX2                !
 ! D30   D(13,7,9,19)           59.1937         estimate D2E/DX2                !
 ! D31   D(13,7,9,20)          178.202          estimate D2E/DX2                !
 ! D32   D(6,7,13,12)         -166.3784         estimate D2E/DX2                !
 ! D33   D(6,7,13,14)          -49.5709         estimate D2E/DX2                !
 ! D34   D(6,7,13,15)           75.0214         Frozen                          !
 ! D35   D(8,7,13,12)          -51.8384         estimate D2E/DX2                !
 ! D36   D(8,7,13,14)           64.9691         estimate D2E/DX2                !
 ! D37   D(8,7,13,15)         -170.4386         estimate D2E/DX2                !
 ! D38   D(9,7,13,12)           63.0005         estimate D2E/DX2                !
 ! D39   D(9,7,13,14)          179.808          estimate D2E/DX2                !
 ! D40   D(9,7,13,15)          -55.5997         estimate D2E/DX2                !
 ! D41   D(7,9,10,11)           54.8123         Frozen                          !
 ! D42   D(7,9,10,21)          176.6011         estimate D2E/DX2                !
 ! D43   D(7,9,10,22)          -65.1685         estimate D2E/DX2                !
 ! D44   D(19,9,10,11)         -66.3873         estimate D2E/DX2                !
 ! D45   D(19,9,10,21)          55.4014         estimate D2E/DX2                !
 ! D46   D(19,9,10,22)         173.6319         estimate D2E/DX2                !
 ! D47   D(20,9,10,11)         175.3877         estimate D2E/DX2                !
 ! D48   D(20,9,10,21)         -62.8236         estimate D2E/DX2                !
 ! D49   D(20,9,10,22)          55.4069         estimate D2E/DX2                !
 ! D50   D(9,10,11,12)         -52.8224         Frozen                          !
 ! D51   D(9,10,11,23)          67.7638         estimate D2E/DX2                !
 ! D52   D(9,10,11,24)        -174.689          estimate D2E/DX2                !
 ! D53   D(21,10,11,12)       -174.705          estimate D2E/DX2                !
 ! D54   D(21,10,11,23)        -54.1188         estimate D2E/DX2                !
 ! D55   D(21,10,11,24)         63.4285         estimate D2E/DX2                !
 ! D56   D(22,10,11,12)         67.3818         estimate D2E/DX2                !
 ! D57   D(22,10,11,23)       -172.032          estimate D2E/DX2                !
 ! D58   D(22,10,11,24)        -54.4847         estimate D2E/DX2                !
 ! D59   D(10,11,12,13)         56.4301         estimate D2E/DX2                !
 ! D60   D(10,11,12,25)        177.3221         estimate D2E/DX2                !
 ! D61   D(10,11,12,26)        -64.9628         estimate D2E/DX2                !
 ! D62   D(23,11,12,13)        -64.0243         estimate D2E/DX2                !
 ! D63   D(23,11,12,25)         56.8677         estimate D2E/DX2                !
 ! D64   D(23,11,12,26)        174.5828         estimate D2E/DX2                !
 ! D65   D(24,11,12,13)        178.3721         estimate D2E/DX2                !
 ! D66   D(24,11,12,25)        -60.7359         estimate D2E/DX2                !
 ! D67   D(24,11,12,26)         56.9792         estimate D2E/DX2                !
 ! D68   D(11,12,13,7)         -59.992          estimate D2E/DX2                !
 ! D69   D(11,12,13,14)       -179.2137         estimate D2E/DX2                !
 ! D70   D(11,12,13,15)         61.6101         estimate D2E/DX2                !
 ! D71   D(25,12,13,7)         179.1221         estimate D2E/DX2                !
 ! D72   D(25,12,13,14)         59.9005         estimate D2E/DX2                !
 ! D73   D(25,12,13,15)        -59.2758         estimate D2E/DX2                !
 ! D74   D(26,12,13,7)          61.3857         estimate D2E/DX2                !
 ! D75   D(26,12,13,14)        -57.836          estimate D2E/DX2                !
 ! D76   D(26,12,13,15)       -177.0122         estimate D2E/DX2                !
 ! D77   D(7,13,15,16)         -67.1597         Frozen                          !
 ! D78   D(12,13,15,16)        175.7621         estimate D2E/DX2                !
 ! D79   D(14,13,15,16)         58.0994         estimate D2E/DX2                !
 ! D80   D(13,15,16,4)           3.6705         estimate D2E/DX2                !
 ! D81   D(13,15,16,27)       -174.0384         estimate D2E/DX2                !
 --------------------------------------------------------------------------------
 Trust Radius=3.00D-01 FncErr=1.00D-07 GrdErr=1.00D-07 EigMax=2.50D+02 EigMin=1.00D-04
 Number of steps in this run=     20 maximum allowed number of steps=    162.
 GradGradGradGradGradGradGradGradGradGradGradGradGradGradGradGradGradGrad

                          Input orientation:                          
 ---------------------------------------------------------------------
 Center     Atomic      Atomic             Coordinates (Angstroms)
 Number     Number       Type             X           Y           Z
 ---------------------------------------------------------------------
      1          8           0       -3.624050   -1.468640   -0.166300
      2          7           0       -3.277050   -0.303640    0.016850
      3          8           0       -4.056780    0.623810    0.233930
      4          6           0       -1.789890    0.000680   -0.030160
      5          6           0       -1.368080    1.300720    0.283320
      6          7           0       -0.079530    1.767350    0.355220
      7          6           0        1.200850    1.000150    0.341830
      8          1           0        1.855260    1.500100    1.102660
      9          6           0        1.983400    1.046770   -0.994220
     10          6           0        3.390310    0.455140   -0.784590
     11          6           0        3.313870   -0.959730   -0.189250
     12          6           0        2.447380   -0.988210    1.088660
     13          6           0        1.016840   -0.443020    0.825520
     14          1           0        0.456630   -0.479960    1.789270
     15          7           0        0.369340   -1.301060   -0.165900
     16          6           0       -0.866690   -1.080100   -0.476830
     17          1           0       -2.145810    2.037790    0.543480
     18          1           0        0.144880    2.745340    0.156820
     19          1           0        1.442780    0.472110   -1.776020
     20          1           0        2.078810    2.096200   -1.345310
     21          1           0        3.938430    0.427650   -1.751720
     22          1           0        3.960350    1.107460   -0.085890
     23          1           0        2.873480   -1.647760   -0.945870
     24          1           0        4.336970   -1.328240    0.042290
     25          1           0        2.377570   -2.034240    1.459680
     26          1           0        2.935210   -0.380480    1.879410
     27          1           0       -1.353490   -1.803190   -1.148900
 ---------------------------------------------------------------------
                    Distance matrix (angstroms):
                    1          2          3          4          5
     1  O    0.000000
     2  N    1.229300   0.000000
     3  O    2.173887   1.230961   0.000000
     4  C    2.354056   1.518705   2.365761   0.000000
     5  C    3.600127   2.507817   2.773041   1.402247   0.000000
     6  N    4.827757   3.824608   4.140159   2.488970   1.372324
     7  C    5.443600   4.675154   5.272186   3.175192   2.587116
     8  H    6.359757   5.547348   6.039436   4.101056   3.331815
     9  C    6.201309   5.524328   6.178270   4.032547   3.595694
    10  C    7.299620   6.758087   7.518310   5.254538   4.949516
    11  C    6.956598   6.626700   7.550706   5.195774   5.220499
    12  C    6.218360   5.864001   6.755240   4.492674   4.521671
    13  C    4.855251   4.371598   5.218211   2.967624   3.003740
    14  H    4.631813   4.136777   4.899823   2.930562   2.961127
    15  N    3.996905   3.784759   4.843091   2.524921   3.160646
    16  C    2.801861   2.580009   3.685806   1.489932   2.549024
    17  H    3.870921   2.653175   2.397283   2.146057   1.102642
    18  H    5.662761   4.585354   4.707524   3.363251   2.095704
    19  H    5.659547   5.108127   5.857309   3.704110   3.581677
    20  H    6.827940   6.024944   6.504414   4.592131   3.894390
    21  H    7.956166   7.464970   8.240429   5.996643   5.750016
    22  H    8.010361   7.374396   8.038070   5.856051   5.344701
    23  H    6.546580   6.368870   7.387859   5.030199   5.309922
    24  H    7.964990   7.682692   8.619876   6.269744   6.286265
    25  H    6.243649   6.086991   7.068844   4.871165   5.151279
    26  H    6.956502   6.485924   7.252870   5.110608   4.887969
    27  H    2.496571   2.703277   3.887200   2.167019   3.418439
                    6          7          8          9         10
     6  N    0.000000
     7  C    1.492698   0.000000
     8  H    2.091292   1.121189   0.000000
     9  C    2.568249   1.549060   2.149147   0.000000
    10  C    3.880831   2.521823   2.647647   1.540573   0.000000
    11  C    4.387320   2.930534   3.138047   2.538537   1.536922
    12  C    3.810029   2.462756   2.557829   2.948696   2.545868
    13  C    2.511761   1.533152   2.134355   2.542669   3.005413
    14  H    2.719259   2.199925   2.519571   3.522747   4.013184
    15  N    3.144549   2.498953   3.415216   2.967088   3.548701
    16  C    3.069185   3.045056   4.069549   3.593645   4.535827
    17  H    2.092389   3.509629   4.075580   4.516306   5.909076
    18  H    1.022833   2.048167   2.317463   2.755030   4.082167
    19  H    2.921859   2.196052   3.084429   1.110727   2.185428
    20  H    2.767377   2.195127   2.529401   1.110707   2.174285
    21  H    4.730539   3.493573   3.692862   2.186151   1.111994
    22  H    4.117118   2.794512   2.449127   2.176483   1.112946
    23  H    4.698519   3.386339   3.891307   2.838146   2.171477
    24  H    5.402414   3.917445   3.909319   3.500617   2.181820
    25  H    4.659320   3.441189   3.590519   3.958487   3.501343
    26  H    4.003122   2.697832   2.303522   3.346750   2.828829
    27  H    4.078493   4.075002   5.126141   4.391017   5.266537
                   11         12         13         14         15
    11  C    0.000000
    12  C    1.544238   0.000000
    13  C    2.563805   1.553357   0.000000
    14  H    3.508353   2.170774   1.115354   0.000000
    15  N    2.964339   2.447457   1.462328   2.122384   0.000000
    16  C    4.192168   3.666369   2.376904   2.691942   1.293550
    17  H    6.271373   5.527322   4.029432   3.829328   4.239943
    18  H    4.887720   4.484331   3.372405   3.628311   4.065450
    19  H    2.840595   3.368701   2.790501   3.819715   2.624670
    20  H    3.492929   3.946345   3.505413   4.369629   3.981792
    21  H    2.180874   3.506515   3.991982   5.048296   4.271026
    22  H    2.168385   2.839098   3.449479   4.279273   4.324664
    23  H    1.113464   2.180798   2.834843   3.832220   2.645614
    24  H    1.111820   2.186564   3.524248   4.339188   3.973181
    25  H    2.179495   1.112074   2.187630   2.492875   2.685712
    26  H    2.181345   1.110225   2.189689   2.482213   3.407998
    27  H    4.839070   4.485251   3.371478   3.695986   2.046110
                   16         17         18         19         20
    16  C    0.000000
    17  H    3.521139   0.000000
    18  H    4.007340   2.428455   0.000000
    19  H    3.070977   4.550760   3.253919   0.000000
    20  H    4.418044   4.627997   2.533350   1.796584   0.000000
    21  H    5.194982   6.699140   4.837896   2.496164   2.531287
    22  H    5.313997   6.208608   4.159251   3.098123   2.470615
    23  H    3.811969   6.402711   5.287770   2.688847   3.848154
    24  H    5.235374   7.321734   5.846434   3.863140   4.330301
    25  H    3.896880   6.154821   5.433851   4.198259   5.001776
    26  H    4.527226   5.783555   4.530343   4.039360   4.155260
    27  H    1.100687   4.271422   4.963783   3.659152   5.198510
                   21         22         23         24         25
    21  H    0.000000
    22  H    1.799336   0.000000
    23  H    2.467963   3.084168   0.000000
    24  H    2.541743   2.467976   1.794535   0.000000
    25  H    4.337082   3.842429   2.486356   2.519262   0.000000
    26  H    3.852873   2.669697   3.097098   2.497637   1.795009
    27  H    5.774466   6.151323   4.234697   5.833168   4.558386
                   26         27
    26  H    0.000000
    27  H    5.439459   0.000000
 Symmetry turned off by external request.
 Stoichiometry    C9H13N3O2
 Framework group  C1[X(C9H13N3O2)]
 Deg. of freedom    75
 Full point group                 C1      NOp   1
 Rotational constants (GHZ):           1.6886289           0.3975895           0.3537146
 Standard basis: 6-31G(d) (6D, 7F)
   236 basis functions,   444 primitive gaussians,   236 cartesian basis functions
    52 alpha electrons       52 beta electrons
       nuclear repulsion energy       917.1333095525 Hartrees.
 NAtoms=   27 NActive=   27 NUniq=   27 SFac= 1.00D+00 NAtFMM=   60 NAOKFM=F Big=F
 Integral buffers will be    131072 words long.
 Raffenetti 1 integral format.
 Two-electron integral symmetry is turned off.
 One-electron integrals computed using PRISM.
 NBasis=   236 RedAO= T EigKep=  1.29D-03  NBF=   236
 NBsUse=   236 1.00D-06 EigRej= -1.00D+00 NBFU=   236
 ExpMin= 1.61D-01 ExpMax= 5.48D+03 ExpMxC= 8.25D+02 IAcc=3 IRadAn=         5 AccDes= 0.00D+00
 Harris functional with IExCor=  205 and IRadAn=       5 diagonalized for initial guess.
 HarFok:  IExCor=  205 AccDes= 0.00D+00 IRadAn=         5 IDoV= 1 UseB2=F ITyADJ=14
 ICtDFT=  3500011 ScaDFX=  1.000000  1.000000  1.000000  1.000000
 FoFCou: FMM=F IPFlag=           0 FMFlag=      100000 FMFlg1=           0
         NFxFlg=           0 DoJE=T BraDBF=F KetDBF=T FulRan=T
         wScrn=  0.000000 ICntrl=       500 IOpCl=  0 I1Cent=   200000004 NGrid=           0
         NMat0=    1 NMatS0=      1 NMatT0=    0 NMatD0=    1 NMtDS0=    0 NMtDT0=    0
 Symmetry not used in FoFCou.
 Keep R1 ints in memory in canonical form, NReq=397720213.
 Requested convergence on RMS density matrix=1.00D-08 within 128 cycles.
 Requested convergence on MAX density matrix=1.00D-06.
 Requested convergence on             energy=1.00D-06.
 No special actions if energy rises.
 SCF Done:  E(RHF) =  -661.278956870     A.U. after   16 cycles
            NFock= 16  Conv=0.77D-08     -V/T= 2.0037
 ExpMin= 1.61D-01 ExpMax= 5.48D+03 ExpMxC= 8.25D+02 IAcc=3 IRadAn=         5 AccDes= 0.00D+00
 HarFok:  IExCor=  205 AccDes= 0.00D+00 IRadAn=         5 IDoV=-2 UseB2=F ITyADJ=14
 ICtDFT= 12500011 ScaDFX=  1.000000  1.000000  1.000000  1.000000
 Range of M.O.s used for correlation:    15   236
 NBasis=   236 NAE=    52 NBE=    52 NFC=    14 NFV=     0
 NROrb=    222 NOA=    38 NOB=    38 NVA=   184 NVB=   184
 Fully direct method using O(ONN) memory.
 JobTyp=1 Pass  1:  I=  15 to  52 NPSUse=  4 ParTrn=T ParDer=T DoDerP=T.
 Spin components of T(2) and E(2):
     alpha-alpha T2 =       0.9196110943D-01 E2=     -0.2717764732D+00
     alpha-beta  T2 =       0.4998136450D+00 E2=     -0.1493936922D+01
     beta-beta   T2 =       0.9196110943D-01 E2=     -0.2717764732D+00
 ANorm=    0.1297588480D+01
 E2 =    -0.2037489869D+01 EUMP2 =    -0.66331644673872D+03
          IDoAtm=111111111111111111111111111
          Differentiating once with respect to electric field.
                with respect to dipole field.
          Differentiating once with respect to nuclear coordinates.
 Keep R1 ints in memory in canonical form, NReq=397723379.
          There are     1 degrees of freedom in the 1st order CPHF.  IDoFFX=0 NUNeed=     1.
 LinEq1:  Iter=  0 NonCon=     1 RMS=4.60D-03 Max=1.13D-01 NDo=     1
 AX will form     1 AO Fock derivatives at one time.
 LinEq1:  Iter=  1 NonCon=     1 RMS=1.56D-03 Max=3.25D-02 NDo=     1
 LinEq1:  Iter=  2 NonCon=     1 RMS=6.38D-04 Max=1.79D-02 NDo=     1
 LinEq1:  Iter=  3 NonCon=     1 RMS=2.95D-04 Max=9.41D-03 NDo=     1
 LinEq1:  Iter=  4 NonCon=     1 RMS=9.08D-05 Max=2.03D-03 NDo=     1
 LinEq1:  Iter=  5 NonCon=     1 RMS=3.80D-05 Max=1.96D-03 NDo=     1
 LinEq1:  Iter=  6 NonCon=     1 RMS=1.54D-05 Max=5.65D-04 NDo=     1
 LinEq1:  Iter=  7 NonCon=     1 RMS=5.99D-06 Max=1.02D-04 NDo=     1
 LinEq1:  Iter=  8 NonCon=     1 RMS=2.38D-06 Max=6.22D-05 NDo=     1
 LinEq1:  Iter=  9 NonCon=     1 RMS=8.85D-07 Max=2.53D-05 NDo=     1
 LinEq1:  Iter= 10 NonCon=     1 RMS=4.36D-07 Max=1.55D-05 NDo=     1
 LinEq1:  Iter= 11 NonCon=     1 RMS=1.54D-07 Max=5.75D-06 NDo=     1
 LinEq1:  Iter= 12 NonCon=     1 RMS=5.41D-08 Max=8.08D-07 NDo=     1
 LinEq1:  Iter= 13 NonCon=     1 RMS=1.70D-08 Max=2.99D-07 NDo=     1
 LinEq1:  Iter= 14 NonCon=     1 RMS=5.44D-09 Max=1.39D-07 NDo=     1
 LinEq1:  Iter= 15 NonCon=     1 RMS=2.07D-09 Max=4.57D-08 NDo=     1
 LinEq1:  Iter= 16 NonCon=     1 RMS=8.21D-10 Max=1.52D-08 NDo=     1
 LinEq1:  Iter= 17 NonCon=     1 RMS=2.69D-10 Max=4.18D-09 NDo=     1
 LinEq1:  Iter= 18 NonCon=     1 RMS=9.18D-11 Max=1.25D-09 NDo=     1
 LinEq1:  Iter= 19 NonCon=     0 RMS=2.97D-11 Max=5.13D-10 NDo=     1
 Linear equations converged to 1.000D-10 1.000D-09 after    19 iterations.
 End of Minotr F.D. properties file   721 does not exist.
 End of Minotr F.D. properties file   722 does not exist.
 End of Minotr F.D. properties file   788 does not exist.

 **********************************************************************

            Population analysis using the SCF Density.

 **********************************************************************

 Alpha  occ. eigenvalues --  -20.60004 -20.59564 -15.85566 -15.63291 -15.56968
 Alpha  occ. eigenvalues --  -11.35868 -11.30451 -11.30130 -11.30017 -11.27620
 Alpha  occ. eigenvalues --  -11.24608 -11.23866 -11.23386 -11.22845  -1.58712
 Alpha  occ. eigenvalues --   -1.38257  -1.28582  -1.22748  -1.13289  -1.08454
 Alpha  occ. eigenvalues --   -1.01786  -1.00721  -0.93629  -0.89150  -0.84959
 Alpha  occ. eigenvalues --   -0.81481  -0.78194  -0.76882  -0.74265  -0.71314
 Alpha  occ. eigenvalues --   -0.70514  -0.69984  -0.67455  -0.64353  -0.63264
 Alpha  occ. eigenvalues --   -0.61535  -0.60144  -0.57422  -0.56457  -0.54899
 Alpha  occ. eigenvalues --   -0.53415  -0.50723  -0.49243  -0.48542  -0.47927
 Alpha  occ. eigenvalues --   -0.47683  -0.46093  -0.45717  -0.44153  -0.42068
 Alpha  occ. eigenvalues --   -0.40076  -0.33879
 Alpha virt. eigenvalues --    0.07187   0.11811   0.18321   0.21391   0.23268
 Alpha virt. eigenvalues --    0.24208   0.26351   0.27732   0.28542   0.28901
 Alpha virt. eigenvalues --    0.30047   0.31108   0.31849   0.32260   0.33362
 Alpha virt. eigenvalues --    0.33746   0.34110   0.35510   0.37606   0.38568
 Alpha virt. eigenvalues --    0.40703   0.41842   0.44359   0.45245   0.45871
 Alpha virt. eigenvalues --    0.45926   0.49557   0.53001   0.57489   0.58975
 Alpha virt. eigenvalues --    0.63264   0.69254   0.69812   0.72196   0.74137
 Alpha virt. eigenvalues --    0.75449   0.75710   0.75880   0.77861   0.79350
 Alpha virt. eigenvalues --    0.80124   0.83660   0.85137   0.85391   0.87970
 Alpha virt. eigenvalues --    0.88911   0.89988   0.91090   0.92005   0.93672
 Alpha virt. eigenvalues --    0.95390   0.97248   0.98712   1.00316   1.01835
 Alpha virt. eigenvalues --    1.02696   1.05256   1.06220   1.06761   1.08885
 Alpha virt. eigenvalues --    1.09394   1.10463   1.11374   1.11769   1.13248
 Alpha virt. eigenvalues --    1.13786   1.14225   1.15230   1.16366   1.17423
 Alpha virt. eigenvalues --    1.17860   1.19929   1.21022   1.22197   1.22966
 Alpha virt. eigenvalues --    1.23708   1.24212   1.25772   1.26977   1.27650
 Alpha virt. eigenvalues --    1.29573   1.31118   1.32893   1.35128   1.39855
 Alpha virt. eigenvalues --    1.43025   1.46047   1.46887   1.48882   1.52377
 Alpha virt. eigenvalues --    1.54349   1.55414   1.60928   1.61474   1.66368
 Alpha virt. eigenvalues --    1.69073   1.69846   1.72633   1.73092   1.77268
 Alpha virt. eigenvalues --    1.78189   1.79397   1.84281   1.89304   1.92703
 Alpha virt. eigenvalues --    1.93721   1.96644   1.97678   1.98805   2.01916
 Alpha virt. eigenvalues --    2.02903   2.03334   2.05985   2.08984   2.11659
 Alpha virt. eigenvalues --    2.13069   2.13560   2.17768   2.18658   2.19056
 Alpha virt. eigenvalues --    2.21209   2.22197   2.24341   2.24909   2.26698
 Alpha virt. eigenvalues --    2.28839   2.32503   2.33847   2.35388   2.35872
 Alpha virt. eigenvalues --    2.38412   2.39929   2.41468   2.42673   2.46261
 Alpha virt. eigenvalues --    2.48550   2.50414   2.51038   2.56641   2.57846
 Alpha virt. eigenvalues --    2.60982   2.62865   2.66274   2.68067   2.68822
 Alpha virt. eigenvalues --    2.70002   2.70894   2.74692   2.76644   2.80886
 Alpha virt. eigenvalues --    2.84562   2.86905   2.90140   2.91857   2.95393
 Alpha virt. eigenvalues --    2.97481   2.99000   3.01662   3.03262   3.05775
 Alpha virt. eigenvalues --    3.06784   3.12663   3.19580   3.22767   3.27097
 Alpha virt. eigenvalues --    3.31113   3.32997   3.37076   3.45329   3.58706
 Alpha virt. eigenvalues --    4.10434   4.24048   4.31704   4.36133   4.43674
 Alpha virt. eigenvalues --    4.53060   4.59929   4.60360   4.70875   4.77844
 Alpha virt. eigenvalues --    4.95799   4.99287   5.02511   5.10244
          Condensed to atoms (all electrons):
               1          2          3          4          5          6
     1  O    8.297386   0.314412  -0.088111  -0.080739   0.003395  -0.000012
     2  N    0.314412   5.681886   0.310575   0.262821  -0.043294   0.000851
     3  O   -0.088111   0.310575   8.328005  -0.088732   0.007875   0.000432
     4  C   -0.080739   0.262821  -0.088732   5.251095   0.561251  -0.045203
     5  C    0.003395  -0.043294   0.007875   0.561251   4.669093   0.308606
     6  N   -0.000012   0.000851   0.000432  -0.045203   0.308606   7.194364
     7  C    0.000003  -0.000078   0.000002   0.004445  -0.029743   0.197012
     8  H   -0.000000   0.000002  -0.000000  -0.000222   0.002322  -0.050797
     9  C   -0.000000  -0.000002   0.000000   0.000551   0.001571  -0.055142
    10  C   -0.000000   0.000000  -0.000000  -0.000021  -0.000058   0.003308
    11  C   -0.000000  -0.000000  -0.000000  -0.000010   0.000012  -0.000155
    12  C   -0.000000   0.000002  -0.000000  -0.000115  -0.000084   0.003653
    13  C   -0.000019  -0.000033  -0.000003  -0.010752   0.000411  -0.044904
    14  H   -0.000003  -0.000055   0.000000   0.003304   0.005006  -0.005742
    15  N    0.000123   0.001570  -0.000011  -0.059755  -0.002859   0.001393
    16  C    0.003643  -0.026348   0.001888   0.313772  -0.042291  -0.002220
    17  H    0.000109  -0.003914   0.011290  -0.029519   0.379288  -0.035804
    18  H    0.000000  -0.000031   0.000007   0.000807  -0.024283   0.328423
    19  H    0.000000  -0.000000   0.000000  -0.000708   0.000595   0.000740
    20  H    0.000000  -0.000000   0.000000  -0.000021   0.000017  -0.001857
    21  H   -0.000000  -0.000000   0.000000   0.000000   0.000001  -0.000058
    22  H   -0.000000   0.000000  -0.000000  -0.000000  -0.000002  -0.000098
    23  H    0.000000  -0.000000   0.000000   0.000024  -0.000001  -0.000024
    24  H    0.000000   0.000000   0.000000   0.000000  -0.000000   0.000004
    25  H    0.000000  -0.000000   0.000000   0.000018  -0.000001  -0.000073
    26  H    0.000000  -0.000000   0.000000   0.000007  -0.000003  -0.000068
    27  H    0.004999  -0.000271  -0.000002  -0.068579   0.002512   0.000064
               7          8          9         10         11         12
     1  O    0.000003  -0.000000  -0.000000  -0.000000  -0.000000  -0.000000
     2  N   -0.000078   0.000002  -0.000002   0.000000  -0.000000   0.000002
     3  O    0.000002  -0.000000   0.000000  -0.000000  -0.000000  -0.000000
     4  C    0.004445  -0.000222   0.000551  -0.000021  -0.000010  -0.000115
     5  C   -0.029743   0.002322   0.001571  -0.000058   0.000012  -0.000084
     6  N    0.197012  -0.050797  -0.055142   0.003308  -0.000155   0.003653
     7  C    4.998005   0.417425   0.340844  -0.049380  -0.007689  -0.064279
     8  H    0.417425   0.548829  -0.060950   0.001617  -0.000357  -0.002702
     9  C    0.340844  -0.060950   5.181632   0.317692  -0.053013  -0.006420
    10  C   -0.049380   0.001617   0.317692   5.126606   0.332777  -0.059954
    11  C   -0.007689  -0.000357  -0.053013   0.332777   5.123403   0.330744
    12  C   -0.064279  -0.002702  -0.006420  -0.059954   0.330744   5.136887
    13  C    0.335086  -0.041361  -0.049431  -0.001865  -0.047769   0.368245
    14  H   -0.039900  -0.000961   0.003870  -0.000395   0.003943  -0.040690
    15  N   -0.057800   0.004126  -0.013207   0.001447  -0.007597  -0.074404
    16  C   -0.003253   0.000101  -0.001281  -0.000001  -0.000017   0.002715
    17  H    0.001524  -0.000010  -0.000071   0.000001   0.000000   0.000001
    18  H   -0.028422  -0.002478   0.000840  -0.000122   0.000012  -0.000137
    19  H   -0.034862   0.004107   0.385721  -0.032350  -0.002296   0.000652
    20  H   -0.041634  -0.001913   0.397196  -0.037412   0.004152  -0.000361
    21  H    0.004041  -0.000082  -0.035823   0.400158  -0.035823   0.004201
    22  H   -0.004154   0.003502  -0.045700   0.396021  -0.045668  -0.001214
    23  H    0.000420   0.000033  -0.002007  -0.040068   0.396691  -0.036631
    24  H   -0.000141  -0.000097   0.004398  -0.038493   0.400332  -0.037844
    25  H    0.004984  -0.000005  -0.000366   0.004095  -0.034013   0.395453
    26  H   -0.004448   0.001642   0.001027  -0.002369  -0.042357   0.394784
    27  H   -0.000433   0.000010  -0.000067   0.000006   0.000004  -0.000016
              13         14         15         16         17         18
     1  O   -0.000019  -0.000003   0.000123   0.003643   0.000109   0.000000
     2  N   -0.000033  -0.000055   0.001570  -0.026348  -0.003914  -0.000031
     3  O   -0.000003   0.000000  -0.000011   0.001888   0.011290   0.000007
     4  C   -0.010752   0.003304  -0.059755   0.313772  -0.029519   0.000807
     5  C    0.000411   0.005006  -0.002859  -0.042291   0.379288  -0.024283
     6  N   -0.044904  -0.005742   0.001393  -0.002220  -0.035804   0.328423
     7  C    0.335086  -0.039900  -0.057800  -0.003253   0.001524  -0.028422
     8  H   -0.041361  -0.000961   0.004126   0.000101  -0.000010  -0.002478
     9  C   -0.049431   0.003870  -0.013207  -0.001281  -0.000071   0.000840
    10  C   -0.001865  -0.000395   0.001447  -0.000001   0.000001  -0.000122
    11  C   -0.047769   0.003943  -0.007597  -0.000017   0.000000   0.000012
    12  C    0.368245  -0.040690  -0.074404   0.002715   0.000001  -0.000137
    13  C    5.029126   0.401515   0.237029  -0.070593  -0.000046   0.003753
    14  H    0.401515   0.520365  -0.036063  -0.004694   0.000076   0.000014
    15  N    0.237029  -0.036063   6.932104   0.588759  -0.000060  -0.000121
    16  C   -0.070593  -0.004694   0.588759   4.705992   0.002041  -0.000247
    17  H   -0.000046   0.000076  -0.000060   0.002041   0.395461  -0.001960
    18  H    0.003753   0.000014  -0.000121  -0.000247  -0.001960   0.323010
    19  H   -0.006325   0.000063   0.006954   0.002696   0.000011  -0.000128
    20  H    0.003865  -0.000048   0.000084  -0.000031  -0.000001   0.002966
    21  H   -0.000369   0.000009  -0.000028   0.000002  -0.000000  -0.000000
    22  H    0.000308  -0.000045   0.000001  -0.000001   0.000000   0.000002
    23  H   -0.005810   0.000007   0.006685   0.000051   0.000000   0.000000
    24  H    0.004125  -0.000057   0.000048   0.000006   0.000000  -0.000000
    25  H   -0.034569  -0.002635   0.000631  -0.000068  -0.000000   0.000002
    26  H   -0.044787  -0.000915   0.004195  -0.000063   0.000000  -0.000001
    27  H    0.005159  -0.000197  -0.041209   0.403507  -0.000063   0.000003
              19         20         21         22         23         24
     1  O    0.000000   0.000000  -0.000000  -0.000000   0.000000   0.000000
     2  N   -0.000000  -0.000000  -0.000000   0.000000  -0.000000   0.000000
     3  O    0.000000   0.000000   0.000000  -0.000000   0.000000   0.000000
     4  C   -0.000708  -0.000021   0.000000  -0.000000   0.000024   0.000000
     5  C    0.000595   0.000017   0.000001  -0.000002  -0.000001  -0.000000
     6  N    0.000740  -0.001857  -0.000058  -0.000098  -0.000024   0.000004
     7  C   -0.034862  -0.041634   0.004041  -0.004154   0.000420  -0.000141
     8  H    0.004107  -0.001913  -0.000082   0.003502   0.000033  -0.000097
     9  C    0.385721   0.397196  -0.035823  -0.045700  -0.002007   0.004398
    10  C   -0.032350  -0.037412   0.400158   0.396021  -0.040068  -0.038493
    11  C   -0.002296   0.004152  -0.035823  -0.045668   0.396691   0.400332
    12  C    0.000652  -0.000361   0.004201  -0.001214  -0.036631  -0.037844
    13  C   -0.006325   0.003865  -0.000369   0.000308  -0.005810   0.004125
    14  H    0.000063  -0.000048   0.000009  -0.000045   0.000007  -0.000057
    15  N    0.006954   0.000084  -0.000028   0.000001   0.006685   0.000048
    16  C    0.002696  -0.000031   0.000002  -0.000001   0.000051   0.000006
    17  H    0.000011  -0.000001  -0.000000   0.000000   0.000000   0.000000
    18  H   -0.000128   0.002966  -0.000000   0.000002   0.000000  -0.000000
    19  H    0.506315  -0.024147  -0.002599   0.003751   0.001633  -0.000069
    20  H   -0.024147   0.550875  -0.002591  -0.002990  -0.000050  -0.000090
    21  H   -0.002599  -0.002591   0.526096  -0.024697  -0.002811  -0.002048
    22  H    0.003751  -0.002990  -0.024697   0.568715   0.004064  -0.003598
    23  H    0.001633  -0.000050  -0.002811   0.004064   0.509951  -0.025035
    24  H   -0.000069  -0.000090  -0.002048  -0.003598  -0.025035   0.541052
    25  H   -0.000027   0.000011  -0.000086  -0.000082  -0.002109  -0.002369
    26  H    0.000023  -0.000035  -0.000074   0.002467   0.003825  -0.002790
    27  H    0.000079  -0.000000  -0.000000   0.000000  -0.000022  -0.000000
              25         26         27
     1  O    0.000000   0.000000   0.004999
     2  N   -0.000000  -0.000000  -0.000271
     3  O    0.000000   0.000000  -0.000002
     4  C    0.000018   0.000007  -0.068579
     5  C   -0.000001  -0.000003   0.002512
     6  N   -0.000073  -0.000068   0.000064
     7  C    0.004984  -0.004448  -0.000433
     8  H   -0.000005   0.001642   0.000010
     9  C   -0.000366   0.001027  -0.000067
    10  C    0.004095  -0.002369   0.000006
    11  C   -0.034013  -0.042357   0.000004
    12  C    0.395453   0.394784  -0.000016
    13  C   -0.034569  -0.044787   0.005159
    14  H   -0.002635  -0.000915  -0.000197
    15  N    0.000631   0.004195  -0.041209
    16  C   -0.000068  -0.000063   0.403507
    17  H   -0.000000   0.000000  -0.000063
    18  H    0.000002  -0.000001   0.000003
    19  H   -0.000027   0.000023   0.000079
    20  H    0.000011  -0.000035  -0.000000
    21  H   -0.000086  -0.000074  -0.000000
    22  H   -0.000082   0.002467   0.000000
    23  H   -0.002109   0.003825  -0.000022
    24  H   -0.002369  -0.002790  -0.000000
    25  H    0.511246  -0.023074  -0.000010
    26  H   -0.023074   0.560707   0.000001
    27  H   -0.000010   0.000001   0.461307
 Mulliken charges:
               1
     1  O   -0.455185
     2  N    0.501910
     3  O   -0.483216
     4  C   -0.013720
     5  C    0.200664
     6  N   -0.796695
     7  C    0.062429
     8  H    0.178220
     9  C   -0.311862
    10  C   -0.321241
    11  C   -0.315305
    12  C   -0.312485
    13  C   -0.029986
    14  H    0.194229
    15  N   -0.492035
    16  C    0.125936
    17  H    0.281646
    18  H    0.398089
    19  H    0.190172
    20  H    0.154014
    21  H    0.172582
    22  H    0.149417
    23  H    0.191186
    24  H    0.162664
    25  H    0.183045
    26  H    0.152307
    27  H    0.233220
 Sum of Mulliken charges =  -0.00000
 Mulliken charges with hydrogens summed into heavy atoms:
               1
     1  O   -0.455185
     2  N    0.501910
     3  O   -0.483216
     4  C   -0.013720
     5  C    0.482311
     6  N   -0.398605
     7  C    0.240648
     9  C    0.032324
    10  C    0.000758
    11  C    0.038545
    12  C    0.022867
    13  C    0.164243
    15  N   -0.492035
    16  C    0.359156
 Electronic spatial extent (au):  <R**2>=           3136.9172
 Charge=              0.0000 electrons
 Dipole moment (field-independent basis, Debye):
    X=              5.3089    Y=              4.5049    Z=              0.3729  Tot=              6.9726
 Quadrupole moment (field-independent basis, Debye-Ang):
   XX=           -105.3268   YY=            -80.5100   ZZ=            -82.2526
   XY=             -2.0691   XZ=              1.4099   YZ=             -0.2387
 Traceless Quadrupole moment (field-independent basis, Debye-Ang):
   XX=            -15.9637   YY=              8.8531   ZZ=              7.1105
   XY=             -2.0691   XZ=              1.4099   YZ=             -0.2387
 Octapole moment (field-independent basis, Debye-Ang**2):
  XXX=            101.5650  YYY=             37.0868  ZZZ=             -6.3019  XYY=             -0.4918
  XXY=             12.4814  XXZ=             -3.3569  XZZ=             -8.1054  YZZ=             -2.7251
  YYZ=              0.0786  XYZ=             -1.1608
 Hexadecapole moment (field-independent basis, Debye-Ang**3):
 XXXX=          -3578.5443 YYYY=           -616.4250 ZZZZ=           -300.0920 XXXY=            -49.2204
 XXXZ=             47.6204 YYYX=            -27.4876 YYYZ=              8.8372 ZZZX=             31.5003
 ZZZY=              9.1201 XXYY=           -660.2837 XXZZ=           -547.3976 YYZZ=           -163.7063
 XXYZ=              0.7069 YYXZ=             13.2637 ZZXY=              0.7718
 N-N= 9.171333095525D+02 E-N=-3.380240967375D+03  KE= 6.588595527039D+02
 Calling FoFJK, ICntrl=  10002127 FMM=F ISym2X=0 I1Cent= 0 IOpClX= 0 NMat=1 NMatS=1 NMatT=0.
 -------------------------------------------------------------------
 Center     Atomic                   Forces (Hartrees/Bohr)
 Number     Number              X              Y              Z
 -------------------------------------------------------------------
      1        8           0.001565214   -0.019076318   -0.004547099
      2        7           0.040923952    0.014707864   -0.000344581
      3        8          -0.006516895    0.015424361    0.003655314
      4        6           0.013406340    0.012819234    0.009038290
      5        6          -0.005841519   -0.013329491   -0.004546981
      6        7           0.013965126   -0.013103605   -0.006643534
      7        6          -0.004155234    0.005383391    0.003416644
      8        1          -0.009712975   -0.001755454   -0.007770706
      9        6          -0.004052024    0.000096030   -0.002139408
     10        6           0.002830322   -0.000839508    0.001083999
     11        6          -0.001329965   -0.004670716   -0.002508087
     12        6           0.000932529   -0.008789413   -0.002527462
     13        6           0.010314090   -0.003601593    0.006482316
     14        1           0.001014389    0.004944593   -0.009613305
     15        7          -0.002214136    0.004883500   -0.001708607
     16        6          -0.026371110   -0.000801335    0.003736529
     17        1           0.006610622   -0.004689101   -0.007116249
     18        1          -0.018036988   -0.001434559    0.006988559
     19        1           0.003053647    0.005908405    0.007798411
     20        1          -0.003287225   -0.007243761    0.002606738
     21        1          -0.004462344    0.002436911    0.009564314
     22        1          -0.003894561   -0.003995408   -0.007448623
     23        1           0.003985029    0.006176335    0.009295069
     24        1          -0.009350603    0.002661566   -0.002207650
     25        1          -0.000579128    0.010529543   -0.002359297
     26        1          -0.004779573   -0.004830600   -0.004392619
     27        1           0.005983021    0.002189129    0.002208024
 -------------------------------------------------------------------
 Cartesian Forces:  Max     0.040923952 RMS     0.008862609

 GradGradGradGradGradGradGradGradGradGradGradGradGradGradGradGradGradGrad
 Berny optimization.
 FormGI is forming the generalized inverse of G from B-inverse, IUseBI=4.
 Internal  Forces:  Max     0.037478753 RMS     0.007153100
 Search for a local minimum.
 Step number   1 out of a maximum of   20
 All quantities printed in internal units (Hartrees-Bohrs-Radians)
 Mixed Optimization -- RFO/linear search
 Second derivative matrix not updated -- first step.
 ITU=  0
     Eigenvalues ---    0.00230   0.00771   0.01021   0.01140   0.01196
     Eigenvalues ---    0.01529   0.01547   0.01638   0.01982   0.02022
     Eigenvalues ---    0.02061   0.02712   0.03699   0.04507   0.04695
     Eigenvalues ---    0.04841   0.05095   0.05139   0.05309   0.05925
     Eigenvalues ---    0.06251   0.07335   0.07698   0.07734   0.07889
     Eigenvalues ---    0.07988   0.08052   0.08074   0.10457   0.11746
     Eigenvalues ---    0.12274   0.13748   0.15407   0.15989   0.15994
     Eigenvalues ---    0.16523   0.20128   0.21943   0.24959   0.25000
     Eigenvalues ---    0.25000   0.25423   0.26180   0.26646   0.27967
     Eigenvalues ---    0.28086   0.28451   0.30410   0.30492   0.31444
     Eigenvalues ---    0.32040   0.32236   0.32290   0.32381   0.32390
     Eigenvalues ---    0.32408   0.32523   0.32525   0.32576   0.33156
     Eigenvalues ---    0.33392   0.33606   0.35460   0.43533   0.43889
     Eigenvalues ---    0.48750   0.66395   0.90687   0.913791000.00000
     Eigenvalues --- 1000.000001000.000001000.000001000.000001000.00000
     Eigenvalues --- 1000.000001000.000001000.000001000.000001000.00000
     Eigenvalues --- 1000.000001000.000001000.000001000.000001000.00000
     Eigenvalues --- 1000.000001000.000001000.000001000.000001000.00000
     Eigenvalues --- 1000.000001000.000001000.000001000.000001000.00000
     Eigenvalues --- 1000.000001000.000001000.000001000.000001000.00000
     Eigenvalues --- 1000.000001000.000001000.000001000.000001000.00000
     Eigenvalues --- 1000.000001000.000001000.000001000.000001000.00000
     Eigenvalues --- 1000.000001000.000001000.000001000.000001000.00000
     Eigenvalues --- 1000.000001000.000001000.000001000.000001000.00000
     Eigenvalues --- 1000.000001000.000001000.000001000.000001000.00000
     Eigenvalues --- 1000.000001000.000001000.000001000.000001000.00000
     Eigenvalues --- 1000.000001000.000001000.000001000.000001000.00000
     Eigenvalues --- 1000.000001000.000001000.000001000.000001000.00000
     Eigenvalues --- 1000.000001000.000001000.000001000.000001000.00000
     Eigenvalues --- 1000.000001000.000001000.000001000.000001000.00000
     Eigenvalues --- 1000.000001000.000001000.000001000.000001000.00000
     Eigenvalues --- 1000.000001000.000001000.000001000.000001000.00000
     Eigenvalues --- 1000.00000
 RFO step:  Lambda=-2.31850547D-02 EMin= 2.30000604D-03
 Linear search not attempted -- first point.
 Iteration  1 RMS(Cart)=  0.05227775 RMS(Int)=  0.00113093
 Iteration  2 RMS(Cart)=  0.00121897 RMS(Int)=  0.00022266
 Iteration  3 RMS(Cart)=  0.00000097 RMS(Int)=  0.00022266
 Iteration  1 RMS(Cart)=  0.00002271 RMS(Int)=  0.00002256
 Iteration  2 RMS(Cart)=  0.00001543 RMS(Int)=  0.00002417
 Iteration  3 RMS(Cart)=  0.00001116 RMS(Int)=  0.00002724
 Iteration  4 RMS(Cart)=  0.00000858 RMS(Int)=  0.00003049
 Iteration  5 RMS(Cart)=  0.00000693 RMS(Int)=  0.00003353
 Iteration  6 RMS(Cart)=  0.00000576 RMS(Int)=  0.00003628
 Iteration  7 RMS(Cart)=  0.00000489 RMS(Int)=  0.00003873
 Iteration  8 RMS(Cart)=  0.00000419 RMS(Int)=  0.00004090
 Iteration  9 RMS(Cart)=  0.00000361 RMS(Int)=  0.00004282
 Iteration 10 RMS(Cart)=  0.00000312 RMS(Int)=  0.00004450
 Iteration 11 RMS(Cart)=  0.00000270 RMS(Int)=  0.00004598
 Iteration 12 RMS(Cart)=  0.00000234 RMS(Int)=  0.00004728
 Iteration 13 RMS(Cart)=  0.00000203 RMS(Int)=  0.00004841
 Iteration 14 RMS(Cart)=  0.00000176 RMS(Int)=  0.00004940
 Iteration 15 RMS(Cart)=  0.00000153 RMS(Int)=  0.00005027
 Iteration 16 RMS(Cart)=  0.00000134 RMS(Int)=  0.00005102
 Iteration 17 RMS(Cart)=  0.00000116 RMS(Int)=  0.00005168
 Iteration 18 RMS(Cart)=  0.00000101 RMS(Int)=  0.00005225
 Iteration 19 RMS(Cart)=  0.00000088 RMS(Int)=  0.00005275
 Variable       Old X    -DE/DX   Delta X   Delta X   Delta X     New X
                                 (Linear)    (Quad)   (Total)
    R1        2.32304   0.01831   0.00000   0.01955   0.01955   2.34259
    R2        2.32618   0.01639   0.00000   0.01763   0.01763   2.34381
    R3        2.86994  -0.03748   0.00000  -0.11423  -0.11423   2.75571
    R4        2.64986  -0.03690   0.00000  -0.07331  -0.07321   2.57666
    R5        2.81556  -0.02209   0.00000  -0.05359  -0.05361   2.76195
    R6        2.59332  -0.02564   0.00000  -0.04936  -0.04920   2.54412
    R7        2.08369  -0.00948   0.00000  -0.02654  -0.02654   2.05715
    R8        2.82079  -0.01754   0.00000  -0.05626  -0.05614   2.76466
    R9        1.93287  -0.00668   0.00000  -0.01447  -0.01447   1.91841
   R10        2.11874  -0.01173   0.00000  -0.03473  -0.03473   2.08401
   R11        2.92730  -0.01319   0.00000  -0.04554  -0.04553   2.88177
   R12        2.89724  -0.00335   0.00000  -0.01431  -0.01421   2.88303
   R13        2.91126  -0.00458   0.00000  -0.01416  -0.01422   2.89704
   R14        2.09897  -0.01003   0.00000  -0.02879  -0.02879   2.07018
   R15        2.09893  -0.00795   0.00000  -0.02282  -0.02282   2.07611
   R16        2.90436  -0.00170   0.00000  -0.00684  -0.00691   2.89745
   R17        2.10136  -0.01058   0.00000  -0.03048  -0.03048   2.07089
   R18        2.10316  -0.00901   0.00000  -0.02604  -0.02604   2.07712
   R19        2.91819  -0.00914   0.00000  -0.02851  -0.02852   2.88967
   R20        2.10414  -0.01171   0.00000  -0.03388  -0.03388   2.07026
   R21        2.10104  -0.00995   0.00000  -0.02864  -0.02864   2.07239
   R22        2.93542  -0.01049   0.00000  -0.03626  -0.03620   2.89922
   R23        2.10151  -0.01065   0.00000  -0.03071  -0.03071   2.07081
   R24        2.09802  -0.00787   0.00000  -0.02256  -0.02256   2.07546
   R25        2.10771  -0.00898   0.00000  -0.02614  -0.02614   2.08158
   R26        2.76340  -0.00314   0.00000  -0.01200  -0.01222   2.75118
   R27        2.44445  -0.00806   0.00000  -0.00925  -0.00944   2.43501
   R28        2.08000  -0.00543   0.00000  -0.01512  -0.01512   2.06487
    A1        2.16699   0.00936   0.00000   0.03427   0.03427   2.20126
    A2        2.05071  -0.00715   0.00000  -0.02618  -0.02619   2.02452
    A3        2.06549  -0.00221   0.00000  -0.00809  -0.00810   2.05739
    A4        2.06396  -0.01194   0.00000  -0.01025  -0.01079   2.05317
    A5        2.06086  -0.00713   0.00000   0.00765   0.00700   2.06786
    A6        2.15693   0.01899   0.00000   0.00000  -0.00000   2.15693
    A7        2.22611   0.00073   0.00000   0.02995   0.03006   2.25617
    A8        2.04914   0.00001   0.00000  -0.01270  -0.01287   2.03627
    A9        2.00713  -0.00071   0.00000  -0.01636  -0.01655   1.99058
   A10        2.25256  -0.00483   0.00000  -0.01077  -0.01069   2.24188
   A11        2.11878  -0.01338   0.00000  -0.07946  -0.07985   2.03893
   A12        1.87706   0.01847   0.00000   0.09674   0.09683   1.97389
   A13        1.83940  -0.00163   0.00000  -0.01653  -0.01627   1.82313
   A14        2.01041  -0.00141   0.00000  -0.01038  -0.01049   1.99992
   A15        1.95846   0.00169   0.00000  -0.00175  -0.00219   1.95627
   A16        1.85147   0.00278   0.00000   0.02328   0.02308   1.87454
   A17        1.85012   0.00066   0.00000   0.01681   0.01667   1.86679
   A18        1.94021  -0.00179   0.00000  -0.00750  -0.00718   1.93302
   A19        1.90967   0.00018   0.00000  -0.00525  -0.00542   1.90425
   A20        1.92370  -0.00074   0.00000  -0.01310  -0.01306   1.91064
   A21        1.92246  -0.00169   0.00000  -0.00712  -0.00710   1.91536
   A22        1.91940  -0.00042   0.00000   0.00567   0.00562   1.92502
   A23        1.90436   0.00306   0.00000   0.02493   0.02496   1.92932
   A24        1.88405  -0.00036   0.00000  -0.00466  -0.00493   1.87912
   A25        1.93995  -0.00065   0.00000   0.00558   0.00544   1.94538
   A26        1.91909  -0.00076   0.00000  -0.00681  -0.00681   1.91228
   A27        1.90508   0.00025   0.00000  -0.00280  -0.00286   1.90222
   A28        1.91628   0.00071   0.00000   0.00707   0.00712   1.92340
   A29        1.89850   0.00165   0.00000   0.01118   0.01122   1.90972
   A30        1.88392  -0.00119   0.00000  -0.01470  -0.01479   1.86913
   A31        1.94490   0.00068   0.00000   0.00600   0.00618   1.95108
   A32        1.90213   0.00062   0.00000   0.00467   0.00463   1.90676
   A33        1.91774   0.00034   0.00000   0.00587   0.00581   1.92355
   A34        1.90604  -0.00106   0.00000  -0.01392  -0.01399   1.89205
   A35        1.91547  -0.00053   0.00000  -0.00027  -0.00039   1.91508
   A36        1.87618  -0.00007   0.00000  -0.00278  -0.00280   1.87337
   A37        1.94990  -0.00324   0.00000  -0.01843  -0.01847   1.93143
   A38        1.90568   0.00264   0.00000   0.01674   0.01659   1.92227
   A39        1.91002   0.00143   0.00000   0.01354   0.01353   1.92355
   A40        1.90587   0.00030   0.00000  -0.00137  -0.00123   1.90464
   A41        1.91048  -0.00010   0.00000  -0.00564  -0.00556   1.90492
   A42        1.88057  -0.00095   0.00000  -0.00436  -0.00454   1.87603
   A43        1.84761   0.00473   0.00000   0.02693   0.02695   1.87456
   A44        1.94342  -0.00480   0.00000  -0.03110  -0.03168   1.91175
   A45        1.97314   0.00109   0.00000  -0.00388  -0.00379   1.96935
   A46        1.88027   0.00225   0.00000   0.03186   0.03219   1.91246
   A47        1.89303  -0.00394   0.00000  -0.02369  -0.02357   1.86946
   A48        1.92196   0.00087   0.00000   0.00280   0.00269   1.92465
   A49        2.07811  -0.00546   0.00000  -0.00642  -0.00664   2.07147
   A50        2.27041  -0.00947   0.00000  -0.01015  -0.01021   2.26020
   A51        1.96660   0.00881   0.00000   0.02720   0.02710   1.99370
   A52        2.04559   0.00077   0.00000  -0.01627  -0.01637   2.02922
    D1       -3.05283  -0.00153   0.00000  -0.05026  -0.05029  -3.10312
    D2        0.14413  -0.00061   0.00000   0.00000   0.00000   0.14413
    D3        0.08917  -0.00095   0.00000  -0.04411  -0.04412   0.04504
    D4       -2.99706  -0.00002   0.00000   0.00615   0.00617  -2.99089
    D5        3.09029  -0.00012   0.00000   0.01741   0.01693   3.10722
    D6       -0.00565  -0.00098   0.00000  -0.00708  -0.00752  -0.01317
    D7       -0.10994  -0.00207   0.00000  -0.03558  -0.03594  -0.14588
    D8        3.07730  -0.00293   0.00000  -0.06007  -0.06039   3.01692
    D9       -2.63707  -0.00312   0.00000  -0.03815  -0.03881  -2.67588
   D10        0.46598   0.00044   0.00000  -0.01290  -0.01306   0.45292
   D11        0.56307  -0.00102   0.00000   0.01532   0.01503   0.57810
   D12       -2.61707   0.00254   0.00000   0.04057   0.04078  -2.57629
   D13       -0.19028  -0.00005   0.00000   0.03165   0.03189  -0.15839
   D14        2.63456   0.00406   0.00000   0.07567   0.07480   2.70935
   D15        2.90660   0.00081   0.00000   0.05568   0.05585   2.96245
   D16       -0.55176   0.00492   0.00000   0.09971   0.09876  -0.45299
   D17       -2.43213  -0.00077   0.00000  -0.02622  -0.02570  -2.45783
   D18        1.81692  -0.00234   0.00000  -0.03828  -0.03770   1.77921
   D19       -0.42648  -0.00009   0.00000  -0.01667  -0.01639  -0.44288
   D20        0.99207  -0.00034   0.00000  -0.04225  -0.04283   0.94925
   D21       -1.04207  -0.00191   0.00000  -0.05431  -0.05483  -1.09690
   D22        2.99771   0.00033   0.00000  -0.03271  -0.03352   2.96420
   D23        2.95115   0.00218   0.00000   0.02789   0.02785   2.97900
   D24       -1.21930   0.00130   0.00000   0.02325   0.02322  -1.19609
   D25        0.85778  -0.00066   0.00000   0.00488   0.00492   0.86270
   D26        0.92388   0.00312   0.00000   0.03855   0.03857   0.96244
   D27        3.03660   0.00225   0.00000   0.03392   0.03394   3.07054
   D28       -1.16949   0.00029   0.00000   0.01554   0.01564  -1.15386
   D29       -1.07960   0.00169   0.00000   0.00939   0.00933  -1.07028
   D30        1.03312   0.00081   0.00000   0.00475   0.00469   1.03782
   D31        3.11021  -0.00115   0.00000  -0.01363  -0.01360   3.09661
   D32       -2.90385  -0.00100   0.00000  -0.01385  -0.01373  -2.91758
   D33       -0.86518   0.00195   0.00000   0.02371   0.02338  -0.84180
   D34        1.30937   0.00017   0.00000   0.00000   0.00001   1.30938
   D35       -0.90475  -0.00172   0.00000  -0.02467  -0.02460  -0.92935
   D36        1.13392   0.00123   0.00000   0.01289   0.01251   1.14643
   D37       -2.97472  -0.00054   0.00000  -0.01082  -0.01086  -2.98557
   D38        1.09957   0.00104   0.00000   0.00851   0.00859   1.10816
   D39        3.13824   0.00399   0.00000   0.04607   0.04570  -3.09924
   D40       -0.97040   0.00222   0.00000   0.02236   0.02234  -0.94806
   D41        0.95666   0.00068   0.00000   0.00000   0.00001   0.95666
   D42        3.08227   0.00062   0.00000   0.00802   0.00798   3.09025
   D43       -1.13740  -0.00113   0.00000  -0.01554  -0.01551  -1.15292
   D44       -1.15868   0.00175   0.00000   0.01598   0.01606  -1.14262
   D45        0.96694   0.00169   0.00000   0.02400   0.02403   0.99097
   D46        3.03045  -0.00006   0.00000   0.00044   0.00054   3.03099
   D47        3.06109   0.00060   0.00000   0.00339   0.00335   3.06444
   D48       -1.09648   0.00054   0.00000   0.01141   0.01132  -1.08516
   D49        0.96703  -0.00120   0.00000  -0.01215  -0.01217   0.95486
   D50       -0.92192  -0.00087   0.00000   0.00000   0.00001  -0.92192
   D51        1.18270  -0.00135   0.00000  -0.01048  -0.01048   1.17222
   D52       -3.04890  -0.00087   0.00000  -0.00771  -0.00775  -3.05664
   D53       -3.04918   0.00004   0.00000   0.00007   0.00009  -3.04908
   D54       -0.94455  -0.00045   0.00000  -0.01040  -0.01039  -0.95494
   D55        1.10704   0.00003   0.00000  -0.00764  -0.00766   1.09938
   D56        1.17604   0.00011   0.00000   0.00720   0.00723   1.18327
   D57       -3.00252  -0.00038   0.00000  -0.00328  -0.00325  -3.00578
   D58       -0.95094   0.00010   0.00000  -0.00051  -0.00052  -0.95146
   D59        0.98489  -0.00076   0.00000  -0.01579  -0.01579   0.96910
   D60        3.09486  -0.00069   0.00000  -0.01812  -0.01826   3.07660
   D61       -1.13381   0.00053   0.00000  -0.00582  -0.00578  -1.13959
   D62       -1.11744  -0.00126   0.00000  -0.01624  -0.01621  -1.13364
   D63        0.99253  -0.00119   0.00000  -0.01857  -0.01868   0.97385
   D64        3.04705   0.00002   0.00000  -0.00627  -0.00620   3.04085
   D65        3.11318  -0.00024   0.00000  -0.00454  -0.00451   3.10867
   D66       -1.06004  -0.00018   0.00000  -0.00687  -0.00698  -1.06702
   D67        0.99447   0.00104   0.00000   0.00543   0.00550   0.99998
   D68       -1.04706  -0.00014   0.00000   0.00466   0.00474  -1.04231
   D69       -3.12787   0.00183   0.00000   0.01068   0.01023  -3.11764
   D70        1.07530   0.00170   0.00000   0.00256   0.00244   1.07773
   D71        3.12627  -0.00157   0.00000  -0.00354  -0.00335   3.12292
   D72        1.04546   0.00040   0.00000   0.00247   0.00214   1.04760
   D73       -1.03456   0.00028   0.00000  -0.00564  -0.00565  -1.04021
   D74        1.07138  -0.00054   0.00000   0.00579   0.00602   1.07741
   D75       -1.00943   0.00143   0.00000   0.01181   0.01151  -0.99792
   D76       -3.08945   0.00131   0.00000   0.00369   0.00372  -3.08573
   D77       -1.17216   0.00422   0.00000   0.00000   0.00001  -1.17215
   D78        3.06763   0.00028   0.00000  -0.01566  -0.01580   3.05183
   D79        1.01403  -0.00061   0.00000  -0.04178  -0.04217   0.97185
   D80        0.06406   0.00475   0.00000   0.00483   0.00485   0.06891
   D81       -3.03754   0.00092   0.00000  -0.02216  -0.02212  -3.05967
         Item               Value     Threshold  Converged?
 Maximum Force            0.037479     0.000450     NO 
 RMS     Force            0.006854     0.000300     NO 
 Maximum Displacement     0.242954     0.001800     NO 
 RMS     Displacement     0.052549     0.001200     NO 
 Predicted change in Energy=-1.304991D-02
 GradGradGradGradGradGradGradGradGradGradGradGradGradGradGradGradGradGrad

                          Input orientation:                          
 ---------------------------------------------------------------------
 Center     Atomic      Atomic             Coordinates (Angstroms)
 Number     Number       Type             X           Y           Z
 ---------------------------------------------------------------------
      1          8           0       -3.508811   -1.444066   -0.220818
      2          7           0       -3.167331   -0.273464    0.002337
      3          8           0       -3.928214    0.680261    0.225452
      4          6           0       -1.732689   -0.012452   -0.011533
      5          6           0       -1.317444    1.254226    0.275261
      6          7           0       -0.065375    1.741114    0.363338
      7          6           0        1.199476    1.006016    0.351949
      8          1           0        1.826412    1.525270    1.095938
      9          6           0        1.943875    1.044698   -0.978427
     10          6           0        3.341745    0.444465   -0.788896
     11          6           0        3.270523   -0.965021   -0.189579
     12          6           0        2.435699   -0.995685    1.091208
     13          6           0        1.032169   -0.431004    0.836247
     14          1           0        0.455209   -0.438650    1.774550
     15          7           0        0.397858   -1.290386   -0.153018
     16          6           0       -0.835192   -1.075550   -0.459286
     17          1           0       -2.094401    1.987817    0.483181
     18          1           0        0.051239    2.736788    0.203271
     19          1           0        1.383607    0.474003   -1.727097
     20          1           0        2.014621    2.081765   -1.334068
     21          1           0        3.864415    0.420317   -1.751786
     22          1           0        3.923411    1.096251   -0.121811
     23          1           0        2.812785   -1.644169   -0.917196
     24          1           0        4.280017   -1.340134    0.017507
     25          1           0        2.347581   -2.023966    1.459589
     26          1           0        2.924576   -0.404329    1.877039
     27          1           0       -1.294770   -1.791114   -1.145373
 ---------------------------------------------------------------------
                    Distance matrix (angstroms):
                    1          2          3          4          5
     1  O    0.000000
     2  N    1.239643   0.000000
     3  O    2.210842   1.240289   0.000000
     4  C    2.290835   1.458258   2.314378   0.000000
     5  C    3.511262   2.414623   2.673582   1.363508   0.000000
     6  N    4.726929   3.716312   4.008235   2.448563   1.346289
     7  C    5.338438   4.563803   5.139584   3.125218   2.530291
     8  H    6.246231   5.419305   5.881115   4.032156   3.260491
     9  C    6.041498   5.368787   6.005296   3.945830   3.500263
    10  C    7.128771   6.596176   7.344169   5.153926   4.847287
    11  C    6.796310   6.477735   7.396015   5.096197   5.117673
    12  C    6.104069   5.753363   6.637600   4.422471   4.451287
    13  C    4.771182   4.284393   5.119901   2.922046   2.945400
    14  H    4.550363   4.036189   4.781848   2.856332   2.873325
    15  N    3.910278   3.710638   4.768815   2.488446   3.098505
    16  C    2.709411   2.509045   3.621951   1.461561   2.489976
    17  H    3.778094   2.548683   2.266936   2.092046   1.088600
    18  H    5.507571   4.411483   4.479491   3.284336   2.019025
    19  H    5.466590   4.925513   5.663076   3.590418   3.451646
    20  H    6.646736   5.846854   6.301873   4.491901   3.791756
    21  H    7.757850   7.280366   8.043763   5.877359   5.626365
    22  H    7.854994   7.222891   7.870303   5.764795   5.258250
    23  H    6.362983   6.203721   7.221475   4.913661   5.184731
    24  H    7.793165   7.523363   8.455785   6.157614   6.174845
    25  H    6.120243   5.966749   6.944174   4.781108   5.057824
    26  H    6.846205   6.375183   7.131957   5.040872   4.828170
    27  H    2.424298   2.669641   3.862886   2.154299   3.360478
                    6          7          8          9         10
     6  N    0.000000
     7  C    1.462993   0.000000
     8  H    2.040134   1.102811   0.000000
     9  C    2.514442   1.524968   2.132543   0.000000
    10  C    3.823273   2.491222   2.648957   1.533050   0.000000
    11  C    4.330948   2.909893   3.152707   2.534018   1.533266
    12  C    3.778259   2.466082   2.593544   2.947617   2.535694
    13  C    2.479182   1.525635   2.127268   2.510367   2.956633
    14  H    2.648377   2.159812   2.489517   3.463427   3.960206
    15  N    3.109856   2.484159   3.395376   2.919604   3.475704
    16  C    3.033632   3.021736   4.033252   3.533861   4.457117
    17  H    2.047479   3.439590   3.995271   4.396982   5.792392
    18  H    1.015177   2.082336   2.327201   2.800295   4.131171
    19  H    2.841661   2.153921   3.044793   1.095490   2.171497
    20  H    2.706217   2.159710   2.500007   1.098633   2.176976
    21  H    4.654193   3.445380   3.672044   2.162501   1.095867
    22  H    4.069599   2.766300   2.462596   2.157548   1.099165
    23  H    4.624253   3.352160   3.882137   2.826439   2.158391
    24  H    5.338176   3.886644   3.923485   3.483800   2.171505
    25  H    4.604341   3.424297   3.605682   3.940000   3.483849
    26  H    3.979199   2.700175   2.353601   3.348901   2.828726
    27  H    4.032897   4.035737   5.075791   4.307960   5.159667
                   11         12         13         14         15
    11  C    0.000000
    12  C    1.529146   0.000000
    13  C    2.519469   1.534200   0.000000
    14  H    3.472875   2.167852   1.101523   0.000000
    15  N    2.891263   2.405773   1.455861   2.108141   0.000000
    16  C    4.116048   3.620654   2.362388   2.657216   1.288552
    17  H    6.160704   5.458277   3.968726   3.749118   4.166860
    18  H    4.921536   4.517238   3.376060   3.565882   4.057735
    19  H    2.827580   3.348093   2.741036   3.735825   2.561737
    20  H    3.488561   3.940808   3.462583   4.295085   3.921760
    21  H    2.170797   3.482658   3.929921   4.979513   4.183250
    22  H    2.163262   2.839173   3.407296   4.240346   4.257527
    23  H    1.095533   2.143925   2.777936   3.775836   2.557539
    24  H    1.096663   2.161709   3.470644   4.304535   3.886220
    25  H    2.166320   1.095825   2.157868   2.488674   2.634399
    26  H    2.169093   1.098286   2.159899   2.471731   3.360138
    27  H    4.736863   4.421697   3.345349   3.662995   2.024966
                   16         17         18         19         20
    16  C    0.000000
    17  H    3.443555   0.000000
    18  H    3.969718   2.289776   0.000000
    19  H    2.988566   4.390159   3.259098   0.000000
    20  H    4.342270   4.493916   2.578243   1.771313   0.000000
    21  H    5.098478   6.554359   4.871201   2.481512   2.521238
    22  H    5.241652   6.113507   4.217909   3.068346   2.466634
    23  H    3.720315   6.263613   5.298525   2.680512   3.833201
    24  H    5.144190   7.205922   5.876935   3.837177   4.320667
    25  H    3.835572   6.064568   5.432891   4.162219   4.977189
    26  H    4.477142   5.731957   4.574296   4.016945   4.161717
    27  H    1.092685   4.191887   4.912481   3.555680   5.097731
                   21         22         23         24         25
    21  H    0.000000
    22  H    1.765555   0.000000
    23  H    2.462634   3.062031   0.000000
    24  H    2.530278   2.466283   1.766034   0.000000
    25  H    4.311408   3.836643   2.451483   2.506300   0.000000
    26  H    3.838190   2.691619   3.058995   2.484111   1.769297
    27  H    5.645826   6.050948   4.116511   5.712610   4.484057
                   26         27
    26  H    0.000000
    27  H    5.372246   0.000000
 Symmetry turned off by external request.
 Stoichiometry    C9H13N3O2
 Framework group  C1[X(C9H13N3O2)]
 Deg. of freedom    75
 Full point group                 C1      NOp   1
 Rotational constants (GHZ):           1.7080564           0.4156518           0.3688248
 Standard basis: 6-31G(d) (6D, 7F)
   236 basis functions,   444 primitive gaussians,   236 cartesian basis functions
    52 alpha electrons       52 beta electrons
       nuclear repulsion energy       930.8520533754 Hartrees.
 NAtoms=   27 NActive=   27 NUniq=   27 SFac= 1.00D+00 NAtFMM=   60 NAOKFM=F Big=F
 Integral buffers will be    131072 words long.
 Raffenetti 1 integral format.
 Two-electron integral symmetry is turned off.
 One-electron integrals computed using PRISM.
 NBasis=   236 RedAO= T EigKep=  1.07D-03  NBF=   236
 NBsUse=   236 1.00D-06 EigRej= -1.00D+00 NBFU=   236
 Initial guess from the checkpoint file:  "/home/alexey/tmp/Gau-1215881.chk"
 B after Tr=     0.048682    0.006164   -0.001424
         Rot=    0.999998   -0.001425    0.001110    0.001228 Ang=  -0.25 deg.
 ExpMin= 1.61D-01 ExpMax= 5.48D+03 ExpMxC= 8.25D+02 IAcc=3 IRadAn=         5 AccDes= 0.00D+00
 Harris functional with IExCor=  205 and IRadAn=       5 diagonalized for initial guess.
 HarFok:  IExCor=  205 AccDes= 0.00D+00 IRadAn=         5 IDoV= 1 UseB2=F ITyADJ=14
 ICtDFT=  3500011 ScaDFX=  1.000000  1.000000  1.000000  1.000000
 FoFCou: FMM=F IPFlag=           0 FMFlag=      100000 FMFlg1=           0
         NFxFlg=           0 DoJE=T BraDBF=F KetDBF=T FulRan=T
         wScrn=  0.000000 ICntrl=       500 IOpCl=  0 I1Cent=   200000004 NGrid=           0
         NMat0=    1 NMatS0=      1 NMatT0=    0 NMatD0=    1 NMtDS0=    0 NMtDT0=    0
 Symmetry not used in FoFCou.
 Keep R1 ints in memory in canonical form, NReq=397720213.
 Requested convergence on RMS density matrix=1.00D-08 within 128 cycles.
 Requested convergence on MAX density matrix=1.00D-06.
 Requested convergence on             energy=1.00D-06.
 No special actions if energy rises.
 SCF Done:  E(RHF) =  -661.296724072     A.U. after   15 cycles
            NFock= 15  Conv=0.44D-08     -V/T= 2.0025
 ExpMin= 1.61D-01 ExpMax= 5.48D+03 ExpMxC= 8.25D+02 IAcc=3 IRadAn=         5 AccDes= 0.00D+00
 HarFok:  IExCor=  205 AccDes= 0.00D+00 IRadAn=         5 IDoV=-2 UseB2=F ITyADJ=14
 ICtDFT= 12500011 ScaDFX=  1.000000  1.000000  1.000000  1.000000
 Range of M.O.s used for correlation:    15   236
 NBasis=   236 NAE=    52 NBE=    52 NFC=    14 NFV=     0
 NROrb=    222 NOA=    38 NOB=    38 NVA=   184 NVB=   184
 Fully direct method using O(ONN) memory.
 JobTyp=1 Pass  1:  I=  15 to  52 NPSUse=  4 ParTrn=T ParDer=T DoDerP=T.
 Spin components of T(2) and E(2):
     alpha-alpha T2 =       0.9122906298D-01 E2=     -0.2722937741D+00
     alpha-beta  T2 =       0.4915168079D+00 E2=     -0.1488248602D+01
     beta-beta   T2 =       0.9122906298D-01 E2=     -0.2722937741D+00
 ANorm=    0.1293821832D+01
 E2 =    -0.2032836150D+01 EUMP2 =    -0.66332956022264D+03
          IDoAtm=111111111111111111111111111
          Differentiating once with respect to electric field.
                with respect to dipole field.
          Differentiating once with respect to nuclear coordinates.
 Keep R1 ints in memory in canonical form, NReq=397723379.
          There are     1 degrees of freedom in the 1st order CPHF.  IDoFFX=0 NUNeed=     1.
 LinEq1:  Iter=  0 NonCon=     1 RMS=4.56D-03 Max=1.05D-01 NDo=     1
 AX will form     1 AO Fock derivatives at one time.
 LinEq1:  Iter=  1 NonCon=     1 RMS=1.53D-03 Max=2.70D-02 NDo=     1
[...]
                   16         17         18         19         20
    16  C    0.000000
    17  H    3.437692   0.000000
    18  H    4.043894   2.215678   0.000000
    19  H    2.970300   4.310000   3.493909   0.000000
    20  H    4.348951   4.452988   2.868119   1.768546   0.000000
    21  H    5.083390   6.512800   5.077406   2.498919   2.521356
    22  H    5.233717   6.095210   4.312819   3.070160   2.460324
    23  H    3.699508   6.234983   5.413642   2.706574   3.843793
    24  H    5.135742   7.195458   5.934959   3.851251   4.316881
    25  H    3.830073   6.077339   5.372621   4.172858   4.985910
    26  H    4.496257   5.774301   4.500692   4.042903   4.188696
    27  H    1.090938   4.193011   5.027108   3.535079   5.099752
                   21         22         23         24         25
    21  H    0.000000
    22  H    1.758781   0.000000
    23  H    2.468530   3.061836   0.000000
    24  H    2.516886   2.459315   1.764560   0.000000
    25  H    4.312237   3.841773   2.442871   2.521272   0.000000
    26  H    3.849715   2.708975   3.060433   2.489114   1.767682
    27  H    5.614579   6.028525   4.075441   5.682716   4.460958
                   26         27
    26  H    0.000000
    27  H    5.375405   0.000000
 Symmetry turned off by external request.
 Stoichiometry    C9H13N3O2
 Framework group  C1[X(C9H13N3O2)]
 Deg. of freedom    75
 Full point group                 C1      NOp   1
 Rotational constants (GHZ):           1.6953367           0.4150687           0.3701127

 **********************************************************************

            Population analysis using the SCF Density.

 **********************************************************************

 Alpha  occ. eigenvalues --  -20.59270 -20.58946 -15.84863 -15.64292 -15.56131
 Alpha  occ. eigenvalues --  -11.35104 -11.29614 -11.29578 -11.28627 -11.27106
 Alpha  occ. eigenvalues --  -11.23751 -11.23237 -11.22721 -11.22115  -1.57181
 Alpha  occ. eigenvalues --   -1.36770  -1.31133  -1.23098  -1.14772  -1.09893
 Alpha  occ. eigenvalues --   -1.02853  -1.01427  -0.94500  -0.89875  -0.85673
 Alpha  occ. eigenvalues --   -0.82377  -0.78612  -0.77417  -0.75131  -0.72288
 Alpha  occ. eigenvalues --   -0.69796  -0.69556  -0.67904  -0.64905  -0.63773
 Alpha  occ. eigenvalues --   -0.62328  -0.60002  -0.57758  -0.57021  -0.55008
 Alpha  occ. eigenvalues --   -0.54587  -0.50830  -0.50074  -0.48698  -0.48090
 Alpha  occ. eigenvalues --   -0.47413  -0.46206  -0.46101  -0.43703  -0.41692
 Alpha  occ. eigenvalues --   -0.39853  -0.33909
 Alpha virt. eigenvalues --    0.07393   0.11947   0.17284   0.21843   0.24006
 Alpha virt. eigenvalues --    0.25511   0.27149   0.28546   0.29046   0.29677
 Alpha virt. eigenvalues --    0.30740   0.31820   0.32040   0.32743   0.33879
 Alpha virt. eigenvalues --    0.34343   0.35907   0.37186   0.38612   0.40159
 Alpha virt. eigenvalues --    0.41377   0.42541   0.44905   0.45999   0.46572
 Alpha virt. eigenvalues --    0.47196   0.48794   0.53804   0.57336   0.59375
 Alpha virt. eigenvalues --    0.63937   0.69636   0.70317   0.72802   0.74215
 Alpha virt. eigenvalues --    0.75527   0.75758   0.76724   0.78857   0.79338
 Alpha virt. eigenvalues --    0.80985   0.84761   0.85553   0.85920   0.88286
 Alpha virt. eigenvalues --    0.89357   0.90857   0.92160   0.92720   0.94348
 Alpha virt. eigenvalues --    0.95780   0.98113   0.99275   1.01539   1.02328
 Alpha virt. eigenvalues --    1.03098   1.05849   1.06923   1.07478   1.08898
 Alpha virt. eigenvalues --    1.10002   1.11764   1.11814   1.12310   1.13882
 Alpha virt. eigenvalues --    1.14701   1.14912   1.15929   1.16767   1.18651
 Alpha virt. eigenvalues --    1.19209   1.21300   1.22181   1.23536   1.24368
 Alpha virt. eigenvalues --    1.25293   1.25853   1.26755   1.27791   1.29909
 Alpha virt. eigenvalues --    1.29991   1.32695   1.35734   1.36532   1.40528
 Alpha virt. eigenvalues --    1.41300   1.44706   1.48655   1.51655   1.53973
 Alpha virt. eigenvalues --    1.56771   1.59284   1.59356   1.63048   1.66781
 Alpha virt. eigenvalues --    1.68416   1.69624   1.72540   1.74733   1.77156
 Alpha virt. eigenvalues --    1.81229   1.84145   1.87418   1.91036   1.94127
 Alpha virt. eigenvalues --    1.95913   1.97033   1.99418   2.01192   2.03040
 Alpha virt. eigenvalues --    2.04519   2.06226   2.08696   2.09721   2.12445
 Alpha virt. eigenvalues --    2.13107   2.15334   2.18980   2.20145   2.22460
 Alpha virt. eigenvalues --    2.22557   2.24580   2.25905   2.28071   2.29625
 Alpha virt. eigenvalues --    2.31339   2.33885   2.34708   2.36031   2.38754
 Alpha virt. eigenvalues --    2.40173   2.41521   2.42994   2.44457   2.47235
 Alpha virt. eigenvalues --    2.50748   2.51826   2.53256   2.55173   2.62086
 Alpha virt. eigenvalues --    2.62724   2.65210   2.67380   2.70458   2.70506
 Alpha virt. eigenvalues --    2.72133   2.73345   2.76115   2.78710   2.84591
 Alpha virt. eigenvalues --    2.88369   2.89145   2.92833   2.93640   2.96449
 Alpha virt. eigenvalues --    2.99059   3.01724   3.04017   3.05384   3.07730
 Alpha virt. eigenvalues --    3.09386   3.15328   3.21182   3.25275   3.27336
 Alpha virt. eigenvalues --    3.34023   3.37935   3.39816   3.52887   3.64412
 Alpha virt. eigenvalues --    4.13740   4.29051   4.32890   4.38544   4.46880
 Alpha virt. eigenvalues --    4.56865   4.62196   4.62570   4.73358   4.80284
 Alpha virt. eigenvalues --    4.98873   5.00877   5.04272   5.11505
          Condensed to atoms (all electrons):
               1          2          3          4          5          6
     1  O    8.313202   0.307653  -0.081046  -0.085971   0.004492  -0.000014
     2  N    0.307653   5.730834   0.300485   0.257432  -0.049284   0.001020
     3  O   -0.081046   0.300485   8.350847  -0.092359   0.003609   0.000736
     4  C   -0.085971   0.257432  -0.092359   5.238827   0.547599  -0.044622
     5  C    0.004492  -0.049284   0.003609   0.547599   4.710723   0.319796
     6  N   -0.000014   0.001020   0.000736  -0.044622   0.319796   7.196123
     7  C    0.000003  -0.000110   0.000002   0.005290  -0.030064   0.167302
     8  H   -0.000000   0.000002  -0.000000  -0.000339   0.003328  -0.051098
     9  C   -0.000000  -0.000003  -0.000000   0.001036   0.000256  -0.060478
    10  C    0.000000   0.000000   0.000000  -0.000044  -0.000038   0.003734
    11  C   -0.000000  -0.000000  -0.000000  -0.000016   0.000020  -0.000186
    12  C   -0.000000   0.000002  -0.000000  -0.000169  -0.000131   0.003866
    13  C   -0.000021  -0.000042  -0.000004  -0.011200  -0.000717  -0.048927
    14  H   -0.000003  -0.000110   0.000001   0.002932   0.005808  -0.007151
    15  N    0.000358   0.002184  -0.000014  -0.062922  -0.004554   0.000940
    16  C    0.001235  -0.026705   0.002565   0.322072  -0.051208  -0.003762
    17  H    0.000205  -0.007085   0.016743  -0.024843   0.376584  -0.036227
    18  H    0.000001  -0.000045   0.000010   0.001481  -0.032117   0.339226
    19  H    0.000001  -0.000005   0.000000  -0.001222   0.001252  -0.000313
    20  H    0.000000  -0.000000   0.000000  -0.000065   0.000118  -0.000474
    21  H   -0.000000   0.000000  -0.000000   0.000001   0.000001  -0.000076
    22  H   -0.000000   0.000000  -0.000000  -0.000000  -0.000003  -0.000116
    23  H    0.000000  -0.000000   0.000000   0.000038  -0.000002  -0.000030
    24  H    0.000000   0.000000   0.000000   0.000000  -0.000000   0.000006
    25  H    0.000000  -0.000000   0.000000   0.000021  -0.000000  -0.000092
    26  H    0.000000  -0.000000   0.000000   0.000008  -0.000004  -0.000061
    27  H    0.006398  -0.000683   0.000025  -0.065908   0.002506   0.000030
               7          8          9         10         11         12
     1  O    0.000003  -0.000000  -0.000000   0.000000  -0.000000  -0.000000
     2  N   -0.000110   0.000002  -0.000003   0.000000  -0.000000   0.000002
     3  O    0.000002  -0.000000  -0.000000   0.000000  -0.000000  -0.000000
     4  C    0.005290  -0.000339   0.001036  -0.000044  -0.000016  -0.000169
     5  C   -0.030064   0.003328   0.000256  -0.000038   0.000020  -0.000131
     6  N    0.167302  -0.051098  -0.060478   0.003734  -0.000186   0.003866
     7  C    5.015731   0.418624   0.351007  -0.054918  -0.009075  -0.061087
     8  H    0.418624   0.539017  -0.055555   0.000903  -0.000347  -0.001940
     9  C    0.351007  -0.055555   5.158615   0.324527  -0.050228  -0.005536
    10  C   -0.054918   0.000903   0.324527   5.119321   0.337158  -0.060660
    11  C   -0.009075  -0.000347  -0.050228   0.337158   5.119038   0.335818
    12  C   -0.061087  -0.001940  -0.005536  -0.060660   0.335818   5.117810
    13  C    0.341195  -0.038606  -0.059407  -0.000324  -0.050487   0.372083
    14  H   -0.046153  -0.000814   0.004424  -0.000410   0.004192  -0.036435
    15  N   -0.058359   0.004062  -0.015700   0.001501  -0.012730  -0.081926
    16  C   -0.002457   0.000095  -0.001815  -0.000004  -0.000006   0.002672
    17  H    0.001721  -0.000036  -0.000083   0.000001   0.000000   0.000000
    18  H   -0.021320  -0.004407   0.001237  -0.000083   0.000004  -0.000115
    19  H   -0.036701   0.004360   0.390130  -0.031739  -0.002205   0.000716
    20  H   -0.042706  -0.002209   0.399510  -0.035374   0.003939  -0.000419
    21  H    0.004608  -0.000079  -0.036307   0.402438  -0.034854   0.004329
    22  H   -0.004777   0.003557  -0.047001   0.397798  -0.045516  -0.000946
    23  H    0.000579   0.000032  -0.001941  -0.038988   0.399099  -0.037652
    24  H   -0.000130  -0.000101   0.004389  -0.038485   0.402384  -0.038764
    25  H    0.005144  -0.000031  -0.000415   0.004171  -0.033462   0.398187
    26  H   -0.003837   0.001694   0.000956  -0.002161  -0.041499   0.396915
    27  H   -0.000443   0.000010  -0.000071   0.000008   0.000011  -0.000030
              13         14         15         16         17         18
     1  O   -0.000021  -0.000003   0.000358   0.001235   0.000205   0.000001
     2  N   -0.000042  -0.000110   0.002184  -0.026705  -0.007085  -0.000045
     3  O   -0.000004   0.000001  -0.000014   0.002565   0.016743   0.000010
     4  C   -0.011200   0.002932  -0.062922   0.322072  -0.024843   0.001481
     5  C   -0.000717   0.005808  -0.004554  -0.051208   0.376584  -0.032117
     6  N   -0.048927  -0.007151   0.000940  -0.003762  -0.036227   0.339226
     7  C    0.341195  -0.046153  -0.058359  -0.002457   0.001721  -0.021320
     8  H   -0.038606  -0.000814   0.004062   0.000095  -0.000036  -0.004407
     9  C   -0.059407   0.004424  -0.015700  -0.001815  -0.000083   0.001237
    10  C   -0.000324  -0.000410   0.001501  -0.000004   0.000001  -0.000083
    11  C   -0.050487   0.004192  -0.012730  -0.000006   0.000000   0.000004
    12  C    0.372083  -0.036435  -0.081926   0.002672   0.000000  -0.000115
    13  C    5.040345   0.402659   0.242059  -0.071246  -0.000019   0.003135
    14  H    0.402659   0.526447  -0.037275  -0.003953   0.000104  -0.000104
    15  N    0.242059  -0.037275   6.964586   0.587171  -0.000068  -0.000138
    16  C   -0.071246  -0.003953   0.587171   4.720772   0.002572  -0.000225
    17  H   -0.000019   0.000104  -0.000068   0.002572   0.386193  -0.003205
    18  H    0.003135  -0.000104  -0.000138  -0.000225  -0.003205   0.309965
    19  H   -0.007498   0.000098   0.007731   0.003206   0.000018  -0.000150
    20  H    0.004346  -0.000063   0.000140  -0.000037   0.000002   0.000892
    21  H   -0.000425   0.000010  -0.000042   0.000003  -0.000000   0.000001
    22  H    0.000003  -0.000057   0.000019  -0.000002   0.000000   0.000001
    23  H   -0.007460  -0.000001   0.008476   0.000090   0.000000   0.000000
    24  H    0.004692  -0.000055   0.000144   0.000007   0.000000  -0.000000
    25  H   -0.035500  -0.002770   0.000261  -0.000025  -0.000000   0.000002
    26  H   -0.047459  -0.001052   0.004895  -0.000065   0.000000  -0.000000
    27  H    0.005284  -0.000199  -0.041776   0.404538  -0.000085   0.000001
              19         20         21         22         23         24
     1  O    0.000001   0.000000  -0.000000  -0.000000   0.000000   0.000000
     2  N   -0.000005  -0.000000   0.000000   0.000000  -0.000000   0.000000
     3  O    0.000000   0.000000  -0.000000  -0.000000   0.000000   0.000000
     4  C   -0.001222  -0.000065   0.000001  -0.000000   0.000038   0.000000
     5  C    0.001252   0.000118   0.000001  -0.000003  -0.000002  -0.000000
     6  N   -0.000313  -0.000474  -0.000076  -0.000116  -0.000030   0.000006
     7  C   -0.036701  -0.042706   0.004608  -0.004777   0.000579  -0.000130
     8  H    0.004360  -0.002209  -0.000079   0.003557   0.000032  -0.000101
     9  C    0.390130   0.399510  -0.036307  -0.047001  -0.001941   0.004389
    10  C   -0.031739  -0.035374   0.402438   0.397798  -0.038988  -0.038485
    11  C   -0.002205   0.003939  -0.034854  -0.045516   0.399099   0.402384
    12  C    0.000716  -0.000419   0.004329  -0.000946  -0.037652  -0.038764
    13  C   -0.007498   0.004346  -0.000425   0.000003  -0.007460   0.004692
    14  H    0.000098  -0.000063   0.000010  -0.000057  -0.000001  -0.000055
    15  N    0.007731   0.000140  -0.000042   0.000019   0.008476   0.000144
    16  C    0.003206  -0.000037   0.000003  -0.000002   0.000090   0.000007
    17  H    0.000018   0.000002  -0.000000   0.000000   0.000000   0.000000
    18  H   -0.000150   0.000892   0.000001   0.000001   0.000000  -0.000000
    19  H    0.503344  -0.024829  -0.002803   0.003947   0.001493  -0.000066
    20  H   -0.024829   0.542527  -0.002669  -0.003024  -0.000045  -0.000083
    21  H   -0.002803  -0.002669   0.523712  -0.027395  -0.002901  -0.002230
    22  H    0.003947  -0.003024  -0.027395   0.571317   0.004144  -0.003677
    23  H    0.001493  -0.000045  -0.002901   0.004144   0.499111  -0.025517
    24  H   -0.000066  -0.000083  -0.002230  -0.003677  -0.025517   0.538279
    25  H   -0.000028   0.000012  -0.000086  -0.000080  -0.002352  -0.002253
    26  H    0.000019  -0.000030  -0.000082   0.002370   0.004063  -0.003085
    27  H    0.000092   0.000000  -0.000000   0.000000  -0.000038  -0.000000
              25         26         27
     1  O    0.000000   0.000000   0.006398
     2  N   -0.000000  -0.000000  -0.000683
     3  O    0.000000   0.000000   0.000025
     4  C    0.000021   0.000008  -0.065908
     5  C   -0.000000  -0.000004   0.002506
     6  N   -0.000092  -0.000061   0.000030
     7  C    0.005144  -0.003837  -0.000443
     8  H   -0.000031   0.001694   0.000010
     9  C   -0.000415   0.000956  -0.000071
    10  C    0.004171  -0.002161   0.000008
    11  C   -0.033462  -0.041499   0.000011
    12  C    0.398187   0.396915  -0.000030
    13  C   -0.035500  -0.047459   0.005284
    14  H   -0.002770  -0.001052  -0.000199
    15  N    0.000261   0.004895  -0.041776
    16  C   -0.000025  -0.000065   0.404538
    17  H   -0.000000   0.000000  -0.000085
    18  H    0.000002  -0.000000   0.000001
    19  H   -0.000028   0.000019   0.000092
    20  H    0.000012  -0.000030   0.000000
    21  H   -0.000086  -0.000082  -0.000000
    22  H   -0.000080   0.002370   0.000000
    23  H   -0.002352   0.004063  -0.000038
    24  H   -0.002253  -0.003085  -0.000000
    25  H    0.506822  -0.024118  -0.000012
    26  H   -0.024118   0.561864   0.000001
    27  H   -0.000012   0.000001   0.445844
 Mulliken charges:
               1
     1  O   -0.466490
     2  N    0.484462
     3  O   -0.501599
     4  C    0.012944
     5  C    0.192032
     6  N   -0.779150
     7  C    0.060931
     8  H    0.179877
     9  C   -0.301547
    10  C   -0.328332
    11  C   -0.321053
    12  C   -0.306590
    13  C   -0.036460
    14  H    0.189930
    15  N   -0.509023
    16  C    0.114513
    17  H    0.287510
    18  H    0.405951
    19  H    0.191152
    20  H    0.160540
    21  H    0.174846
    22  H    0.149438
    23  H    0.199802
    24  H    0.164545
    25  H    0.186604
    26  H    0.150670
    27  H    0.244496
 Sum of Mulliken charges =  -0.00000
 Mulliken charges with hydrogens summed into heavy atoms:
               1
     1  O   -0.466490
     2  N    0.484462
     3  O   -0.501599
     4  C    0.012944
     5  C    0.479542
     6  N   -0.373199
     7  C    0.240808
     9  C    0.050146
    10  C   -0.004048
    11  C    0.043294
    12  C    0.030684
    13  C    0.153470
    15  N   -0.509023
    16  C    0.359009
 Electronic spatial extent (au):  <R**2>=           3021.4863
 Charge=              0.0000 electrons
 Dipole moment (field-independent basis, Debye):
    X=              5.4905    Y=              4.8231    Z=              1.1812  Tot=              7.4029
 Quadrupole moment (field-independent basis, Debye-Ang):
   XX=           -106.4341   YY=            -79.1504   ZZ=            -81.6783
   XY=             -1.9039   XZ=              0.0727   YZ=              1.3595
 Traceless Quadrupole moment (field-independent basis, Debye-Ang):
   XX=            -17.3465   YY=              9.9372   ZZ=              7.4093
   XY=             -1.9039   XZ=              0.0727   YZ=              1.3595
 Octapole moment (field-independent basis, Debye-Ang**2):
  XXX=             95.4290  YYY=             36.6020  ZZZ=             -2.5560  XYY=             -3.9122
  XXY=              9.7950  XXZ=              3.8417  XZZ=             -8.9538  YZZ=             -0.4482
  YYZ=              7.3769  XYZ=              1.2472
 Hexadecapole moment (field-independent basis, Debye-Ang**3):
 XXXX=          -3417.8758 YYYY=           -591.6501 ZZZZ=           -306.7106 XXXY=            -23.3214
 XXXZ=             -7.0141 YYYX=            -11.2934 YYYZ=             21.4303 ZZZX=              5.1406
 ZZZY=              5.5596 XXYY=           -630.8714 XXZZ=           -530.0371 YYZZ=           -157.0066
 XXYZ=             -8.3783 YYXZ=              2.2833 ZZXY=              3.7877
 N-N= 9.305460559773D+02 E-N=-3.407768991045D+03  KE= 6.596291759421D+02
 Unable to Open any file for archive entry.
 1\1\GINC-LOTUS\FOpt\RMP2-FC\6-31G(d)\C9H13N3O2\ALEXEY\30-Jun-2023\0\\#
 MP2/6-31G* SCF=Tight Opt=(ModRedun, MaxCycle=20 ) NoSymm\\MolName:\\0,
 1\O,-3.5290490614,-1.3869899124,-0.415491801\N,-3.1486849966,-0.242358
 4538,-0.1010368512\O,-3.9227522798,0.7073453937,0.1276106559\C,-1.7235
 223801,-0.0373544284,0.0236845687\C,-1.3023119697,1.2450075681,0.27889
 80601\N,-0.0582197791,1.7356437721,0.3794807509\C,1.2102140149,1.02313
 88894,0.3519487959\H,1.8549784376,1.5627062495,1.0627498407\C,1.915327
 181,1.0291762252,-1.0025206223\C,3.3134161146,0.4234113266,-0.83163036
 66\C,3.2648771653,-0.9700795479,-0.1987578393\C,2.4666511703,-0.977032
 3313,1.1071025371\C,1.0602182947,-0.4171859488,0.8700594644\H,0.482874
 7306,-0.3901388536,1.8080385629\N,0.4108939262,-1.2953980771,-0.095484
 0741\C,-0.8327390763,-1.1084940597,-0.3980683288\H,-2.0862228163,1.985
 1485095,0.424051232\H,-0.0043560368,2.7287945536,0.5725387835\H,1.3236
 356577,0.4498411942,-1.7187955723\H,1.9830313759,2.0561276455,-1.38294
 47765\H,3.8202044012,0.3810074778,-1.8024740669\H,3.9112681248,1.09279
 19108,-0.196740023\H,2.7902092581,-1.6699403032,-0.8934283436\H,4.2840
 091802,-1.3314767204,-0.0172577827\H,2.377526908,-1.9984256934,1.49181
 96679\H,2.9772297801,-0.3805230676,1.8758094803\H,-1.2777173254,-1.851
 7433186,-1.0611819517\\Version=ES64L-G16RevC.02\HF=-661.2994655\MP2=-6
 63.3336829\RMSD=4.030e-09\RMSF=2.686e-03\Dipole=2.0047009,1.6969651,0.
 4395499\PG=C01 [X(C9H13N3O2)]\\@
 The archive entry for this job was punched.


 CONTRAIWISE...CONTINUED TWEEDLEDEE, IF IT WAS SO, IT MIGHT BE,
 AND IF IT WERE SO, IT WOULD BE.....
 BUT AS IT ISN'T, IT AIN'T....
 THAT'S LOGIC.....
 ALICE THROUGH THE LOOKING GLASS
 Job cpu time:       0 days  1 hours 26 minutes 25.1 seconds.
 Elapsed time:       0 days  0 hours 25 minutes 33.8 seconds.
 File lengths (MBytes):  RWF=     36 Int=      0 D2E=      0 Chk=      7 Scr=      1
 Normal termination of Gaussian 16 at Fri Jun 30 22:35:41 2023.
