 Entering Gaussian System, Link 0=g09
 Initial command:
 /home/ana/programs/g09/l1.exe /home/ana/programs/g09/scratch/Gau-708889.inp -scrdir=/home/ana/programs/g09/scratch/
 Entering Link 1 = /home/ana/programs/g09/l1.exe PID=    708891.
  
 Copyright (c) 1988,1990,1992,1993,1995,1998,2003,2009, Gaussian, Inc.
                  All Rights Reserved.
  
 This is part of the Gaussian(R) 09 program.  It is based on
 the Gaussian(R) 03 system (copyright 2003, Gaussian, Inc.),
 the Gaussian(R) 98 system (copyright 1998, Gaussian, Inc.),
 the Gaussian(R) 94 system (copyright 1995, Gaussian, Inc.),
 the Gaussian 92(TM) system (copyright 1992, Gaussian, Inc.),
 the Gaussian 90(TM) system (copyright 1990, Gaussian, Inc.),
 the Gaussian 88(TM) system (copyright 1988, Gaussian, Inc.),
 the Gaussian 86(TM) system (copyright 1986, Carnegie Mellon
 University), and the Gaussian 82(TM) system (copyright 1983,
 Carnegie Mellon University). Gaussian is a federally registered
 trademark of Gaussian, Inc.
  
 This software contains proprietary and confidential information,
 including trade secrets, belonging to Gaussian, Inc.
  
 This software is provided under written license and may be
 used, copied, transmitted, or stored only in accord with that
 written license.
  
 The following legend is applicable only to US Government
 contracts under FAR:
  
                    RESTRICTED RIGHTS LEGEND
  
 Use, reproduction and disclosure by the US Government is
 subject to restrictions as set forth in subparagraphs (a)
 and (c) of the Commercial Computer Software - Restricted
 Rights clause in FAR 52.227-19.
  
 Gaussian, Inc.
 340 Quinnipiac St., Bldg. 40, Wallingford CT 06492
  
  
 ---------------------------------------------------------------
 Warning -- This program may not be used in any manner that
 competes with the business of Gaussian, Inc. or will provide
 assistance to any competitor of Gaussian, Inc.  The licensee
 of this program is prohibited from giving any competitor of
 Gaussian, Inc. access to this program.  By using this program,
 the user acknowledges that Gaussian, Inc. is engaged in the
 business of creating and licensing software in the field of
 computational chemistry and represents and warrants to the
 licensee that it is not a competitor of Gaussian, Inc. and that
 it will not use this program in any manner prohibited above.
 ---------------------------------------------------------------
  

 Cite this work as:
 Gaussian 09, Revision A.01,
 M. J. Frisch, G. W. Trucks, H. B. Schlegel, G. E. Scuseria, 
 M. A. Robb, J. R. Cheeseman, G. Scalmani, V. Barone, B. Mennucci, 
 G. A. Petersson, H. Nakatsuji, M. Caricato, X. Li, H. P. Hratchian, 
 A. F. Izmaylov, J. Bloino, G. Zheng, J. L. Sonnenberg, M. Hada, 
 M. Ehara, K. Toyota, R. Fukuda, J. Hasegawa, M. Ishida, T. Nakajima, 
 Y. Honda, O. Kitao, H. Nakai, T. Vreven, J. A. Montgomery, Jr., 
 J. E. Peralta, F. Ogliaro, M. Bearpark, J. J. Heyd, E. Brothers, 
 K. N. Kudin, V. N. Staroverov, R. Kobayashi, J. Normand, 
 K. Raghavachari, A. Rendell, J. C. Burant, S. S. Iyengar, J. Tomasi, 
 M. Cossi, N. Rega, J. M. Millam, M. Klene, J. E. Knox, J. B. Cross, 
 V. Bakken, C. Adamo, J. Jaramillo, R. Gomperts, R. E. Stratmann, 
 O. Yazyev, A. J. Austin, R. Cammi, C. Pomelli, J. W. Ochterski, 
 R. L. Martin, K. Morokuma, V. G. Zakrzewski, G. A. Voth, 
 P. Salvador, J. J. Dannenberg, S. Dapprich, A. D. Daniels, 
 O. Farkas, J. B. Foresman, J. V. Ortiz, J. Cioslowski, 
 and D. J. Fox, Gaussian, Inc., Wallingford CT, 2009.
 
 ******************************************
 Gaussian 09:  EM64L-G09RevA.01  8-May-2009
                24-Sep-2021 
 ******************************************
 %NPROC=4
 Will use up to    4 processors via shared memory.
 %NoSave
 ------------------------------
 #HF/6-31G* Opt=Z-matrix NoSymm
 ------------------------------
 1/10=7,18=40,38=1/1,3;
 2/12=2,15=1,17=6,18=5,29=3,40=1/2;
 3/5=1,6=6,7=1,11=9,16=1,25=1,30=1,71=1/1,2,3;
 4//1;
 5/5=2,38=5/2;
 6/7=2,8=2,9=2,10=2,28=1/1;
 7/29=1,30=1/1,2,3,16;
 1/10=7,18=40/3(2);
 2/15=1,29=3/2;
 99//99;
 2/15=1,29=3/2;
 3/5=1,6=6,7=1,11=9,16=1,25=1,30=1,71=1/1,2,3;
 4/5=5,16=3/1;
 5/5=2,38=5/2;
 7/30=1/1,2,3,16;
 1/18=40/3(-5);
 2/15=1,29=3/2;
 6/7=2,8=2,9=2,10=2,19=2,28=1/1;
 99/9=1/99;
 -------------------------------
 water interaction with atom H14
 -------------------------------
 Symbolic Z-matrix:
 Charge =  0 Multiplicity = 1
 9                    -1   -1.9693    2.05368   0.00007 
 6                    -1   -1.22225   0.94423   0.00003 
 6                    -1    0.14003   1.0574   -0.00002 
 6                    -1    0.92795  -0.12364  -0.00008 
 6                    -1    2.41466  -0.01865  -0.00001 
 9                    -1    3.00708  -1.23461  -0.00056 
 9                    -1    2.85829   0.65448  -1.08602 
 9                    -1    2.85827   0.6535    1.08665 
 6                    -1    0.30654  -1.34149  -0.00009 
 7                    -1   -1.05417  -1.38997  -0.00006 
 6                    -1   -1.9305   -0.3121    0. 
 16                   -1   -3.57098  -0.50661   0.00003 
 1                    -1    0.59686   2.0431   -0.00002 
 1                    -1    0.83176  -2.28899  -0.00015 
 1                    -1   -1.52148  -2.29639  -0.00009 
 X                    14   RDUM     9    ADUM     4    DOH      0
 X                    16   RDUM     14   ADUM     9    DD1      0
 OH2                  14   RX       16   ADUM     17   DD2      0
 H1                   18   ROH      14   AHOA     16   DH1      0
 H2                   18   ROH      14   AHOA     16   DH2      0
       Variables:
  RX                    2.1939                   
       Constants:
  RDUM                  1.                       
  ROH                   0.9572                   
  ADUM                 90.                       
  AHOA                127.74                     
  DOH                 180.                       
  DD1                   0.                       
  DD2                 180.                       
  DH1                  90.                       
  DH2                 -90.                       
 

 GradGradGradGradGradGradGradGradGradGradGradGradGradGradGradGradGradGrad
 Berny optimization.
 Initialization pass.
                       ----------------------------
                       !    Initial Parameters    !
                       ! (Angstroms and Degrees)  !
 ----------------------                            ----------------------
 !      Name          Value   Derivative information (Atomic Units)     !
 ------------------------------------------------------------------------
 !       RX          2.1939   estimate D2E/DX2                          !
 !      RDUM         1.0      Frozen                                    !
 !       ROH         0.9572   Frozen                                    !
 !      ADUM        90.0      Frozen                                    !
 !      AHOA       127.74     Frozen                                    !
 !       DOH       180.0      Frozen                                    !
 !       DD1         0.0      Frozen                                    !
 !       DD2       180.0      Frozen                                    !
 !       DH1        90.0      Frozen                                    !
 !       DH2       -90.0      Frozen                                    !
 ------------------------------------------------------------------------
 Trust Radius=3.00D-01 FncErr=1.00D-07 GrdErr=1.00D-07
 Number of steps in this run=  20 maximum allowed number of steps= 100.
 GradGradGradGradGradGradGradGradGradGradGradGradGradGradGradGradGradGrad

 ---------------------------------------------------------------------------------------------------
                            Z-MATRIX (ANGSTROMS AND DEGREES)
   CD    Cent   Atom    N1       Length/X        N2       Alpha/Y        N3        Beta/Z          J
 ---------------------------------------------------------------------------------------------------
      1      1  F       -1  -1.969300          2.053680          0.000070
      2      2  C       -1  -1.222250          0.944230          0.000030
      3      3  C       -1   0.140030          1.057400         -0.000020
      4      4  C       -1   0.927950         -0.123640         -0.000080
      5      5  C       -1   2.414660         -0.018650         -0.000010
      6      6  F       -1   3.007080         -1.234610         -0.000560
      7      7  F       -1   2.858290          0.654480         -1.086020
      8      8  F       -1   2.858270          0.653500          1.086650
      9      9  C       -1   0.306540         -1.341490         -0.000090
     10     10  N       -1  -1.054170         -1.389970         -0.000060
     11     11  C       -1  -1.930500         -0.312100          0.000000
     12     12  S       -1  -3.570980         -0.506610          0.000030
     13     13  H       -1   0.596860          2.043100         -0.000020
     14     14  H       -1   0.831760         -2.288990         -0.000150
     15     15  H       -1  -1.521480         -2.296390         -0.000090
     16         X       14   1.000000(    15)      9   90.000(    33)      4  180.000(    50)      0
     17         X       16   1.000000(    16)     14   90.000(    34)      9    0.000(    51)      0
     18     16  O       14   2.193900(    17)     16   90.000(    35)     17  180.000(    52)      0
     19     17  H       18   0.957200(    18)     14  127.740(    36)     16   90.000(    53)      0
     20     18  H       18   0.957200(    19)     14  127.740(    37)     16  -90.000(    54)      0
 ---------------------------------------------------------------------------------------------------
                         Z-Matrix orientation:                         
 ---------------------------------------------------------------------
 Center     Atomic      Atomic             Coordinates (Angstroms)
 Number     Number       Type             X           Y           Z
 ---------------------------------------------------------------------
      1          9           0       -1.969300    2.053680    0.000070
      2          6           0       -1.222250    0.944230    0.000030
      3          6           0        0.140030    1.057400   -0.000020
      4          6           0        0.927950   -0.123640   -0.000080
      5          6           0        2.414660   -0.018650   -0.000010
      6          9           0        3.007080   -1.234610   -0.000560
      7          9           0        2.858290    0.654480   -1.086020
      8          9           0        2.858270    0.653500    1.086650
      9          6           0        0.306540   -1.341490   -0.000090
     10          7           0       -1.054170   -1.389970   -0.000060
     11          6           0       -1.930500   -0.312100    0.000000
     12         16           0       -3.570980   -0.506610    0.000030
     13          1           0        0.596860    2.043100   -0.000020
     14          1           0        0.831760   -2.288990   -0.000150
     15          1           0       -1.521480   -2.296390   -0.000090
     16         -1           0       -0.042855   -2.773808   -0.000122
     17         -1           0       -0.527673   -1.899193   -0.000066
     18          8           0        1.895403   -4.207808   -0.000272
     19          1           0        2.179410   -4.720203   -0.757254
     20          1           0        2.179488   -4.720255    0.756646
 ---------------------------------------------------------------------
                    Distance matrix (angstroms):
                    1          2          3          4          5
     1  F    0.000000
     2  C    1.337521   0.000000
     3  C    2.332777   1.366973   0.000000
     4  C    3.624194   2.400772   1.419744   0.000000
     5  C    4.849088   3.762214   2.516312   1.490413   0.000000
     6  F    5.964663   4.757581   3.670597   2.357337   1.352598
     7  F    5.142274   4.232525   2.954772   2.347541   1.352527
     8  F    5.142625   4.232719   2.955134   2.347566   1.352555
     9  C    4.087374   2.749857   2.404662   1.367227   2.488790
    10  N    3.563171   2.340244   2.723184   2.352104   3.730054
    11  C    2.366098   1.442215   2.482463   2.864656   4.355058
    12  S    3.020011   2.760701   4.027123   4.515201   6.005497
    13  H    2.566182   2.125247   1.086415   2.191890   2.748674
    14  H    5.167661   3.830492   3.417136   2.167485   2.767673
    15  H    4.373060   3.254406   3.742796   3.274225   4.547669
    16  X    5.197676   3.900613   3.835571   2.822384   3.691920
    17  X    4.207552   2.927028   3.031051   2.295959   3.491958
    18  O    7.358135   6.021898   5.550112   4.197188   4.221217
    19  H    7.979400   6.650607   6.173586   4.823677   4.767951
    20  H    7.979414   6.650615   6.173592   4.823677   4.767906
                    6          7          8          9         10
     6  F    0.000000
     7  F    2.183809   0.000000
     8  F    2.183834   2.172670   0.000000
     9  C    2.702654   3.416807   3.416477   0.000000
    10  N    4.064221   4.546034   4.545756   1.361573   0.000000
    11  C    5.023019   5.004620   5.004549   2.462517   1.389157
    12  S    6.618222   6.622926   6.622828   3.966382   2.667332
    13  H    4.068482   2.867355   2.868068   3.397019   3.809445
    14  H    2.417382   3.734964   3.734451   1.083334   2.089251
    15  H    4.651369   5.391592   5.391203   2.062399   1.019792
    16  X    3.416319   4.620495   4.619961   1.474318   1.713991
    17  X    3.596686   4.377818   4.377420   1.003466   0.732467
    18  O    3.174229   5.074233   5.073542   3.277234   4.079239
    19  H    3.661555   5.427355   5.721671   3.936577   4.703173
    20  H    3.661693   5.722235   5.426499   3.936577   4.703185
                   11         12         13         14         15
    11  C    0.000000
    12  S    1.651971   0.000000
    13  H    3.454637   4.885889   0.000000
    14  H    3.396789   4.749842   4.338454   0.000000
    15  H    2.026007   2.720986   4.828927   2.353252   0.000000
    16  X    3.102130   4.193788   4.859202   1.000000   1.553789
    17  X    2.118204   3.346790   4.099543   1.414214   1.070242
    18  O    5.460226   6.601530   6.384361   2.193900   3.915176
    19  H    6.074221   7.169019   6.987141   2.881000   4.488291
    20  H    6.074237   7.169042   6.987148   2.881000   4.488311
                   16         17         18         19         20
    16  X    0.000000
    17  X    1.000000   0.000000
    18  O    2.411057   3.346789   0.000000
    19  H    3.049617   3.982427   0.957200   0.000000
    20  H    3.049617   3.982427   0.957200   1.513901   0.000000
 Symmetry turned off by external request.
 Stoichiometry    C6H5F4NOS
 Framework group  C1[X(C6H5F4NOS)]
 Deg. of freedom    48
 Full point group                 C1      NOp   1
 Rotational constants (GHZ):      0.9300245      0.4008460      0.2951647
 Standard basis: 6-31G(d) (6D, 7F)
 Integral buffers will be    131072 words long.
 Raffenetti 1 integral format.
 Two-electron integral symmetry is turned off.
   209 basis functions,   408 primitive gaussians,   209 cartesian basis functions
    54 alpha electrons       54 beta electrons
       nuclear repulsion energy       918.7550927665 Hartrees.
 NAtoms=   18 NActive=   18 NUniq=   18 SFac= 7.50D-01 NAtFMM=   80 NAOKFM=F Big=F
 One-electron integrals computed using PRISM.
 NBasis=   209 RedAO= T  NBF=   209
 NBsUse=   209 1.00D-06 NBFU=   209
 Harris functional with IExCor=  205 diagonalized for initial guess.
 ExpMin= 1.17D-01 ExpMax= 2.19D+04 ExpMxC= 3.30D+03 IAcc=1 IRadAn=         1 AccDes= 0.00D+00
 HarFok:  IExCor=  205 AccDes= 0.00D+00 IRadAn=         1 IDoV= 1
 ScaDFX=  1.000000  1.000000  1.000000  1.000000
 FoFCou: FMM=F IPFlag=           0 FMFlag=      100000 FMFlg1=           0
         NFxFlg=           0 DoJE=T BraDBF=F KetDBF=T FulRan=T
         Omega=  0.000000  0.000000  1.000000  0.000000  0.000000 ICntrl=     500 IOpCl=  0
         NMat0=    1 NMatS0=    1 NMatT0=    0 NMatD0=    1 NMtDS0=    0 NMtDT0=    0
         I1Cent=           4 NGrid=           0.
 Symmetry not used in FoFCou.
 Requested convergence on RMS density matrix=1.00D-08 within 128 cycles.
 Requested convergence on MAX density matrix=1.00D-06.
 Requested convergence on             energy=1.00D-06.
 No special actions if energy rises.
 Integral accuracy reduced to 1.0D-05 until final iterations.
 Initial convergence to 1.0D-05 achieved.  Increase integral accuracy.
 SCF Done:  E(RHF) =  -1154.68090112     A.U. after   15 cycles
             Convg  =    0.7717D-08             -V/T =  2.0018

 **********************************************************************

            Population analysis using the SCF density.

 **********************************************************************

 Alpha  occ. eigenvalues --  -91.89272 -26.35210 -26.34704 -26.34702 -26.32283
 Alpha  occ. eigenvalues --  -20.59911 -15.67314 -11.52772 -11.36575 -11.35799
 Alpha  occ. eigenvalues --  -11.33918 -11.30034 -11.28648  -8.90371  -6.58705
 Alpha  occ. eigenvalues --   -6.58423  -6.58303  -1.72748  -1.63611  -1.63568
 Alpha  occ. eigenvalues --   -1.63234  -1.37998  -1.34058  -1.15671  -1.10631
 Alpha  occ. eigenvalues --   -1.01648  -0.95702  -0.91236  -0.86863  -0.83461
 Alpha  occ. eigenvalues --   -0.82292  -0.82059  -0.75533  -0.74509  -0.74457
 Alpha  occ. eigenvalues --   -0.72382  -0.70988  -0.70232  -0.70188  -0.68905
 Alpha  occ. eigenvalues --   -0.66222  -0.66075  -0.64830  -0.62799  -0.61863
 Alpha  occ. eigenvalues --   -0.61040  -0.58487  -0.57764  -0.53638  -0.51394
 Alpha  occ. eigenvalues --   -0.45194  -0.41915  -0.32995  -0.29769
 Alpha virt. eigenvalues --    0.05780   0.10320   0.17434   0.20350   0.25571
 Alpha virt. eigenvalues --    0.27323   0.27616   0.27895   0.31181   0.33199
 Alpha virt. eigenvalues --    0.36006   0.38177   0.41174   0.42090   0.44071
 Alpha virt. eigenvalues --    0.44620   0.48133   0.51173   0.55750   0.56857
 Alpha virt. eigenvalues --    0.57687   0.61063   0.62560   0.65642   0.68273
 Alpha virt. eigenvalues --    0.69286   0.74184   0.74364   0.75504   0.76772
 Alpha virt. eigenvalues --    0.78571   0.79183   0.84659   0.85716   0.88665
 Alpha virt. eigenvalues --    0.90630   0.91339   0.93343   0.97277   0.98414
 Alpha virt. eigenvalues --    1.01878   1.03675   1.05407   1.07948   1.08905
 Alpha virt. eigenvalues --    1.09844   1.10358   1.12306   1.12549   1.15707
 Alpha virt. eigenvalues --    1.16448   1.17405   1.20726   1.25930   1.30369
 Alpha virt. eigenvalues --    1.32791   1.32956   1.34260   1.34987   1.36007
 Alpha virt. eigenvalues --    1.36535   1.40186   1.40475   1.43617   1.43817
 Alpha virt. eigenvalues --    1.47814   1.48642   1.53207   1.54067   1.61856
 Alpha virt. eigenvalues --    1.62175   1.63147   1.65012   1.65650   1.66445
 Alpha virt. eigenvalues --    1.67959   1.68232   1.69129   1.70832   1.71715
 Alpha virt. eigenvalues --    1.73292   1.77512   1.78090   1.82673   1.88248
 Alpha virt. eigenvalues --    1.91242   1.93946   1.95098   1.99443   2.01047
 Alpha virt. eigenvalues --    2.02892   2.05983   2.07493   2.10694   2.11148
 Alpha virt. eigenvalues --    2.13548   2.13707   2.16743   2.20201   2.21798
 Alpha virt. eigenvalues --    2.23954   2.24996   2.25876   2.29995   2.31345
 Alpha virt. eigenvalues --    2.32404   2.34089   2.36027   2.36281   2.37275
 Alpha virt. eigenvalues --    2.39374   2.41455   2.44506   2.47026   2.47113
 Alpha virt. eigenvalues --    2.48656   2.53766   2.58859   2.62344   2.63342
 Alpha virt. eigenvalues --    2.67023   2.69825   2.76638   2.84584   2.85782
 Alpha virt. eigenvalues --    2.86216   2.90740   2.93372   2.94735   2.94777
 Alpha virt. eigenvalues --    3.01856   3.08812   3.11109   3.18861   3.23611
 Alpha virt. eigenvalues --    3.31403   3.38693   3.40150   3.44110   3.45925
 Alpha virt. eigenvalues --    3.50800   3.72818   4.05266   4.38984   4.41845
 Alpha virt. eigenvalues --    4.47455   4.49689   4.63733   4.68380   4.69863
 Alpha virt. eigenvalues --    4.83385   5.03067   5.17066   5.58718   6.03276
          Condensed to atoms (all electrons):
              1          2          3          4          5          6
     1  F    9.165853   0.265616  -0.033926   0.002236  -0.000015   0.000000
     2  C    0.265616   4.584459   0.565798  -0.024602   0.000973  -0.000019
     3  C   -0.033926   0.565798   5.069591   0.350095  -0.013306   0.002239
     4  C    0.002236  -0.024602   0.350095   5.238635   0.414829  -0.044155
     5  C   -0.000015   0.000973  -0.013306   0.414829   3.550891   0.291248
     6  F    0.000000  -0.000019   0.002239  -0.044155   0.291248   9.182883
     7  F    0.000000   0.000296   0.005123  -0.055728   0.283071  -0.030769
     8  F    0.000000   0.000295   0.005116  -0.055735   0.283080  -0.030770
     9  C    0.000116  -0.024299  -0.053027   0.582064  -0.018817   0.005393
    10  N    0.001390  -0.050134  -0.024815  -0.030002   0.001483   0.000227
    11  C   -0.041027   0.383607  -0.077375  -0.002578   0.000056   0.000001
    12  S    0.003565  -0.083702   0.001711  -0.000088   0.000006   0.000000
    13  H   -0.000260  -0.018319   0.369188  -0.030183  -0.000341   0.000036
    14  H    0.000000  -0.000156   0.001691  -0.018958   0.000071   0.003328
    15  H   -0.000019   0.003827  -0.000569   0.002347  -0.000017   0.000002
    16  O    0.000000   0.000000  -0.000004  -0.000008   0.000199   0.000250
    17  H    0.000000   0.000000   0.000000  -0.000010  -0.000003   0.000021
    18  H    0.000000   0.000000   0.000000  -0.000010  -0.000003   0.000021
              7          8          9         10         11         12
     1  F    0.000000   0.000000   0.000116   0.001390  -0.041027   0.003565
     2  C    0.000296   0.000295  -0.024299  -0.050134   0.383607  -0.083702
     3  C    0.005123   0.005116  -0.053027  -0.024815  -0.077375   0.001711
     4  C   -0.055728  -0.055735   0.582064  -0.030002  -0.002578  -0.000088
     5  C    0.283071   0.283080  -0.018817   0.001483   0.000056   0.000006
     6  F   -0.030769  -0.030770   0.005393   0.000227   0.000001   0.000000
     7  F    9.207617  -0.033871   0.000478  -0.000006  -0.000002   0.000000
     8  F   -0.033871   9.207635   0.000474  -0.000006  -0.000002   0.000000
     9  C    0.000478   0.000474   4.817969   0.256827  -0.039498   0.003306
    10  N   -0.000006  -0.000006   0.256827   7.241011   0.216378  -0.104243
    11  C   -0.000002  -0.000002  -0.039498   0.216378   4.947289   0.439604
    12  S    0.000000   0.000000   0.003306  -0.104243   0.439604  15.978405
    13  H    0.000921   0.000917   0.002522  -0.000294   0.002658  -0.000060
    14  H    0.000065   0.000065   0.352352  -0.028475   0.000699  -0.000102
    15  H    0.000000   0.000000  -0.021431   0.310511  -0.018783   0.013733
    16  O    0.000000   0.000000  -0.006098  -0.000045  -0.000004   0.000000
    17  H    0.000000   0.000000   0.000290  -0.000003   0.000000   0.000000
    18  H    0.000000   0.000000   0.000290  -0.000003   0.000000   0.000000
             13         14         15         16         17         18
     1  F   -0.000260   0.000000  -0.000019   0.000000   0.000000   0.000000
     2  C   -0.018319  -0.000156   0.003827   0.000000   0.000000   0.000000
     3  C    0.369188   0.001691  -0.000569  -0.000004   0.000000   0.000000
     4  C   -0.030183  -0.018958   0.002347  -0.000008  -0.000010  -0.000010
     5  C   -0.000341   0.000071  -0.000017   0.000199  -0.000003  -0.000003
     6  F    0.000036   0.003328   0.000002   0.000250   0.000021   0.000021
     7  F    0.000921   0.000065   0.000000   0.000000   0.000000   0.000000
     8  F    0.000917   0.000065   0.000000   0.000000   0.000000   0.000000
     9  C    0.002522   0.352352  -0.021431  -0.006098   0.000290   0.000290
    10  N   -0.000294  -0.028475   0.310511  -0.000045  -0.000003  -0.000003
    11  C    0.002658   0.000699  -0.018783  -0.000004   0.000000   0.000000
    12  S   -0.000060  -0.000102   0.013733   0.000000   0.000000   0.000000
    13  H    0.398116  -0.000050   0.000009   0.000000   0.000000   0.000000
    14  H   -0.000050   0.307159  -0.001217   0.013335  -0.000276  -0.000276
    15  H    0.000009  -0.001217   0.271274   0.000141  -0.000005  -0.000005
    16  O    0.000000   0.013335   0.000141   8.342493   0.265917   0.265917
    17  H    0.000000  -0.000276  -0.000005   0.265917   0.302075  -0.017240
    18  H    0.000000  -0.000276  -0.000005   0.265917  -0.017240   0.302076
 Mulliken atomic charges:
              1
     1  F   -0.363530
     2  C    0.396359
     3  C   -0.167531
     4  C   -0.328150
     5  C    1.206594
     6  F   -0.379936
     7  F   -0.377195
     8  F   -0.377199
     9  C    0.141088
    10  N   -0.789799
    11  C    0.188975
    12  S   -0.252135
    13  H    0.275139
    14  H    0.370745
    15  H    0.440203
    16  O   -0.882094
    17  H    0.449233
    18  H    0.449232
 Sum of Mulliken atomic charges =   0.00000
 Mulliken charges with hydrogens summed into heavy atoms:
              1
     1  F   -0.363530
     2  C    0.396359
     3  C    0.107608
     4  C   -0.328150
     5  C    1.206594
     6  F   -0.379936
     7  F   -0.377195
     8  F   -0.377199
     9  C    0.511834
    10  N   -0.349596
    11  C    0.188975
    12  S   -0.252135
    16  O    0.016371
 Sum of Mulliken charges with hydrogens summed into heavy atoms =   0.00000
 Electronic spatial extent (au):  <R**2>=           3433.3483
 Charge=              0.0000 electrons
 Dipole moment (field-independent basis, Debye):
    X=              5.1989    Y=             -5.3535    Z=             -0.0006  Tot=              7.4624
 Quadrupole moment (field-independent basis, Debye-Ang):
   XX=           -102.7473   YY=            -51.7133   ZZ=            -79.4731
   XY=             -8.5625   XZ=             -0.0007   YZ=              0.0016
 Traceless Quadrupole moment (field-independent basis, Debye-Ang):
   XX=            -24.7694   YY=             26.2646   ZZ=             -1.4952
   XY=             -8.5625   XZ=             -0.0007   YZ=              0.0016
 Octapole moment (field-independent basis, Debye-Ang**2):
  XXX=             81.7210  YYY=            -50.1757  ZZZ=              0.0019  XYY=             74.5355
  XXY=              2.6025  XXZ=             -0.0012  XZZ=              9.8697  YZZ=             20.3735
  YYZ=             -0.0052  XYZ=              0.0030
 Hexadecapole moment (field-independent basis, Debye-Ang**3):
 XXXX=          -2825.3542 YYYY=           -446.9855 ZZZZ=           -143.8574 XXXY=             44.5533
 XXXZ=              0.0126 YYYX=           -207.9074 YYYZ=              0.0155 ZZZX=              0.0062
 ZZZY=             -0.0189 XXYY=           -489.4181 XXZZ=           -459.6818 YYZZ=           -176.3849
 XXYZ=             -0.0032 YYXZ=             -0.0074 ZZXY=             11.3529
 N-N= 9.187550927665D+02 E-N=-4.576375676758D+03  KE= 1.152561719324D+03
 Calling FoFJK, ICntrl=      2127 FMM=F ISym2X=0 I1Cent= 0 IOpClX= 0 NMat=1 NMatS=1 NMatT=0.
 -------------------------------------------------------------------
 Center     Atomic                   Forces (Hartrees/Bohr)
 Number     Number              X              Y              Z
 -------------------------------------------------------------------
      1        9           0.000000000    0.000000000    0.000000000
      2        6           0.000000000    0.000000000    0.000000000
      3        6           0.000000000    0.000000000    0.000000000
      4        6           0.000000000    0.000000000    0.000000000
      5        6           0.000000000    0.000000000    0.000000000
      6        9           0.000000000    0.000000000    0.000000000
      7        9           0.000000000    0.000000000    0.000000000
      8        9           0.000000000    0.000000000    0.000000000
      9        6           0.000000000    0.000000000    0.000000000
     10        7           0.000000000    0.000000000    0.000000000
     11        6           0.000000000    0.000000000    0.000000000
     12       16           0.000000000    0.000000000    0.000000000
     13        1           0.000000000    0.000000000    0.000000000
     14        1           0.000000000    0.000000000    0.000000000
     15        1           0.000000000    0.000000000    0.000000000
     16        8           0.005164123   -0.014477257   -0.000000562
     17        1          -0.003075566    0.006838402    0.006380189
     18        1          -0.003076279    0.006838660   -0.006379436
 -------------------------------------------------------------------
 Cartesian Forces:  Max     0.014477257 RMS     0.002822255
 -----------------------------------------------------------------------------------------------
                       Internal Coordinate Forces (Hartree/Bohr or radian)
  Cent   Atom   N1       Length/X         N2         Alpha/Y        N3         Beta/Z          J
 -----------------------------------------------------------------------------------------------
      1  F 
      2  C 
      3  C 
      4  C 
      5  C 
      6  F 
      7  F 
      8  F 
      9  C 
     10  N 
     11  C 
     12  S 
     13  H 
     14  H 
     15  H 
         X       14   0.000000(     1)      9  -0.003806(     6)      4   0.000000(    11)     0
         X       16   0.000000(     2)     14   0.000000(     7)      9   0.000000(    12)     0
     16  O       14   0.000221(     3)     16  -0.003806(     8)     17   0.000000(    13)     0
     17  H       18  -0.009619(     4)     14  -0.003625(     9)     16   0.000894(    14)     0
     18  H       18  -0.009619(     5)     14  -0.003625(    10)     16  -0.000894(    15)     0
 -----------------------------------------------------------------------------------------------
 Internal  Forces:  Max     0.009618826 RMS     0.004016128

 GradGradGradGradGradGradGradGradGradGradGradGradGradGradGradGradGradGrad
 Berny optimization.
 Search for a local minimum.
 Step number   1 out of a maximum of   20
 All quantities printed in internal units (Hartrees-Bohrs-Radians)
 Second derivative matrix not updated -- first step.
 The second derivative matrix:
                          RX       RDUM       ROH      ADUM      AHOA
           RX           0.03175
           RDUM         0.00000   0.00000
           ROH          0.00000   0.00000   1.12160
           ADUM         0.00000   0.00000   0.00000   1.00904
           AHOA         0.00000   0.00000   0.00000   0.00000   0.96000
           DOH          0.00000   0.00000   0.00000   0.00000   0.00000
           DD1          0.00000   0.00000   0.00000  -0.00002   0.00000
           DD2          0.00000   0.00000   0.00000   0.00002   0.00000
           DH1          0.00000   0.00000   0.00000   0.01595   0.00000
           DH2          0.00000   0.00000   0.00000  -0.01595   0.00000
                          DOH       DD1       DD2       DH1       DH2
           DOH          0.00000
           DD1          0.00000   0.32682
           DD2          0.00000  -0.32682   0.32682
           DH1          0.00000   0.00000   0.00000   0.02814
           DH2          0.00000   0.00000   0.00000  -0.02814   0.02814
     Eigenvalues ---    0.031751000.000001000.000001000.000001000.00000
     Eigenvalues --- 1000.000001000.000001000.000001000.000001000.00000
 RFO step:  Lambda=-1.53804989D-06 EMin= 3.17542384D-02
 Linear search not attempted -- first point.
 Variable       Old X    -DE/DX   Delta X   Delta X   Delta X     New X
                                 (Linear)    (Quad)   (Total)
    RX        4.14587   0.00022   0.00000   0.00696   0.00696   4.15283
   RDUM       1.88973   0.00000   0.00000   0.00000   0.00000   1.88973
   ROH        1.80885  -0.01924   0.00000   0.00000   0.00000   1.80885
   ADUM       1.57080  -0.00761   0.00000   0.00000   0.00000   1.57080
   AHOA       2.22948  -0.00725   0.00000   0.00000   0.00000   2.22948
   DOH        3.14159   0.00000   0.00000   0.00000   0.00000   3.14159
   DD1        0.00000   0.00000   0.00000   0.00000   0.00000   0.00000
   DD2        3.14159   0.00000   0.00000   0.00000   0.00000   3.14159
   DH1        1.57080   0.00089   0.00000   0.00000   0.00000   1.57080
   DH2       -1.57080  -0.00089   0.00000   0.00000   0.00000  -1.57080
         Item               Value     Threshold  Converged?
 Maximum Force            0.000221     0.000450     YES
 RMS     Force            0.000221     0.000300     YES
 Maximum Displacement     0.006959     0.001800     NO 
 RMS     Displacement     0.002201     0.001200     NO 
 Predicted change in Energy=-7.690249D-07
 GradGradGradGradGradGradGradGradGradGradGradGradGradGradGradGradGradGrad

 ---------------------------------------------------------------------------------------------------
                            Z-MATRIX (ANGSTROMS AND DEGREES)
   CD    Cent   Atom    N1       Length/X        N2       Alpha/Y        N3        Beta/Z          J
 ---------------------------------------------------------------------------------------------------
      1      1  F       -1  -1.969300          2.053680          0.000070
      2      2  C       -1  -1.222250          0.944230          0.000030
      3      3  C       -1   0.140030          1.057400         -0.000020
      4      4  C       -1   0.927950         -0.123640         -0.000080
      5      5  C       -1   2.414660         -0.018650         -0.000010
      6      6  F       -1   3.007080         -1.234610         -0.000560
      7      7  F       -1   2.858290          0.654480         -1.086020
      8      8  F       -1   2.858270          0.653500          1.086650
      9      9  C       -1   0.306540         -1.341490         -0.000090
     10     10  N       -1  -1.054170         -1.389970         -0.000060
     11     11  C       -1  -1.930500         -0.312100          0.000000
     12     12  S       -1  -3.570980         -0.506610          0.000030
     13     13  H       -1   0.596860          2.043100         -0.000020
     14     14  H       -1   0.831760         -2.288990         -0.000150
     15     15  H       -1  -1.521480         -2.296390         -0.000090
     16         X       14   1.000000(    15)      9   90.000(    33)      4  180.000(    50)      0
     17         X       16   1.000000(    16)     14   90.000(    34)      9    0.000(    51)      0
     18     16  O       14   2.197583(    17)     16   90.000(    35)     17  180.000(    52)      0
     19     17  H       18   0.957200(    18)     14  127.740(    36)     16   90.000(    53)      0
     20     18  H       18   0.957200(    19)     14  127.740(    37)     16  -90.000(    54)      0
 ---------------------------------------------------------------------------------------------------
                         Z-Matrix orientation:                         
 ---------------------------------------------------------------------
 Center     Atomic      Atomic             Coordinates (Angstroms)
 Number     Number       Type             X           Y           Z
 ---------------------------------------------------------------------
      1          9           0       -1.969300    2.053680    0.000070
      2          6           0       -1.222250    0.944230    0.000030
      3          6           0        0.140030    1.057400   -0.000020
      4          6           0        0.927950   -0.123640   -0.000080
      5          6           0        2.414660   -0.018650   -0.000010
      6          9           0        3.007080   -1.234610   -0.000560
      7          9           0        2.858290    0.654480   -1.086020
      8          9           0        2.858270    0.653500    1.086650
      9          6           0        0.306540   -1.341490   -0.000090
     10          7           0       -1.054170   -1.389970   -0.000060
     11          6           0       -1.930500   -0.312100    0.000000
     12         16           0       -3.570980   -0.506610    0.000030
     13          1           0        0.596860    2.043100   -0.000020
     14          1           0        0.831760   -2.288990   -0.000150
     15          1           0       -1.521480   -2.296390   -0.000090
     16         -1           0       -0.042855   -2.773808   -0.000122
     17         -1           0       -0.527673   -1.899193   -0.000066
     18          8           0        1.897188   -4.211029   -0.000272
     19          1           0        2.181195   -4.723424   -0.757254
     20          1           0        2.181274   -4.723476    0.756646
 ---------------------------------------------------------------------
                    Distance matrix (angstroms):
                    1          2          3          4          5
     1  F    0.000000
     2  C    1.337521   0.000000
     3  C    2.332777   1.366973   0.000000
     4  C    3.624194   2.400772   1.419744   0.000000
     5  C    4.849088   3.762214   2.516312   1.490413   0.000000
     6  F    5.964663   4.757581   3.670597   2.357337   1.352598
     7  F    5.142274   4.232525   2.954772   2.347541   1.352527
     8  F    5.142625   4.232719   2.955134   2.347566   1.352555
     9  C    4.087374   2.749857   2.404662   1.367227   2.488790
    10  N    3.563171   2.340244   2.723184   2.352104   3.730054
    11  C    2.366098   1.442215   2.482463   2.864656   4.355058
    12  S    3.020011   2.760701   4.027123   4.515201   6.005497
    13  H    2.566182   2.125247   1.086415   2.191890   2.748674
    14  H    5.167661   3.830492   3.417136   2.167485   2.767673
    15  H    4.373060   3.254406   3.742796   3.274225   4.547669
    16  X    5.197676   3.900613   3.835571   2.822384   3.691920
    17  X    4.207552   2.927028   3.031051   2.295959   3.491958
    18  O    7.361814   6.025578   5.553733   4.200734   4.224194
    19  H    7.983063   6.654263   6.177191   4.827209   4.771040
    20  H    7.983077   6.654272   6.177196   4.827209   4.770994
                    6          7          8          9         10
     6  F    0.000000
     7  F    2.183809   0.000000
     8  F    2.183834   2.172670   0.000000
     9  C    2.702654   3.416807   3.416477   0.000000
    10  N    4.064221   4.546034   4.545756   1.361573   0.000000
    11  C    5.023019   5.004620   5.004549   2.462517   1.389157
    12  S    6.618222   6.622926   6.622828   3.966382   2.667332
    13  H    4.068482   2.867355   2.868068   3.397019   3.809445
    14  H    2.417382   3.734964   3.734451   1.083334   2.089251
    15  H    4.651369   5.391592   5.391203   2.062399   1.019792
    16  X    3.416319   4.620495   4.619961   1.474318   1.713991
    17  X    3.596686   4.377818   4.377420   1.003466   0.732467
    18  O    3.176622   5.076981   5.076290   3.280917   4.082755
    19  H    3.664218   5.430322   5.724485   3.940191   4.706681
    20  H    3.664356   5.725049   5.429466   3.940191   4.706694
                   11         12         13         14         15
    11  C    0.000000
    12  S    1.651971   0.000000
    13  H    3.454637   4.885889   0.000000
    14  H    3.396789   4.749842   4.338454   0.000000
    15  H    2.026007   2.720986   4.828927   2.353252   0.000000
    16  X    3.102130   4.193788   4.859202   1.000000   1.553789
    17  X    2.118204   3.346790   4.099543   1.414214   1.070242
    18  O    5.463775   6.604815   6.387877   2.197583   3.918307
    19  H    6.077767   7.172344   6.990663   2.884554   4.491503
    20  H    6.077782   7.172367   6.990670   2.884554   4.491523
                   16         17         18         19         20
    16  X    0.000000
    17  X    1.000000   0.000000
    18  O    2.414409   3.350304   0.000000
    19  H    3.052974   3.985923   0.957200   0.000000
    20  H    3.052974   3.985923   0.957200   1.513901   0.000000
 Symmetry turned off by external request.
 Stoichiometry    C6H5F4NOS
 Framework group  C1[X(C6H5F4NOS)]
 Deg. of freedom    48
 Full point group                 C1      NOp   1
 Rotational constants (GHZ):      0.9294212      0.4007777      0.2950669
 Standard basis: 6-31G(d) (6D, 7F)
 Integral buffers will be    131072 words long.
 Raffenetti 1 integral format.
 Two-electron integral symmetry is turned off.
   209 basis functions,   408 primitive gaussians,   209 cartesian basis functions
    54 alpha electrons       54 beta electrons
       nuclear repulsion energy       918.6806596101 Hartrees.
 NAtoms=   18 NActive=   18 NUniq=   18 SFac= 7.50D-01 NAtFMM=   80 NAOKFM=F Big=F
 One-electron integrals computed using PRISM.
 NBasis=   209 RedAO= T  NBF=   209
 NBsUse=   209 1.00D-06 NBFU=   209
 Initial guess read from the read-write file.
 B after Tr=     0.000000    0.000000    0.000000
         Rot=    1.000000    0.000000    0.000000    0.000000 Ang=   0.00 deg.
 Requested convergence on RMS density matrix=1.00D-08 within 128 cycles.
 Requested convergence on MAX density matrix=1.00D-06.
 Requested convergence on             energy=1.00D-06.
 No special actions if energy rises.
 SCF Done:  E(RHF) =  -1154.68090248     A.U. after    7 cycles
             Convg  =    0.8103D-08             -V/T =  2.0018
 Calling FoFJK, ICntrl=      2127 FMM=F ISym2X=0 I1Cent= 0 IOpClX= 0 NMat=1 NMatS=1 NMatT=0.
 -------------------------------------------------------------------
 Center     Atomic                   Forces (Hartrees/Bohr)
 Number     Number              X              Y              Z
 -------------------------------------------------------------------
      1        9           0.000000000    0.000000000    0.000000000
      2        6           0.000000000    0.000000000    0.000000000
      3        6           0.000000000    0.000000000    0.000000000
      4        6           0.000000000    0.000000000    0.000000000
      5        6           0.000000000    0.000000000    0.000000000
      6        9           0.000000000    0.000000000    0.000000000
      7        9           0.000000000    0.000000000    0.000000000
      8        9           0.000000000    0.000000000    0.000000000
      9        6           0.000000000    0.000000000    0.000000000
     10        7           0.000000000    0.000000000    0.000000000
     11        6           0.000000000    0.000000000    0.000000000
     12       16           0.000000000    0.000000000    0.000000000
     13        1           0.000000000    0.000000000    0.000000000
     14        1           0.000000000    0.000000000    0.000000000
     15        1           0.000000000    0.000000000    0.000000000
     16        8           0.005150464   -0.014428699   -0.000000561
     17        1          -0.003077634    0.006838719    0.006385599
     18        1          -0.003078347    0.006838979   -0.006384845
 -------------------------------------------------------------------
 Cartesian Forces:  Max     0.014428699 RMS     0.002817750
 -----------------------------------------------------------------------------------------------
                       Internal Coordinate Forces (Hartree/Bohr or radian)
  Cent   Atom   N1       Length/X         N2         Alpha/Y        N3         Beta/Z          J
 -----------------------------------------------------------------------------------------------
      1  F 
      2  C 
      3  C 
      4  C 
      5  C 
      6  F 
      7  F 
      8  F 
      9  C 
     10  N 
     11  C 
     12  S 
     13  H 
     14  H 
     15  H 
         X       14   0.000000(     1)      9  -0.003783(     6)      4   0.000000(    11)     0
         X       16   0.000000(     2)     14   0.000000(     7)      9   0.000000(    12)     0
     16  O       14   0.000169(     3)     16  -0.003783(     8)     17   0.000000(    13)     0
     17  H       18  -0.009624(     4)     14  -0.003621(     9)     16   0.000892(    14)     0
     18  H       18  -0.009624(     5)     14  -0.003621(    10)     16  -0.000892(    15)     0
 -----------------------------------------------------------------------------------------------
 Internal  Forces:  Max     0.009623888 RMS     0.004014230

 GradGradGradGradGradGradGradGradGradGradGradGradGradGradGradGradGradGrad
 Berny optimization.
 Search for a local minimum.
 Step number   2 out of a maximum of   20
 All quantities printed in internal units (Hartrees-Bohrs-Radians)
 Update second derivatives using D2CorN and points    1    2
 DE= -1.36D-06 DEPred=-7.69D-07 R= 1.77D+00
 SS=  1.41D+00  RLast= 6.96D-03 DXNew= 5.0454D-01 2.0878D-02
 Trust test= 1.77D+00 RLast= 6.96D-03 DXMaxT set to 3.00D-01
 The second derivative matrix:
                          RX       RDUM       ROH      ADUM      AHOA
           RX           0.00742
           RDUM         0.00000   0.00000
           ROH          0.00073   0.00000   1.12160
           ADUM        -0.00317   0.00000   0.00000   1.00904
           AHOA        -0.00060   0.00000   0.00000   0.00000   0.96000
           DOH          0.00000   0.00000   0.00000   0.00000   0.00000
           DD1          0.00000   0.00000   0.00000  -0.00002   0.00000
           DD2          0.00000   0.00000   0.00000   0.00002   0.00000
           DH1          0.00017   0.00000   0.00000   0.01595   0.00000
           DH2         -0.00017   0.00000   0.00000  -0.01595   0.00000
                          DOH       DD1       DD2       DH1       DH2
           DOH          0.00000
           DD1          0.00000   0.32682
           DD2          0.00000  -0.32682   0.32682
           DH1          0.00000   0.00000   0.00000   0.02814
           DH2          0.00000   0.00000   0.00000  -0.02814   0.02814
     Eigenvalues ---    0.007421000.000001000.000001000.000001000.00000
     Eigenvalues --- 1000.000001000.000001000.000001000.000001000.00000
 RFO step:  Lambda= 0.00000000D+00 EMin= 7.42227750D-03
 Quartic linear search produced a step of  2.00000.
 Variable       Old X    -DE/DX   Delta X   Delta X   Delta X     New X
                                 (Linear)    (Quad)   (Total)
    RX        4.15283   0.00017   0.01392   0.00000   0.01392   4.16675
   RDUM       1.88973   0.00000   0.00000   0.00000   0.00000   1.88973
   ROH        1.80885  -0.01925   0.00000   0.00000   0.00000   1.80885
   ADUM       1.57080  -0.00757   0.00000   0.00000   0.00000   1.57080
   AHOA       2.22948  -0.00724   0.00000   0.00000   0.00000   2.22948
   DOH        3.14159   0.00000   0.00000   0.00000   0.00000   3.14159
   DD1        0.00000   0.00000   0.00000   0.00000   0.00000   0.00000
   DD2        3.14159   0.00000   0.00000   0.00000   0.00000   3.14159
   DH1        1.57080   0.00089   0.00000   0.00000   0.00000   1.57080
   DH2       -1.57080  -0.00089   0.00000   0.00000   0.00000  -1.57080
         Item               Value     Threshold  Converged?
 Maximum Force            0.000169     0.000450     YES
 RMS     Force            0.000169     0.000300     YES
 Maximum Displacement     0.013919     0.001800     NO 
 RMS     Displacement     0.004401     0.001200     NO 
 Predicted change in Energy=-1.638067D-06
 GradGradGradGradGradGradGradGradGradGradGradGradGradGradGradGradGradGrad

 ---------------------------------------------------------------------------------------------------
                            Z-MATRIX (ANGSTROMS AND DEGREES)
   CD    Cent   Atom    N1       Length/X        N2       Alpha/Y        N3        Beta/Z          J
 ---------------------------------------------------------------------------------------------------
      1      1  F       -1  -1.969300          2.053680          0.000070
      2      2  C       -1  -1.222250          0.944230          0.000030
      3      3  C       -1   0.140030          1.057400         -0.000020
      4      4  C       -1   0.927950         -0.123640         -0.000080
      5      5  C       -1   2.414660         -0.018650         -0.000010
      6      6  F       -1   3.007080         -1.234610         -0.000560
      7      7  F       -1   2.858290          0.654480         -1.086020
      8      8  F       -1   2.858270          0.653500          1.086650
      9      9  C       -1   0.306540         -1.341490         -0.000090
     10     10  N       -1  -1.054170         -1.389970         -0.000060
     11     11  C       -1  -1.930500         -0.312100          0.000000
     12     12  S       -1  -3.570980         -0.506610          0.000030
     13     13  H       -1   0.596860          2.043100         -0.000020
     14     14  H       -1   0.831760         -2.288990         -0.000150
     15     15  H       -1  -1.521480         -2.296390         -0.000090
     16         X       14   1.000000(    15)      9   90.000(    33)      4  180.000(    50)      0
     17         X       16   1.000000(    16)     14   90.000(    34)      9    0.000(    51)      0
     18     16  O       14   2.204948(    17)     16   90.000(    35)     17  180.000(    52)      0
     19     17  H       18   0.957200(    18)     14  127.740(    36)     16   90.000(    53)      0
     20     18  H       18   0.957200(    19)     14  127.740(    37)     16  -90.000(    54)      0
 ---------------------------------------------------------------------------------------------------
                         Z-Matrix orientation:                         
 ---------------------------------------------------------------------
 Center     Atomic      Atomic             Coordinates (Angstroms)
 Number     Number       Type             X           Y           Z
 ---------------------------------------------------------------------
      1          9           0       -1.969300    2.053680    0.000070
      2          6           0       -1.222250    0.944230    0.000030
      3          6           0        0.140030    1.057400   -0.000020
      4          6           0        0.927950   -0.123640   -0.000080
      5          6           0        2.414660   -0.018650   -0.000010
      6          9           0        3.007080   -1.234610   -0.000560
      7          9           0        2.858290    0.654480   -1.086020
      8          9           0        2.858270    0.653500    1.086650
      9          6           0        0.306540   -1.341490   -0.000090
     10          7           0       -1.054170   -1.389970   -0.000060
     11          6           0       -1.930500   -0.312100    0.000000
     12         16           0       -3.570980   -0.506610    0.000030
     13          1           0        0.596860    2.043100   -0.000020
     14          1           0        0.831760   -2.288990   -0.000150
     15          1           0       -1.521480   -2.296390   -0.000090
     16         -1           0       -0.042855   -2.773808   -0.000122
     17         -1           0       -0.527673   -1.899193   -0.000066
     18          8           0        1.900759   -4.217471   -0.000272
     19          1           0        2.184766   -4.729866   -0.757255
     20          1           0        2.184845   -4.729918    0.756646
 ---------------------------------------------------------------------
                    Distance matrix (angstroms):
                    1          2          3          4          5
     1  F    0.000000
     2  C    1.337521   0.000000
     3  C    2.332777   1.366973   0.000000
     4  C    3.624194   2.400772   1.419744   0.000000
     5  C    4.849088   3.762214   2.516312   1.490413   0.000000
     6  F    5.964663   4.757581   3.670597   2.357337   1.352598
     7  F    5.142274   4.232525   2.954772   2.347541   1.352527
     8  F    5.142625   4.232719   2.955134   2.347566   1.352555
     9  C    4.087374   2.749857   2.404662   1.367227   2.488790
    10  N    3.563171   2.340244   2.723184   2.352104   3.730054
    11  C    2.366098   1.442215   2.482463   2.864656   4.355058
    12  S    3.020011   2.760701   4.027123   4.515201   6.005497
    13  H    2.566182   2.125247   1.086415   2.191890   2.748674
    14  H    5.167661   3.830492   3.417136   2.167485   2.767673
    15  H    4.373060   3.254406   3.742796   3.274225   4.547669
    16  X    5.197676   3.900613   3.835571   2.822384   3.691920
    17  X    4.207552   2.927028   3.031051   2.295959   3.491958
    18  O    7.369171   6.032938   5.560973   4.207827   4.230152
    19  H    7.990388   6.661577   6.184399   4.834275   4.777219
    20  H    7.990402   6.661585   6.184405   4.834275   4.777174
                    6          7          8          9         10
     6  F    0.000000
     7  F    2.183809   0.000000
     8  F    2.183834   2.172670   0.000000
     9  C    2.702654   3.416807   3.416477   0.000000
    10  N    4.064221   4.546034   4.545756   1.361573   0.000000
    11  C    5.023019   5.004620   5.004549   2.462517   1.389157
    12  S    6.618222   6.622926   6.622828   3.966382   2.667332
    13  H    4.068482   2.867355   2.868068   3.397019   3.809445
    14  H    2.417382   3.734964   3.734451   1.083334   2.089251
    15  H    4.651369   5.391592   5.391203   2.062399   1.019792
    16  X    3.416319   4.620495   4.619961   1.474318   1.713991
    17  X    3.596686   4.377818   4.377420   1.003466   0.732467
    18  O    3.181415   5.082481   5.081789   3.288282   4.089788
    19  H    3.669550   5.436258   5.730115   3.947420   4.713699
    20  H    3.669688   5.730680   5.435402   3.947420   4.713711
                   11         12         13         14         15
    11  C    0.000000
    12  S    1.651971   0.000000
    13  H    3.454637   4.885889   0.000000
    14  H    3.396789   4.749842   4.338454   0.000000
    15  H    2.026007   2.720986   4.828927   2.353252   0.000000
    16  X    3.102130   4.193788   4.859202   1.000000   1.553789
    17  X    2.118204   3.346790   4.099543   1.414214   1.070242
    18  O    5.470874   6.611385   6.394912   2.204948   3.924573
    19  H    6.084859   7.178996   6.997708   2.891662   4.497929
    20  H    6.084874   7.179019   6.997715   2.891662   4.497950
                   16         17         18         19         20
    16  X    0.000000
    17  X    1.000000   0.000000
    18  O    2.421115   3.357334   0.000000
    19  H    3.059691   3.992915   0.957200   0.000000
    20  H    3.059691   3.992915   0.957200   1.513901   0.000000
 Symmetry turned off by external request.
 Stoichiometry    C6H5F4NOS
 Framework group  C1[X(C6H5F4NOS)]
 Deg. of freedom    48
 Full point group                 C1      NOp   1
 Rotational constants (GHZ):      0.9282167      0.4006408      0.2948712
 Standard basis: 6-31G(d) (6D, 7F)
 Integral buffers will be    131072 words long.
 Raffenetti 1 integral format.
 Two-electron integral symmetry is turned off.
   209 basis functions,   408 primitive gaussians,   209 cartesian basis functions
    54 alpha electrons       54 beta electrons
       nuclear repulsion energy       918.5320814789 Hartrees.
 NAtoms=   18 NActive=   18 NUniq=   18 SFac= 7.50D-01 NAtFMM=   80 NAOKFM=F Big=F
 One-electron integrals computed using PRISM.
 NBasis=   209 RedAO= T  NBF=   209
 NBsUse=   209 1.00D-06 NBFU=   209
 Initial guess read from the read-write file.
 B after Tr=     0.000000    0.000000    0.000000
         Rot=    1.000000    0.000000    0.000000    0.000000 Ang=   0.00 deg.
 Requested convergence on RMS density matrix=1.00D-08 within 128 cycles.
 Requested convergence on MAX density matrix=1.00D-06.
 Requested convergence on             energy=1.00D-06.
 No special actions if energy rises.
 SCF Done:  E(RHF) =  -1154.68090413     A.U. after    8 cycles
             Convg  =    0.4883D-08             -V/T =  2.0018
 Calling FoFJK, ICntrl=      2127 FMM=F ISym2X=0 I1Cent= 0 IOpClX= 0 NMat=1 NMatS=1 NMatT=0.
 -------------------------------------------------------------------
 Center     Atomic                   Forces (Hartrees/Bohr)
 Number     Number              X              Y              Z
 -------------------------------------------------------------------
      1        9           0.000000000    0.000000000    0.000000000
      2        6           0.000000000    0.000000000    0.000000000
      3        6           0.000000000    0.000000000    0.000000000
      4        6           0.000000000    0.000000000    0.000000000
      5        6           0.000000000    0.000000000    0.000000000
      6        9           0.000000000    0.000000000    0.000000000
      7        9           0.000000000    0.000000000    0.000000000
      8        9           0.000000000    0.000000000    0.000000000
      9        6           0.000000000    0.000000000    0.000000000
     10        7           0.000000000    0.000000000    0.000000000
     11        6           0.000000000    0.000000000    0.000000000
     12       16           0.000000000    0.000000000    0.000000000
     13        1           0.000000000    0.000000000    0.000000000
     14        1           0.000000000    0.000000000    0.000000000
     15        1           0.000000000    0.000000000    0.000000000
     16        8           0.005124195   -0.014334028   -0.000000559
     17        1          -0.003081731    0.006839321    0.006396302
     18        1          -0.003082444    0.006839583   -0.006395547
 -------------------------------------------------------------------
 Cartesian Forces:  Max     0.014334028 RMS     0.002809020
 -----------------------------------------------------------------------------------------------
                       Internal Coordinate Forces (Hartree/Bohr or radian)
  Cent   Atom   N1       Length/X         N2         Alpha/Y        N3         Beta/Z          J
 -----------------------------------------------------------------------------------------------
      1  F 
      2  C 
      3  C 
      4  C 
      5  C 
      6  F 
      7  F 
      8  F 
      9  C 
     10  N 
     11  C 
     12  S 
     13  H 
     14  H 
     15  H 
         X       14   0.000000(     1)      9  -0.003740(     6)      4   0.000000(    11)     0
         X       16   0.000000(     2)     14   0.000000(     7)      9   0.000000(    12)     0
     16  O       14   0.000069(     3)     16  -0.003740(     8)     17   0.000000(    13)     0
     17  H       18  -0.009634(     4)     14  -0.003613(     9)     16   0.000887(    14)     0
     18  H       18  -0.009634(     5)     14  -0.003613(    10)     16  -0.000887(    15)     0
 -----------------------------------------------------------------------------------------------
 Internal  Forces:  Max     0.009633890 RMS     0.004010664

 GradGradGradGradGradGradGradGradGradGradGradGradGradGradGradGradGradGrad
 Berny optimization.
 Search for a local minimum.
 Step number   3 out of a maximum of   20
 All quantities printed in internal units (Hartrees-Bohrs-Radians)
 Update second derivatives using D2CorN and points    2    3
 DE= -1.65D-06 DEPred=-1.64D-06 R= 1.01D+00
 SS=  1.41D+00  RLast= 1.39D-02 DXNew= 5.0454D-01 4.1756D-02
 Trust test= 1.01D+00 RLast= 1.39D-02 DXMaxT set to 3.00D-01
 The second derivative matrix:
                          RX       RDUM       ROH      ADUM      AHOA
           RX           0.00723
           RDUM         0.00000   0.00000
           ROH          0.00108   0.00000   1.12160
           ADUM        -0.00471   0.00000   0.00000   1.00904
           AHOA        -0.00089   0.00000   0.00000   0.00000   0.96000
           DOH          0.00000   0.00000   0.00000   0.00000   0.00000
           DD1          0.00000   0.00000   0.00000  -0.00002   0.00000
           DD2          0.00000   0.00000   0.00000   0.00002   0.00000
           DH1          0.00025   0.00000   0.00000   0.01595   0.00000
           DH2         -0.00025   0.00000   0.00000  -0.01595   0.00000
                          DOH       DD1       DD2       DH1       DH2
           DOH          0.00000
           DD1          0.00000   0.32682
           DD2          0.00000  -0.32682   0.32682
           DH1          0.00000   0.00000   0.00000   0.02814
           DH2          0.00000   0.00000   0.00000  -0.02814   0.02814
     Eigenvalues ---    0.007231000.000001000.000001000.000001000.00000
     Eigenvalues --- 1000.000001000.000001000.000001000.000001000.00000
 RFO step:  Lambda= 0.00000000D+00 EMin= 7.22515042D-03
 Quartic linear search produced a step of  0.70542.
 Variable       Old X    -DE/DX   Delta X   Delta X   Delta X     New X
                                 (Linear)    (Quad)   (Total)
    RX        4.16675   0.00007   0.00982   0.00000   0.00982   4.17657
   RDUM       1.88973   0.00000   0.00000   0.00000   0.00000   1.88973
   ROH        1.80885  -0.01927   0.00000   0.00000   0.00000   1.80885
   ADUM       1.57080  -0.00748   0.00000   0.00000   0.00000   1.57080
   AHOA       2.22948  -0.00723   0.00000   0.00000   0.00000   2.22948
   DOH        3.14159   0.00000   0.00000   0.00000   0.00000   3.14159
   DD1        0.00000   0.00000   0.00000   0.00000   0.00000   0.00000
   DD2        3.14159   0.00000   0.00000   0.00000   0.00000   3.14159
   DH1        1.57080   0.00089   0.00000   0.00000   0.00000   1.57080
   DH2       -1.57080  -0.00089   0.00000   0.00000   0.00000  -1.57080
         Item               Value     Threshold  Converged?
 Maximum Force            0.000069     0.000450     YES
 RMS     Force            0.000069     0.000300     YES
 Maximum Displacement     0.009818     0.001800     NO 
 RMS     Displacement     0.003105     0.001200     NO 
 Predicted change in Energy=-3.270517D-07
 GradGradGradGradGradGradGradGradGradGradGradGradGradGradGradGradGradGrad

 ---------------------------------------------------------------------------------------------------
                            Z-MATRIX (ANGSTROMS AND DEGREES)
   CD    Cent   Atom    N1       Length/X        N2       Alpha/Y        N3        Beta/Z          J
 ---------------------------------------------------------------------------------------------------
      1      1  F       -1  -1.969300          2.053680          0.000070
      2      2  C       -1  -1.222250          0.944230          0.000030
      3      3  C       -1   0.140030          1.057400         -0.000020
      4      4  C       -1   0.927950         -0.123640         -0.000080
      5      5  C       -1   2.414660         -0.018650         -0.000010
      6      6  F       -1   3.007080         -1.234610         -0.000560
      7      7  F       -1   2.858290          0.654480         -1.086020
      8      8  F       -1   2.858270          0.653500          1.086650
      9      9  C       -1   0.306540         -1.341490         -0.000090
     10     10  N       -1  -1.054170         -1.389970         -0.000060
     11     11  C       -1  -1.930500         -0.312100          0.000000
     12     12  S       -1  -3.570980         -0.506610          0.000030
     13     13  H       -1   0.596860          2.043100         -0.000020
     14     14  H       -1   0.831760         -2.288990         -0.000150
     15     15  H       -1  -1.521480         -2.296390         -0.000090
     16         X       14   1.000000(    15)      9   90.000(    33)      4  180.000(    50)      0
     17         X       16   1.000000(    16)     14   90.000(    34)      9    0.000(    51)      0
     18     16  O       14   2.210144(    17)     16   90.000(    35)     17  180.000(    52)      0
     19     17  H       18   0.957200(    18)     14  127.740(    36)     16   90.000(    53)      0
     20     18  H       18   0.957200(    19)     14  127.740(    37)     16  -90.000(    54)      0
 ---------------------------------------------------------------------------------------------------
                         Z-Matrix orientation:                         
 ---------------------------------------------------------------------
 Center     Atomic      Atomic             Coordinates (Angstroms)
 Number     Number       Type             X           Y           Z
 ---------------------------------------------------------------------
      1          9           0       -1.969300    2.053680    0.000070
      2          6           0       -1.222250    0.944230    0.000030
      3          6           0        0.140030    1.057400   -0.000020
      4          6           0        0.927950   -0.123640   -0.000080
      5          6           0        2.414660   -0.018650   -0.000010
      6          9           0        3.007080   -1.234610   -0.000560
      7          9           0        2.858290    0.654480   -1.086020
      8          9           0        2.858270    0.653500    1.086650
      9          6           0        0.306540   -1.341490   -0.000090
     10          7           0       -1.054170   -1.389970   -0.000060
     11          6           0       -1.930500   -0.312100    0.000000
     12         16           0       -3.570980   -0.506610    0.000030
     13          1           0        0.596860    2.043100   -0.000020
     14          1           0        0.831760   -2.288990   -0.000150
     15          1           0       -1.521480   -2.296390   -0.000090
     16         -1           0       -0.042855   -2.773808   -0.000122
     17         -1           0       -0.527673   -1.899193   -0.000066
     18          8           0        1.903278   -4.222015   -0.000272
     19          1           0        2.187285   -4.734410   -0.757255
     20          1           0        2.187364   -4.734462    0.756645
 ---------------------------------------------------------------------
                    Distance matrix (angstroms):
                    1          2          3          4          5
     1  F    0.000000
     2  C    1.337521   0.000000
     3  C    2.332777   1.366973   0.000000
     4  C    3.624194   2.400772   1.419744   0.000000
     5  C    4.849088   3.762214   2.516312   1.490413   0.000000
     6  F    5.964663   4.757581   3.670597   2.357337   1.352598
     7  F    5.142274   4.232525   2.954772   2.347541   1.352527
     8  F    5.142625   4.232719   2.955134   2.347566   1.352555
     9  C    4.087374   2.749857   2.404662   1.367227   2.488790
    10  N    3.563171   2.340244   2.723184   2.352104   3.730054
    11  C    2.366098   1.442215   2.482463   2.864656   4.355058
    12  S    3.020011   2.760701   4.027123   4.515201   6.005497
    13  H    2.566182   2.125247   1.086415   2.191890   2.748674
    14  H    5.167661   3.830492   3.417136   2.167485   2.767673
    15  H    4.373060   3.254406   3.742796   3.274225   4.547669
    16  X    5.197676   3.900613   3.835571   2.822384   3.691920
    17  X    4.207552   2.927028   3.031051   2.295959   3.491958
    18  O    7.374361   6.038130   5.566081   4.212830   4.234358
    19  H    7.995555   6.666735   6.189485   4.839260   4.781580
    20  H    7.995570   6.666744   6.189490   4.839260   4.781535
                    6          7          8          9         10
     6  F    0.000000
     7  F    2.183809   0.000000
     8  F    2.183834   2.172670   0.000000
     9  C    2.702654   3.416807   3.416477   0.000000
    10  N    4.064221   4.546034   4.545756   1.361573   0.000000
    11  C    5.023019   5.004620   5.004549   2.462517   1.389157
    12  S    6.618222   6.622926   6.622828   3.966382   2.667332
    13  H    4.068482   2.867355   2.868068   3.397019   3.809445
    14  H    2.417382   3.734964   3.734451   1.083334   2.089251
    15  H    4.651369   5.391592   5.391203   2.062399   1.019792
    16  X    3.416319   4.620495   4.619961   1.474318   1.713991
    17  X    3.596686   4.377818   4.377420   1.003466   0.732467
    18  O    3.184802   5.086364   5.085671   3.293478   4.094750
    19  H    3.673316   5.440447   5.734089   3.952519   4.718650
    20  H    3.673454   5.734654   5.439592   3.952519   4.718662
                   11         12         13         14         15
    11  C    0.000000
    12  S    1.651971   0.000000
    13  H    3.454637   4.885889   0.000000
    14  H    3.396789   4.749842   4.338454   0.000000
    15  H    2.026007   2.720986   4.828927   2.353252   0.000000
    16  X    3.102130   4.193788   4.859202   1.000000   1.553789
    17  X    2.118204   3.346790   4.099543   1.414214   1.070242
    18  O    5.475882   6.616021   6.399874   2.210144   3.928994
    19  H    6.089862   7.183689   7.002678   2.896677   4.502464
    20  H    6.089877   7.183712   7.002685   2.896677   4.502484
                   16         17         18         19         20
    16  X    0.000000
    17  X    1.000000   0.000000
    18  O    2.425847   3.362294   0.000000
    19  H    3.064431   3.997848   0.957200   0.000000
    20  H    3.064431   3.997848   0.957200   1.513901   0.000000
 Symmetry turned off by external request.
 Stoichiometry    C6H5F4NOS
 Framework group  C1[X(C6H5F4NOS)]
 Deg. of freedom    48
 Full point group                 C1      NOp   1
 Rotational constants (GHZ):      0.9273688      0.4005439      0.2947331
 Standard basis: 6-31G(d) (6D, 7F)
 Integral buffers will be    131072 words long.
 Raffenetti 1 integral format.
 Two-electron integral symmetry is turned off.
   209 basis functions,   408 primitive gaussians,   209 cartesian basis functions
    54 alpha electrons       54 beta electrons
       nuclear repulsion energy       918.4275023197 Hartrees.
 NAtoms=   18 NActive=   18 NUniq=   18 SFac= 7.50D-01 NAtFMM=   80 NAOKFM=F Big=F
 One-electron integrals computed using PRISM.
 NBasis=   209 RedAO= T  NBF=   209
 NBsUse=   209 1.00D-06 NBFU=   209
 Initial guess read from the read-write file.
 B after Tr=     0.000000    0.000000    0.000000
         Rot=    1.000000    0.000000    0.000000    0.000000 Ang=   0.00 deg.
 Requested convergence on RMS density matrix=1.00D-08 within 128 cycles.
 Requested convergence on MAX density matrix=1.00D-06.
 Requested convergence on             energy=1.00D-06.
 No special actions if energy rises.
 SCF Done:  E(RHF) =  -1154.68090447     A.U. after    8 cycles
             Convg  =    0.3426D-08             -V/T =  2.0018
 Calling FoFJK, ICntrl=      2127 FMM=F ISym2X=0 I1Cent= 0 IOpClX= 0 NMat=1 NMatS=1 NMatT=0.
 -------------------------------------------------------------------
 Center     Atomic                   Forces (Hartrees/Bohr)
 Number     Number              X              Y              Z
 -------------------------------------------------------------------
      1        9           0.000000000    0.000000000    0.000000000
      2        6           0.000000000    0.000000000    0.000000000
      3        6           0.000000000    0.000000000    0.000000000
      4        6           0.000000000    0.000000000    0.000000000
      5        6           0.000000000    0.000000000    0.000000000
      6        9           0.000000000    0.000000000    0.000000000
      7        9           0.000000000    0.000000000    0.000000000
      8        9           0.000000000    0.000000000    0.000000000
      9        6           0.000000000    0.000000000    0.000000000
     10        7           0.000000000    0.000000000    0.000000000
     11        6           0.000000000    0.000000000    0.000000000
     12       16           0.000000000    0.000000000    0.000000000
     13        1           0.000000000    0.000000000    0.000000000
     14        1           0.000000000    0.000000000    0.000000000
     15        1           0.000000000    0.000000000    0.000000000
     16        8           0.005106474   -0.014269138   -0.000000558
     17        1          -0.003084587    0.006839706    0.006403746
     18        1          -0.003085300    0.006839971   -0.006402991
 -------------------------------------------------------------------
 Cartesian Forces:  Max     0.014269138 RMS     0.002803078
 -----------------------------------------------------------------------------------------------
                       Internal Coordinate Forces (Hartree/Bohr or radian)
  Cent   Atom   N1       Length/X         N2         Alpha/Y        N3         Beta/Z          J
 -----------------------------------------------------------------------------------------------
      1  F 
      2  C 
      3  C 
      4  C 
      5  C 
      6  F 
      7  F 
      8  F 
      9  C 
     10  N 
     11  C 
     12  S 
     13  H 
     14  H 
     15  H 
         X       14   0.000000(     1)      9  -0.003710(     6)      4   0.000000(    11)     0
         X       16   0.000000(     2)     14   0.000000(     7)      9   0.000000(    12)     0
     16  O       14   0.000000(     3)     16  -0.003710(     8)     17   0.000000(    13)     0
     17  H       18  -0.009641(     4)     14  -0.003607(     9)     16   0.000884(    14)     0
     18  H       18  -0.009641(     5)     14  -0.003607(    10)     16  -0.000884(    15)     0
 -----------------------------------------------------------------------------------------------
 Internal  Forces:  Max     0.009640831 RMS     0.004008318

 GradGradGradGradGradGradGradGradGradGradGradGradGradGradGradGradGradGrad
 Berny optimization.
 Search for a local minimum.
 Step number   4 out of a maximum of   20
 All quantities printed in internal units (Hartrees-Bohrs-Radians)
 Update second derivatives using D2CorN and points    3    4
 DE= -3.36D-07 DEPred=-3.27D-07 R= 1.03D+00
 Trust test= 1.03D+00 RLast= 9.82D-03 DXMaxT set to 3.00D-01
 The second derivative matrix:
                          RX       RDUM       ROH      ADUM      AHOA
           RX           0.00701
           RDUM         0.00000   0.00000
           ROH          0.00125   0.00000   1.12160
           ADUM        -0.00543   0.00000   0.00000   1.00904
           AHOA        -0.00103   0.00000   0.00000   0.00000   0.96000
           DOH          0.00000   0.00000   0.00000   0.00000   0.00000
           DD1          0.00000   0.00000   0.00000  -0.00002   0.00000
           DD2          0.00000   0.00000   0.00000   0.00002   0.00000
           DH1          0.00030   0.00000   0.00000   0.01595   0.00000
           DH2         -0.00030   0.00000   0.00000  -0.01595   0.00000
                          DOH       DD1       DD2       DH1       DH2
           DOH          0.00000
           DD1          0.00000   0.32682
           DD2          0.00000  -0.32682   0.32682
           DH1          0.00000   0.00000   0.00000   0.02814
           DH2          0.00000   0.00000   0.00000  -0.02814   0.02814
     Eigenvalues ---    0.007011000.000001000.000001000.000001000.00000
     Eigenvalues --- 1000.000001000.000001000.000001000.000001000.00000
 RFO step:  Lambda= 0.00000000D+00 EMin= 7.00624815D-03
 Quartic linear search produced a step of -0.00015.
 Variable       Old X    -DE/DX   Delta X   Delta X   Delta X     New X
                                 (Linear)    (Quad)   (Total)
    RX        4.17657   0.00000   0.00000   0.00000   0.00000   4.17656
   RDUM       1.88973   0.00000   0.00000   0.00000   0.00000   1.88973
   ROH        1.80885  -0.01928   0.00000   0.00000   0.00000   1.80885
   ADUM       1.57080  -0.00742   0.00000   0.00000   0.00000   1.57080
   AHOA       2.22948  -0.00721   0.00000   0.00000   0.00000   2.22948
   DOH        3.14159   0.00000   0.00000   0.00000   0.00000   3.14159
   DD1        0.00000   0.00000   0.00000   0.00000   0.00000   0.00000
   DD2        3.14159   0.00000   0.00000   0.00000   0.00000   3.14159
   DH1        1.57080   0.00088   0.00000   0.00000   0.00000   1.57080
   DH2       -1.57080  -0.00088   0.00000   0.00000   0.00000  -1.57080
         Item               Value     Threshold  Converged?
 Maximum Force            0.000000     0.000450     YES
 RMS     Force            0.000000     0.000300     YES
 Maximum Displacement     0.000001     0.001800     YES
 RMS     Displacement     0.000000     0.001200     YES
 Predicted change in Energy=-7.418024D-15
 Optimization completed.
    -- Stationary point found.
                       ----------------------------
                       !   Optimized Parameters   !
                       ! (Angstroms and Degrees)  !
 ----------------------                            ----------------------
 !      Name          Value   Derivative information (Atomic Units)     !
 ------------------------------------------------------------------------
 !       RX          2.2101   -DE/DX =    0.0                           !
 !      RDUM         1.0      -DE/DX =    0.0                           !
 !       ROH         0.9572   -DE/DX =   -0.0193                        !
 !      ADUM        90.0      -DE/DX =   -0.0074                        !
 !      AHOA       127.74     -DE/DX =   -0.0072                        !
 !       DOH       180.0      -DE/DX =    0.0                           !
 !       DD1         0.0      -DE/DX =    0.0                           !
 !       DD2       180.0      -DE/DX =    0.0                           !
 !       DH1        90.0      -DE/DX =    0.0009                        !
 !       DH2       -90.0      -DE/DX =   -0.0009                        !
 ------------------------------------------------------------------------
 GradGradGradGradGradGradGradGradGradGradGradGradGradGradGradGradGradGrad

 ---------------------------------------------------------------------------------------------------
                            Z-MATRIX (ANGSTROMS AND DEGREES)
   CD    Cent   Atom    N1       Length/X        N2       Alpha/Y        N3        Beta/Z          J
 ---------------------------------------------------------------------------------------------------
      1      1  F       -1  -1.969300          2.053680          0.000070
      2      2  C       -1  -1.222250          0.944230          0.000030
      3      3  C       -1   0.140030          1.057400         -0.000020
      4      4  C       -1   0.927950         -0.123640         -0.000080
      5      5  C       -1   2.414660         -0.018650         -0.000010
      6      6  F       -1   3.007080         -1.234610         -0.000560
      7      7  F       -1   2.858290          0.654480         -1.086020
      8      8  F       -1   2.858270          0.653500          1.086650
      9      9  C       -1   0.306540         -1.341490         -0.000090
     10     10  N       -1  -1.054170         -1.389970         -0.000060
     11     11  C       -1  -1.930500         -0.312100          0.000000
     12     12  S       -1  -3.570980         -0.506610          0.000030
     13     13  H       -1   0.596860          2.043100         -0.000020
     14     14  H       -1   0.831760         -2.288990         -0.000150
     15     15  H       -1  -1.521480         -2.296390         -0.000090
     16         X       14   1.000000(    15)      9   90.000(    33)      4  180.000(    50)      0
     17         X       16   1.000000(    16)     14   90.000(    34)      9    0.000(    51)      0
     18     16  O       14   2.210144(    17)     16   90.000(    35)     17  180.000(    52)      0
     19     17  H       18   0.957200(    18)     14  127.740(    36)     16   90.000(    53)      0
     20     18  H       18   0.957200(    19)     14  127.740(    37)     16  -90.000(    54)      0
 ---------------------------------------------------------------------------------------------------
                         Z-Matrix orientation:                         
 ---------------------------------------------------------------------
 Center     Atomic      Atomic             Coordinates (Angstroms)
 Number     Number       Type             X           Y           Z
 ---------------------------------------------------------------------
      1          9           0       -1.969300    2.053680    0.000070
      2          6           0       -1.222250    0.944230    0.000030
      3          6           0        0.140030    1.057400   -0.000020
      4          6           0        0.927950   -0.123640   -0.000080
      5          6           0        2.414660   -0.018650   -0.000010
      6          9           0        3.007080   -1.234610   -0.000560
      7          9           0        2.858290    0.654480   -1.086020
      8          9           0        2.858270    0.653500    1.086650
      9          6           0        0.306540   -1.341490   -0.000090
     10          7           0       -1.054170   -1.389970   -0.000060
     11          6           0       -1.930500   -0.312100    0.000000
     12         16           0       -3.570980   -0.506610    0.000030
     13          1           0        0.596860    2.043100   -0.000020
     14          1           0        0.831760   -2.288990   -0.000150
     15          1           0       -1.521480   -2.296390   -0.000090
     16         -1           0       -0.042855   -2.773808   -0.000122
     17         -1           0       -0.527673   -1.899193   -0.000066
     18          8           0        1.903278   -4.222015   -0.000272
     19          1           0        2.187285   -4.734410   -0.757255
     20          1           0        2.187364   -4.734462    0.756645
 ---------------------------------------------------------------------
                    Distance matrix (angstroms):
                    1          2          3          4          5
     1  F    0.000000
     2  C    1.337521   0.000000
     3  C    2.332777   1.366973   0.000000
     4  C    3.624194   2.400772   1.419744   0.000000
     5  C    4.849088   3.762214   2.516312   1.490413   0.000000
     6  F    5.964663   4.757581   3.670597   2.357337   1.352598
     7  F    5.142274   4.232525   2.954772   2.347541   1.352527
     8  F    5.142625   4.232719   2.955134   2.347566   1.352555
     9  C    4.087374   2.749857   2.404662   1.367227   2.488790
    10  N    3.563171   2.340244   2.723184   2.352104   3.730054
    11  C    2.366098   1.442215   2.482463   2.864656   4.355058
    12  S    3.020011   2.760701   4.027123   4.515201   6.005497
    13  H    2.566182   2.125247   1.086415   2.191890   2.748674
    14  H    5.167661   3.830492   3.417136   2.167485   2.767673
    15  H    4.373060   3.254406   3.742796   3.274225   4.547669
    16  X    5.197676   3.900613   3.835571   2.822384   3.691920
    17  X    4.207552   2.927028   3.031051   2.295959   3.491958
    18  O    7.374361   6.038130   5.566081   4.212830   4.234358
    19  H    7.995555   6.666735   6.189485   4.839260   4.781580
    20  H    7.995570   6.666744   6.189490   4.839260   4.781535
                    6          7          8          9         10
     6  F    0.000000
     7  F    2.183809   0.000000
     8  F    2.183834   2.172670   0.000000
     9  C    2.702654   3.416807   3.416477   0.000000
    10  N    4.064221   4.546034   4.545756   1.361573   0.000000
    11  C    5.023019   5.004620   5.004549   2.462517   1.389157
    12  S    6.618222   6.622926   6.622828   3.966382   2.667332
    13  H    4.068482   2.867355   2.868068   3.397019   3.809445
    14  H    2.417382   3.734964   3.734451   1.083334   2.089251
    15  H    4.651369   5.391592   5.391203   2.062399   1.019792
    16  X    3.416319   4.620495   4.619961   1.474318   1.713991
    17  X    3.596686   4.377818   4.377420   1.003466   0.732467
    18  O    3.184802   5.086364   5.085671   3.293478   4.094750
    19  H    3.673316   5.440447   5.734089   3.952519   4.718650
    20  H    3.673454   5.734654   5.439592   3.952519   4.718662
                   11         12         13         14         15
    11  C    0.000000
    12  S    1.651971   0.000000
    13  H    3.454637   4.885889   0.000000
    14  H    3.396789   4.749842   4.338454   0.000000
    15  H    2.026007   2.720986   4.828927   2.353252   0.000000
    16  X    3.102130   4.193788   4.859202   1.000000   1.553789
    17  X    2.118204   3.346790   4.099543   1.414214   1.070242
    18  O    5.475882   6.616021   6.399874   2.210144   3.928994
    19  H    6.089862   7.183689   7.002678   2.896677   4.502464
    20  H    6.089877   7.183712   7.002685   2.896677   4.502484
                   16         17         18         19         20
    16  X    0.000000
    17  X    1.000000   0.000000
    18  O    2.425847   3.362294   0.000000
    19  H    3.064431   3.997848   0.957200   0.000000
    20  H    3.064431   3.997848   0.957200   1.513901   0.000000
 Symmetry turned off by external request.
 Stoichiometry    C6H5F4NOS
 Framework group  C1[X(C6H5F4NOS)]
 Deg. of freedom    48
 Full point group                 C1      NOp   1
 Rotational constants (GHZ):      0.9273688      0.4005439      0.2947331

 **********************************************************************

            Population analysis using the SCF density.

 **********************************************************************

 Alpha  occ. eigenvalues --  -91.89282 -26.35217 -26.34711 -26.34709 -26.32293
 Alpha  occ. eigenvalues --  -20.59871 -15.67327 -11.52781 -11.36586 -11.35812
 Alpha  occ. eigenvalues --  -11.33949 -11.30044 -11.28664  -8.90380  -6.58714
 Alpha  occ. eigenvalues --   -6.58433  -6.58312  -1.72755  -1.63618  -1.63578
 Alpha  occ. eigenvalues --   -1.63240  -1.37953  -1.34071  -1.15684  -1.10644
 Alpha  occ. eigenvalues --   -1.01658  -0.95713  -0.91246  -0.86874  -0.83471
 Alpha  occ. eigenvalues --   -0.82299  -0.82065  -0.75544  -0.74519  -0.74416
 Alpha  occ. eigenvalues --   -0.72386  -0.70994  -0.70237  -0.70197  -0.68910
 Alpha  occ. eigenvalues --   -0.66228  -0.66081  -0.64836  -0.62804  -0.61810
 Alpha  occ. eigenvalues --   -0.61054  -0.58513  -0.57791  -0.53596  -0.51404
 Alpha  occ. eigenvalues --   -0.45205  -0.41927  -0.33004  -0.29779
 Alpha virt. eigenvalues --    0.05770   0.10305   0.17448   0.20335   0.25564
 Alpha virt. eigenvalues --    0.27312   0.27643   0.27885   0.31165   0.33135
 Alpha virt. eigenvalues --    0.35972   0.38091   0.41140   0.42081   0.44059
 Alpha virt. eigenvalues --    0.44596   0.48117   0.51159   0.55735   0.56848
 Alpha virt. eigenvalues --    0.57680   0.61057   0.62545   0.65632   0.68265
 Alpha virt. eigenvalues --    0.69277   0.74153   0.74355   0.75483   0.76761
 Alpha virt. eigenvalues --    0.78566   0.79173   0.84640   0.85709   0.88659
 Alpha virt. eigenvalues --    0.90617   0.91328   0.93352   0.97263   0.98443
 Alpha virt. eigenvalues --    1.01837   1.03680   1.05360   1.07756   1.08850
 Alpha virt. eigenvalues --    1.09801   1.10349   1.12314   1.12585   1.15648
 Alpha virt. eigenvalues --    1.16437   1.17386   1.20648   1.25916   1.30338
 Alpha virt. eigenvalues --    1.32786   1.32927   1.34288   1.34977   1.35992
 Alpha virt. eigenvalues --    1.36476   1.40218   1.40475   1.43604   1.43804
 Alpha virt. eigenvalues --    1.47774   1.48624   1.53197   1.53803   1.61849
 Alpha virt. eigenvalues --    1.62161   1.63142   1.65005   1.65641   1.66436
 Alpha virt. eigenvalues --    1.67948   1.68159   1.69114   1.70821   1.71702
 Alpha virt. eigenvalues --    1.73282   1.77501   1.78079   1.82662   1.88225
 Alpha virt. eigenvalues --    1.91232   1.93937   1.95094   1.99487   2.01061
 Alpha virt. eigenvalues --    2.02906   2.05958   2.07423   2.10688   2.11140
 Alpha virt. eigenvalues --    2.13542   2.13682   2.16426   2.20127   2.21744
 Alpha virt. eigenvalues --    2.23945   2.24922   2.25868   2.29987   2.31335
 Alpha virt. eigenvalues --    2.32361   2.34079   2.35996   2.36274   2.37268
 Alpha virt. eigenvalues --    2.39364   2.41436   2.44497   2.47013   2.47098
 Alpha virt. eigenvalues --    2.48642   2.53751   2.58903   2.62332   2.63329
 Alpha virt. eigenvalues --    2.67006   2.69817   2.76628   2.84573   2.85772
 Alpha virt. eigenvalues --    2.86194   2.90785   2.93363   2.94716   2.94763
 Alpha virt. eigenvalues --    3.01842   3.08804   3.11092   3.18849   3.23597
 Alpha virt. eigenvalues --    3.31383   3.38686   3.40134   3.44099   3.45916
 Alpha virt. eigenvalues --    3.50784   3.72802   4.05045   4.38959   4.41824
 Alpha virt. eigenvalues --    4.47423   4.49675   4.63699   4.68286   4.69857
 Alpha virt. eigenvalues --    4.83369   5.03048   5.17053   5.58707   6.03265
          Condensed to atoms (all electrons):
              1          2          3          4          5          6
     1  F    9.165793   0.265636  -0.033924   0.002236  -0.000015   0.000000
     2  C    0.265636   4.584319   0.565890  -0.024663   0.000969  -0.000019
     3  C   -0.033924   0.565890   5.069377   0.350274  -0.013252   0.002238
     4  C    0.002236  -0.024663   0.350274   5.238032   0.414793  -0.044196
     5  C   -0.000015   0.000969  -0.013252   0.414793   3.550799   0.291298
     6  F    0.000000  -0.000019   0.002238  -0.044196   0.291298   9.182792
     7  F    0.000000   0.000296   0.005121  -0.055724   0.283093  -0.030772
     8  F    0.000000   0.000295   0.005115  -0.055732   0.283101  -0.030773
     9  C    0.000117  -0.024269  -0.053084   0.582207  -0.018854   0.005399
    10  N    0.001390  -0.050209  -0.024725  -0.030187   0.001474   0.000227
    11  C   -0.041024   0.383584  -0.077411  -0.002542   0.000057   0.000001
    12  S    0.003564  -0.083701   0.001709  -0.000088   0.000006   0.000000
    13  H   -0.000260  -0.018315   0.369191  -0.030189  -0.000343   0.000036
    14  H    0.000000  -0.000151   0.001677  -0.018920   0.000086   0.003361
    15  H   -0.000019   0.003825  -0.000568   0.002341  -0.000017   0.000002
    16  O    0.000000   0.000000  -0.000003  -0.000009   0.000188   0.000245
    17  H    0.000000   0.000000   0.000000  -0.000009  -0.000003   0.000020
    18  H    0.000000   0.000000   0.000000  -0.000009  -0.000003   0.000020
              7          8          9         10         11         12
     1  F    0.000000   0.000000   0.000117   0.001390  -0.041024   0.003564
     2  C    0.000296   0.000295  -0.024269  -0.050209   0.383584  -0.083701
     3  C    0.005121   0.005115  -0.053084  -0.024725  -0.077411   0.001709
     4  C   -0.055724  -0.055732   0.582207  -0.030187  -0.002542  -0.000088
     5  C    0.283093   0.283101  -0.018854   0.001474   0.000057   0.000006
     6  F   -0.030772  -0.030773   0.005399   0.000227   0.000001   0.000000
     7  F    9.207555  -0.033872   0.000479  -0.000006  -0.000002   0.000000
     8  F   -0.033872   9.207574   0.000475  -0.000006  -0.000002   0.000000
     9  C    0.000479   0.000475   4.816623   0.256983  -0.039491   0.003309
    10  N   -0.000006  -0.000006   0.256983   7.240747   0.216379  -0.104243
    11  C   -0.000002  -0.000002  -0.039491   0.216379   4.947327   0.439674
    12  S    0.000000   0.000000   0.003309  -0.104243   0.439674  15.978119
    13  H    0.000921   0.000917   0.002524  -0.000294   0.002658  -0.000060
    14  H    0.000065   0.000065   0.352717  -0.028452   0.000697  -0.000102
    15  H    0.000000   0.000000  -0.021416   0.310496  -0.018766   0.013725
    16  O    0.000000   0.000000  -0.005919  -0.000044  -0.000004   0.000000
    17  H    0.000000   0.000000   0.000279  -0.000003   0.000000   0.000000
    18  H    0.000000   0.000000   0.000279  -0.000003   0.000000   0.000000
             13         14         15         16         17         18
     1  F   -0.000260   0.000000  -0.000019   0.000000   0.000000   0.000000
     2  C   -0.018315  -0.000151   0.003825   0.000000   0.000000   0.000000
     3  C    0.369191   0.001677  -0.000568  -0.000003   0.000000   0.000000
     4  C   -0.030189  -0.018920   0.002341  -0.000009  -0.000009  -0.000009
     5  C   -0.000343   0.000086  -0.000017   0.000188  -0.000003  -0.000003
     6  F    0.000036   0.003361   0.000002   0.000245   0.000020   0.000020
     7  F    0.000921   0.000065   0.000000   0.000000   0.000000   0.000000
     8  F    0.000917   0.000065   0.000000   0.000000   0.000000   0.000000
     9  C    0.002524   0.352717  -0.021416  -0.005919   0.000279   0.000279
    10  N   -0.000294  -0.028452   0.310496  -0.000044  -0.000003  -0.000003
    11  C    0.002658   0.000697  -0.018766  -0.000004   0.000000   0.000000
    12  S   -0.000060  -0.000102   0.013725   0.000000   0.000000   0.000000
    13  H    0.398056  -0.000051   0.000009   0.000000   0.000000   0.000000
    14  H   -0.000051   0.308231  -0.001224   0.013554  -0.000297  -0.000297
    15  H    0.000009  -0.001224   0.271199   0.000132  -0.000005  -0.000005
    16  O    0.000000   0.013554   0.000132   8.341798   0.265930   0.265930
    17  H    0.000000  -0.000297  -0.000005   0.265930   0.302357  -0.017269
    18  H    0.000000  -0.000297  -0.000005   0.265930  -0.017269   0.302358
 Mulliken atomic charges:
              1
     1  F   -0.363494
     2  C    0.396511
     3  C   -0.167627
     4  C   -0.327616
     5  C    1.206621
     6  F   -0.379880
     7  F   -0.377155
     8  F   -0.377159
     9  C    0.141643
    10  N   -0.789524
    11  C    0.188863
    12  S   -0.251912
    13  H    0.275200
    14  H    0.369039
    15  H    0.440290
    16  O   -0.881799
    17  H    0.448999
    18  H    0.448998
 Sum of Mulliken atomic charges =   0.00000
 Mulliken charges with hydrogens summed into heavy atoms:
              1
     1  F   -0.363494
     2  C    0.396511
     3  C    0.107573
     4  C   -0.327616
     5  C    1.206621
     6  F   -0.379880
     7  F   -0.377155
     8  F   -0.377159
     9  C    0.510682
    10  N   -0.349234
    11  C    0.188863
    12  S   -0.251912
    16  O    0.016198
 Sum of Mulliken charges with hydrogens summed into heavy atoms =   0.00000
 Electronic spatial extent (au):  <R**2>=           3438.7838
 Charge=              0.0000 electrons
 Dipole moment (field-independent basis, Debye):
    X=              5.1918    Y=             -5.3429    Z=             -0.0006  Tot=              7.4500
 Quadrupole moment (field-independent basis, Debye-Ang):
   XX=           -102.7133   YY=            -51.6863   ZZ=            -79.4728
   XY=             -8.5767   XZ=             -0.0007   YZ=              0.0016
 Traceless Quadrupole moment (field-independent basis, Debye-Ang):
   XX=            -24.7558   YY=             26.2712   ZZ=             -1.5153
   XY=             -8.5767   XZ=             -0.0007   YZ=              0.0016
 Octapole moment (field-independent basis, Debye-Ang**2):
  XXX=             81.6078  YYY=            -50.5241  ZZZ=              0.0019  XYY=             74.8279
  XXY=              2.5099  XXZ=             -0.0012  XZZ=              9.8316  YZZ=             20.4409
  YYZ=             -0.0053  XYZ=              0.0030
 Hexadecapole moment (field-independent basis, Debye-Ang**3):
 XXXX=          -2825.8806 YYYY=           -445.5422 ZZZZ=           -143.8556 XXXY=             45.0294
 XXXZ=              0.0126 YYYX=           -210.0047 YYYZ=              0.0157 ZZZX=              0.0063
 ZZZY=             -0.0190 XXYY=           -488.7419 XXZZ=           -459.7795 YYZZ=           -176.8838
 XXYZ=             -0.0031 YYXZ=             -0.0076 ZZXY=             11.6050
 N-N= 9.184275023197D+02 E-N=-4.575713466472D+03  KE= 1.152560418275D+03
 1\1\GINC-B1\FOpt\RHF\6-31G(d)\C6H5F4N1O1S1\ANA\24-Sep-2021\1\\#HF/6-31
 G* Opt=Z-matrix NoSymm\\water interaction with atom H14\\0,1\F,-1,-1.9
 693,2.05368,0.00007\C,-1,-1.22225,0.94423,0.00003\C,-1,0.14003,1.0574,
 -0.00002\C,-1,0.92795,-0.12364,-0.00008\C,-1,2.41466,-0.01865,-0.00001
 \F,-1,3.00708,-1.23461,-0.00056\F,-1,2.85829,0.65448,-1.08602\F,-1,2.8
 5827,0.6535,1.08665\C,-1,0.30654,-1.34149,-0.00009\N,-1,-1.05417,-1.38
 997,-0.00006\C,-1,-1.9305,-0.3121,0.\S,-1,-3.57098,-0.50661,0.00003\H,
 -1,0.59686,2.0431,-0.00002\H,-1,0.83176,-2.28899,-0.00015\H,-1,-1.5214
 8,-2.29639,-0.00009\X,14,RDUM,9,ADUM,4,DOH,0\X,16,RDUM,14,ADUM,9,DD1,0
 \O,14,RX,16,ADUM,17,DD2,0\H,18,ROH,14,AHOA,16,DH1,0\H,18,ROH,14,AHOA,1
 6,DH2,0\\RX=2.21014371\RDUM=1.\ROH=0.9572\ADUM=90.\AHOA=127.74\DOH=180
 .\DD1=0.\DD2=180.\DH1=90.\DH2=-90.\\Version=EM64L-G09RevA.01\HF=-1154.
 6809045\RMSD=3.426e-09\RMSF=2.803e-03\Dipole=2.0426207,-2.1020694,-0.0
 002324\Quadrupole=-18.4053458,19.5319603,-1.1266145,-6.3765408,-0.0005
 186,0.0011735\PG=C01 [X(C6H5F4N1O1S1)]\\@


 HE THAT IS UNAWARE OF HIS IGNORANCE WILL BE MISLED BY HIS KNOWLEDGE.

                                        -- WHATLEY
 Job cpu time:  0 days  0 hours  3 minutes 35.0 seconds.
 File lengths (MBytes):  RWF=     26 Int=      0 D2E=      0 Chk=      3 Scr=      1
 Normal termination of Gaussian 09 at Fri Sep 24 08:28:55 2021.
