 Entering Gaussian System, Link 0=g09
 Initial command:
 /home/ana/programs/g09/l1.exe /home/ana/programs/g09/scratch/Gau-708452.inp -scrdir=/home/ana/programs/g09/scratch/
 Entering Link 1 = /home/ana/programs/g09/l1.exe PID=    708454.
  
 Copyright (c) 1988,1990,1992,1993,1995,1998,2003,2009, Gaussian, Inc.
                  All Rights Reserved.
  
 This is part of the Gaussian(R) 09 program.  It is based on
 the Gaussian(R) 03 system (copyright 2003, Gaussian, Inc.),
 the Gaussian(R) 98 system (copyright 1998, Gaussian, Inc.),
 the Gaussian(R) 94 system (copyright 1995, Gaussian, Inc.),
 the Gaussian 92(TM) system (copyright 1992, Gaussian, Inc.),
 the Gaussian 90(TM) system (copyright 1990, Gaussian, Inc.),
 the Gaussian 88(TM) system (copyright 1988, Gaussian, Inc.),
 the Gaussian 86(TM) system (copyright 1986, Carnegie Mellon
 University), and the Gaussian 82(TM) system (copyright 1983,
 Carnegie Mellon University). Gaussian is a federally registered
 trademark of Gaussian, Inc.
  
 This software contains proprietary and confidential information,
 including trade secrets, belonging to Gaussian, Inc.
  
 This software is provided under written license and may be
 used, copied, transmitted, or stored only in accord with that
 written license.
  
 The following legend is applicable only to US Government
 contracts under FAR:
  
                    RESTRICTED RIGHTS LEGEND
  
 Use, reproduction and disclosure by the US Government is
 subject to restrictions as set forth in subparagraphs (a)
 and (c) of the Commercial Computer Software - Restricted
 Rights clause in FAR 52.227-19.
  
 Gaussian, Inc.
 340 Quinnipiac St., Bldg. 40, Wallingford CT 06492
  
  
 ---------------------------------------------------------------
 Warning -- This program may not be used in any manner that
 competes with the business of Gaussian, Inc. or will provide
 assistance to any competitor of Gaussian, Inc.  The licensee
 of this program is prohibited from giving any competitor of
 Gaussian, Inc. access to this program.  By using this program,
 the user acknowledges that Gaussian, Inc. is engaged in the
 business of creating and licensing software in the field of
 computational chemistry and represents and warrants to the
 licensee that it is not a competitor of Gaussian, Inc. and that
 it will not use this program in any manner prohibited above.
 ---------------------------------------------------------------
  

 Cite this work as:
 Gaussian 09, Revision A.01,
 M. J. Frisch, G. W. Trucks, H. B. Schlegel, G. E. Scuseria, 
 M. A. Robb, J. R. Cheeseman, G. Scalmani, V. Barone, B. Mennucci, 
 G. A. Petersson, H. Nakatsuji, M. Caricato, X. Li, H. P. Hratchian, 
 A. F. Izmaylov, J. Bloino, G. Zheng, J. L. Sonnenberg, M. Hada, 
 M. Ehara, K. Toyota, R. Fukuda, J. Hasegawa, M. Ishida, T. Nakajima, 
 Y. Honda, O. Kitao, H. Nakai, T. Vreven, J. A. Montgomery, Jr., 
 J. E. Peralta, F. Ogliaro, M. Bearpark, J. J. Heyd, E. Brothers, 
 K. N. Kudin, V. N. Staroverov, R. Kobayashi, J. Normand, 
 K. Raghavachari, A. Rendell, J. C. Burant, S. S. Iyengar, J. Tomasi, 
 M. Cossi, N. Rega, J. M. Millam, M. Klene, J. E. Knox, J. B. Cross, 
 V. Bakken, C. Adamo, J. Jaramillo, R. Gomperts, R. E. Stratmann, 
 O. Yazyev, A. J. Austin, R. Cammi, C. Pomelli, J. W. Ochterski, 
 R. L. Martin, K. Morokuma, V. G. Zakrzewski, G. A. Voth, 
 P. Salvador, J. J. Dannenberg, S. Dapprich, A. D. Daniels, 
 O. Farkas, J. B. Foresman, J. V. Ortiz, J. Cioslowski, 
 and D. J. Fox, Gaussian, Inc., Wallingford CT, 2009.
 
 ******************************************
 Gaussian 09:  EM64L-G09RevA.01  8-May-2009
                24-Sep-2021 
 ******************************************
 %NPROC=4
 Will use up to    4 processors via shared memory.
 %NoSave
 ------------------------------
 #HF/6-31G* Opt=Z-matrix NoSymm
 ------------------------------
 1/10=7,18=40,38=1/1,3;
 2/12=2,15=1,17=6,18=5,29=3,40=1/2;
 3/5=1,6=6,7=1,11=9,16=1,25=1,30=1,71=1/1,2,3;
 4//1;
 5/5=2,38=5/2;
 6/7=2,8=2,9=2,10=2,28=1/1;
 7/29=1,30=1/1,2,3,16;
 1/10=7,18=40/3(2);
 2/15=1,29=3/2;
 99//99;
 2/15=1,29=3/2;
 3/5=1,6=6,7=1,11=9,16=1,25=1,30=1,71=1/1,2,3;
 4/5=5,16=3/1;
 5/5=2,38=5/2;
 7/30=1/1,2,3,16;
 1/18=40/3(-5);
 2/15=1,29=3/2;
 6/7=2,8=2,9=2,10=2,19=2,28=1/1;
 99/9=1/99;
 -------------------------------
 water interaction with atom H14
 -------------------------------
 Symbolic Z-matrix:
 Charge =  0 Multiplicity = 1
 9                    -1   -1.9693    2.05368   0.00007 
 6                    -1   -1.22225   0.94423   0.00003 
 6                    -1    0.14003   1.0574   -0.00002 
 6                    -1    0.92795  -0.12364  -0.00008 
 6                    -1    2.41466  -0.01865  -0.00001 
 9                    -1    3.00708  -1.23461  -0.00056 
 9                    -1    2.85829   0.65448  -1.08602 
 9                    -1    2.85827   0.6535    1.08665 
 6                    -1    0.30654  -1.34149  -0.00009 
 7                    -1   -1.05417  -1.38997  -0.00006 
 6                    -1   -1.9305   -0.3121    0. 
 16                   -1   -3.57098  -0.50661   0.00003 
 1                    -1    0.59686   2.0431   -0.00002 
 1                    -1    0.83176  -2.28899  -0.00015 
 1                    -1   -1.52148  -2.29639  -0.00009 
 X                    14   RDUM     9    ADUM     4    DOH      0
 X                    16   RDUM     14   ADUM     9    DD1      0
 OH2                  14   RX       16   ADUM     17   DD2      0
 H1                   18   ROH      14   AHOA     16   DH1      0
 H2                   18   ROH      14   AHOA     16   DH2      0
       Variables:
  RX                    2.2201                   
       Constants:
  RDUM                  1.                       
  ROH                   0.9572                   
  ADUM                 90.                       
  AHOA                127.74                     
  DOH                 180.                       
  DD1                   0.                       
  DD2                 180.                       
  DH1                   0.                       
  DH2                -180.                       
 

 GradGradGradGradGradGradGradGradGradGradGradGradGradGradGradGradGradGrad
 Berny optimization.
 Initialization pass.
                       ----------------------------
                       !    Initial Parameters    !
                       ! (Angstroms and Degrees)  !
 ----------------------                            ----------------------
 !      Name          Value   Derivative information (Atomic Units)     !
 ------------------------------------------------------------------------
 !       RX          2.2201   estimate D2E/DX2                          !
 !      RDUM         1.0      Frozen                                    !
 !       ROH         0.9572   Frozen                                    !
 !      ADUM        90.0      Frozen                                    !
 !      AHOA       127.74     Frozen                                    !
 !       DOH       180.0      Frozen                                    !
 !       DD1         0.0      Frozen                                    !
 !       DD2       180.0      Frozen                                    !
 !       DH1         0.0      Frozen                                    !
 !       DH2      -180.0      Frozen                                    !
 ------------------------------------------------------------------------
 Trust Radius=3.00D-01 FncErr=1.00D-07 GrdErr=1.00D-07
 Number of steps in this run=  20 maximum allowed number of steps= 100.
 GradGradGradGradGradGradGradGradGradGradGradGradGradGradGradGradGradGrad

 ---------------------------------------------------------------------------------------------------
                            Z-MATRIX (ANGSTROMS AND DEGREES)
   CD    Cent   Atom    N1       Length/X        N2       Alpha/Y        N3        Beta/Z          J
 ---------------------------------------------------------------------------------------------------
      1      1  F       -1  -1.969300          2.053680          0.000070
      2      2  C       -1  -1.222250          0.944230          0.000030
      3      3  C       -1   0.140030          1.057400         -0.000020
      4      4  C       -1   0.927950         -0.123640         -0.000080
      5      5  C       -1   2.414660         -0.018650         -0.000010
      6      6  F       -1   3.007080         -1.234610         -0.000560
      7      7  F       -1   2.858290          0.654480         -1.086020
      8      8  F       -1   2.858270          0.653500          1.086650
      9      9  C       -1   0.306540         -1.341490         -0.000090
     10     10  N       -1  -1.054170         -1.389970         -0.000060
     11     11  C       -1  -1.930500         -0.312100          0.000000
     12     12  S       -1  -3.570980         -0.506610          0.000030
     13     13  H       -1   0.596860          2.043100         -0.000020
     14     14  H       -1   0.831760         -2.288990         -0.000150
     15     15  H       -1  -1.521480         -2.296390         -0.000090
     16         X       14   1.000000(    15)      9   90.000(    33)      4  180.000(    50)      0
     17         X       16   1.000000(    16)     14   90.000(    34)      9    0.000(    51)      0
     18     16  O       14   2.220100(    17)     16   90.000(    35)     17  180.000(    52)      0
     19     17  H       18   0.957200(    18)     14  127.740(    36)     16    0.000(    53)      0
     20     18  H       18   0.957200(    19)     14  127.740(    37)     16 -180.000(    54)      0
 ---------------------------------------------------------------------------------------------------
                         Z-Matrix orientation:                         
 ---------------------------------------------------------------------
 Center     Atomic      Atomic             Coordinates (Angstroms)
 Number     Number       Type             X           Y           Z
 ---------------------------------------------------------------------
      1          9           0       -1.969300    2.053680    0.000070
      2          6           0       -1.222250    0.944230    0.000030
      3          6           0        0.140030    1.057400   -0.000020
      4          6           0        0.927950   -0.123640   -0.000080
      5          6           0        2.414660   -0.018650   -0.000010
      6          9           0        3.007080   -1.234610   -0.000560
      7          9           0        2.858290    0.654480   -1.086020
      8          9           0        2.858270    0.653500    1.086650
      9          6           0        0.306540   -1.341490   -0.000090
     10          7           0       -1.054170   -1.389970   -0.000060
     11          6           0       -1.930500   -0.312100    0.000000
     12         16           0       -3.570980   -0.506610    0.000030
     13          1           0        0.596860    2.043100   -0.000020
     14          1           0        0.831760   -2.288990   -0.000150
     15          1           0       -1.521480   -2.296390   -0.000090
     16         -1           0       -0.042855   -2.773808   -0.000122
     17         -1           0       -0.527673   -1.899193   -0.000066
     18          8           0        1.908105   -4.230723   -0.000273
     19          1           0        1.530111   -5.110127   -0.000284
     20          1           0        2.854191   -4.376161   -0.000327
 ---------------------------------------------------------------------
                    Distance matrix (angstroms):
                    1          2          3          4          5
     1  F    0.000000
     2  C    1.337521   0.000000
     3  C    2.332777   1.366973   0.000000
     4  C    3.624194   2.400772   1.419744   0.000000
     5  C    4.849088   3.762214   2.516312   1.490413   0.000000
     6  F    5.964663   4.757581   3.670597   2.357337   1.352598
     7  F    5.142274   4.232525   2.954772   2.347541   1.352527
     8  F    5.142625   4.232719   2.955134   2.347566   1.352555
     9  C    4.087374   2.749857   2.404662   1.367227   2.488790
    10  N    3.563171   2.340244   2.723184   2.352104   3.730054
    11  C    2.366098   1.442215   2.482463   2.864656   4.355058
    12  S    3.020011   2.760701   4.027123   4.515201   6.005497
    13  H    2.566182   2.125247   1.086415   2.191890   2.748674
    14  H    5.167661   3.830492   3.417136   2.167485   2.767673
    15  H    4.373060   3.254406   3.742796   3.274225   4.547669
    16  X    5.197676   3.900613   3.835571   2.822384   3.691920
    17  X    4.207552   2.927028   3.031051   2.295959   3.491958
    18  O    7.384307   6.048079   5.575870   4.222420   4.242423
    19  H    7.972830   6.650619   6.322240   5.022714   5.167743
    20  H    8.037967   6.702532   6.073735   4.668441   4.379622
                    6          7          8          9         10
     6  F    0.000000
     7  F    2.183809   0.000000
     8  F    2.183834   2.172670   0.000000
     9  C    2.702654   3.416807   3.416477   0.000000
    10  N    4.064221   4.546034   4.545756   1.361573   0.000000
    11  C    5.023019   5.004620   5.004549   2.462517   1.389157
    12  S    6.618222   6.622926   6.622828   3.966382   2.667332
    13  H    4.068482   2.867355   2.868068   3.397019   3.809445
    14  H    2.417382   3.734964   3.734451   1.083334   2.089251
    15  H    4.651369   5.391592   5.391203   2.062399   1.019792
    16  X    3.416319   4.620495   4.619961   1.474318   1.713991
    17  X    3.596686   4.377818   4.377420   1.003466   0.732467
    18  O    3.191307   5.093810   5.093118   3.303434   4.104260
    19  H    4.147417   6.014448   6.013720   3.962292   4.529689
    20  H    3.145269   5.146464   5.145777   3.962292   4.918600
                   11         12         13         14         15
    11  C    0.000000
    12  S    1.651971   0.000000
    13  H    3.454637   4.885889   0.000000
    14  H    3.396789   4.749842   4.338454   0.000000
    15  H    2.026007   2.720986   4.828927   2.353252   0.000000
    16  X    3.102130   4.193788   4.859202   1.000000   1.553789
    17  X    2.118204   3.346790   4.099543   1.414214   1.070242
    18  O    5.485480   6.624907   6.409385   2.220100   3.937473
    19  H    5.915817   6.871208   7.213849   2.906288   4.150822
    20  H    6.277727   7.500417   6.804591   2.906288   4.844785
                   16         17         18         19         20
    16  X    0.000000
    17  X    1.000000   0.000000
    18  O    2.434922   3.371801   0.000000
    19  H    2.816489   3.813735   0.957200   0.000000
    20  H    3.310651   4.191942   0.957200   1.513901   0.000000
 Symmetry turned off by external request.
 Stoichiometry    C6H5F4NOS
 Framework group  C1[X(C6H5F4NOS)]
 Deg. of freedom    48
 Full point group                 C1      NOp   1
 Rotational constants (GHZ):      0.9268741      0.4005137      0.2942705
 Standard basis: 6-31G(d) (6D, 7F)
 Integral buffers will be    131072 words long.
 Raffenetti 1 integral format.
 Two-electron integral symmetry is turned off.
   209 basis functions,   408 primitive gaussians,   209 cartesian basis functions
    54 alpha electrons       54 beta electrons
       nuclear repulsion energy       918.3611381209 Hartrees.
 NAtoms=   18 NActive=   18 NUniq=   18 SFac= 7.50D-01 NAtFMM=   80 NAOKFM=F Big=F
 One-electron integrals computed using PRISM.
 NBasis=   209 RedAO= T  NBF=   209
 NBsUse=   209 1.00D-06 NBFU=   209
 Harris functional with IExCor=  205 diagonalized for initial guess.
 ExpMin= 1.17D-01 ExpMax= 2.19D+04 ExpMxC= 3.30D+03 IAcc=1 IRadAn=         1 AccDes= 0.00D+00
 HarFok:  IExCor=  205 AccDes= 0.00D+00 IRadAn=         1 IDoV= 1
 ScaDFX=  1.000000  1.000000  1.000000  1.000000
 FoFCou: FMM=F IPFlag=           0 FMFlag=      100000 FMFlg1=           0
         NFxFlg=           0 DoJE=T BraDBF=F KetDBF=T FulRan=T
         Omega=  0.000000  0.000000  1.000000  0.000000  0.000000 ICntrl=     500 IOpCl=  0
         NMat0=    1 NMatS0=    1 NMatT0=    0 NMatD0=    1 NMtDS0=    0 NMtDT0=    0
         I1Cent=           4 NGrid=           0.
 Symmetry not used in FoFCou.
 Requested convergence on RMS density matrix=1.00D-08 within 128 cycles.
 Requested convergence on MAX density matrix=1.00D-06.
 Requested convergence on             energy=1.00D-06.
 No special actions if energy rises.
 Integral accuracy reduced to 1.0D-05 until final iterations.
 Initial convergence to 1.0D-05 achieved.  Increase integral accuracy.
 SCF Done:  E(RHF) =  -1154.68114138     A.U. after   15 cycles
             Convg  =    0.7769D-08             -V/T =  2.0018

 **********************************************************************

            Population analysis using the SCF density.

 **********************************************************************

 Alpha  occ. eigenvalues --  -91.89338 -26.35634 -26.34874 -26.34872 -26.32327
 Alpha  occ. eigenvalues --  -20.59775 -15.67400 -11.53003 -11.36641 -11.35851
 Alpha  occ. eigenvalues --  -11.34029 -11.30099 -11.28728  -8.90436  -6.58769
 Alpha  occ. eigenvalues --   -6.58488  -6.58368  -1.73002  -1.63956  -1.63611
 Alpha  occ. eigenvalues --   -1.63396  -1.37864  -1.34139  -1.15761  -1.10701
 Alpha  occ. eigenvalues --   -1.01788  -0.95826  -0.91370  -0.86955  -0.83605
 Alpha  occ. eigenvalues --   -0.82588  -0.82272  -0.75637  -0.74638  -0.74303
 Alpha  occ. eigenvalues --   -0.72465  -0.71216  -0.70449  -0.70242  -0.68984
 Alpha  occ. eigenvalues --   -0.66455  -0.66365  -0.65056  -0.62864  -0.61761
 Alpha  occ. eigenvalues --   -0.61109  -0.58626  -0.57866  -0.53551  -0.51460
 Alpha  occ. eigenvalues --   -0.45266  -0.41969  -0.33059  -0.29828
 Alpha virt. eigenvalues --    0.05724   0.10273   0.17358   0.20343   0.25479
 Alpha virt. eigenvalues --    0.27224   0.27743   0.27825   0.31091   0.33063
 Alpha virt. eigenvalues --    0.35853   0.37906   0.41029   0.41938   0.43944
 Alpha virt. eigenvalues --    0.44398   0.48012   0.50947   0.55625   0.56756
 Alpha virt. eigenvalues --    0.57636   0.60962   0.62473   0.65564   0.68232
 Alpha virt. eigenvalues --    0.69085   0.74080   0.74284   0.75360   0.76686
 Alpha virt. eigenvalues --    0.78640   0.79079   0.84540   0.85690   0.88651
 Alpha virt. eigenvalues --    0.90517   0.91134   0.93561   0.96695   0.97783
 Alpha virt. eigenvalues --    1.00958   1.04239   1.05406   1.07913   1.08762
 Alpha virt. eigenvalues --    1.10279   1.11123   1.12677   1.13292   1.15119
 Alpha virt. eigenvalues --    1.16582   1.17319   1.19305   1.25454   1.29358
 Alpha virt. eigenvalues --    1.31888   1.32653   1.34543   1.34609   1.35905
 Alpha virt. eigenvalues --    1.37266   1.40294   1.41637   1.43538   1.43942
 Alpha virt. eigenvalues --    1.48053   1.48859   1.53153   1.53628   1.61681
 Alpha virt. eigenvalues --    1.62059   1.62833   1.64886   1.65436   1.66300
 Alpha virt. eigenvalues --    1.67830   1.68102   1.69051   1.70777   1.71614
 Alpha virt. eigenvalues --    1.73202   1.77445   1.77954   1.82542   1.88141
 Alpha virt. eigenvalues --    1.91070   1.93722   1.95036   1.99572   2.01209
 Alpha virt. eigenvalues --    2.02708   2.05669   2.07111   2.10476   2.11073
 Alpha virt. eigenvalues --    2.13384   2.13430   2.16163   2.20021   2.21664
 Alpha virt. eigenvalues --    2.23820   2.24709   2.25749   2.29726   2.31228
 Alpha virt. eigenvalues --    2.32215   2.33904   2.35879   2.36043   2.37127
 Alpha virt. eigenvalues --    2.39272   2.41342   2.44433   2.46865   2.47032
 Alpha virt. eigenvalues --    2.48476   2.53686   2.59007   2.62175   2.63274
 Alpha virt. eigenvalues --    2.66882   2.69613   2.76488   2.84513   2.85708
 Alpha virt. eigenvalues --    2.86096   2.91453   2.93369   2.94622   2.94690
 Alpha virt. eigenvalues --    3.01733   3.08583   3.11052   3.18736   3.23497
 Alpha virt. eigenvalues --    3.31248   3.38513   3.40029   3.44049   3.45776
 Alpha virt. eigenvalues --    3.50750   3.72723   4.05420   4.38890   4.41762
 Alpha virt. eigenvalues --    4.47289   4.49610   4.63600   4.68312   4.69715
 Alpha virt. eigenvalues --    4.83304   5.02926   5.16872   5.58635   6.03092
          Condensed to atoms (all electrons):
              1          2          3          4          5          6
     1  F    9.165622   0.265693  -0.033905   0.002234  -0.000015   0.000000
     2  C    0.265693   4.583482   0.566102  -0.024506   0.000973  -0.000019
     3  C   -0.033905   0.566102   5.068019   0.350523  -0.013414   0.002219
     4  C    0.002234  -0.024506   0.350523   5.231215   0.417074  -0.043963
     5  C   -0.000015   0.000973  -0.013414   0.417074   3.549732   0.288502
     6  F    0.000000  -0.000019   0.002219  -0.043963   0.288502   9.189521
     7  F    0.000000   0.000296   0.005107  -0.055803   0.283748  -0.030636
     8  F    0.000000   0.000295   0.005101  -0.055811   0.283756  -0.030637
     9  C    0.000118  -0.024269  -0.052252   0.586028  -0.019487   0.005559
    10  N    0.001389  -0.050069  -0.024712  -0.029269   0.001442   0.000225
    11  C   -0.041021   0.383667  -0.077468  -0.002492   0.000057   0.000001
    12  S    0.003574  -0.083647   0.001704  -0.000085   0.000006   0.000000
    13  H   -0.000262  -0.018234   0.369153  -0.030270  -0.000344   0.000036
    14  H    0.000000  -0.000149   0.001670  -0.018725   0.000106   0.003373
    15  H   -0.000019   0.003858  -0.000574   0.002300  -0.000017   0.000002
    16  O    0.000000   0.000000  -0.000003   0.000165   0.000071   0.000190
    17  H    0.000000   0.000000   0.000000  -0.000005  -0.000001   0.000010
    18  H    0.000000   0.000000   0.000000  -0.000018  -0.000001   0.000354
              7          8          9         10         11         12
     1  F    0.000000   0.000000   0.000118   0.001389  -0.041021   0.003574
     2  C    0.000296   0.000295  -0.024269  -0.050069   0.383667  -0.083647
     3  C    0.005107   0.005101  -0.052252  -0.024712  -0.077468   0.001704
     4  C   -0.055803  -0.055811   0.586028  -0.029269  -0.002492  -0.000085
     5  C    0.283748   0.283756  -0.019487   0.001442   0.000057   0.000006
     6  F   -0.030636  -0.030637   0.005559   0.000225   0.000001   0.000000
     7  F    9.206066  -0.033894   0.000489  -0.000006  -0.000002   0.000000
     8  F   -0.033894   9.206085   0.000486  -0.000006  -0.000002   0.000000
     9  C    0.000489   0.000486   4.806871   0.258182  -0.039346   0.003314
    10  N   -0.000006  -0.000006   0.258182   7.238665   0.215872  -0.104331
    11  C   -0.000002  -0.000002  -0.039346   0.215872   4.947216   0.439727
    12  S    0.000000   0.000000   0.003314  -0.104331   0.439727  15.977333
    13  H    0.000916   0.000913   0.002527  -0.000294   0.002660  -0.000060
    14  H    0.000064   0.000064   0.352389  -0.028193   0.000703  -0.000102
    15  H    0.000000   0.000000  -0.021705   0.310922  -0.018721   0.013865
    16  O    0.000000   0.000000  -0.006390   0.000020  -0.000003   0.000000
    17  H    0.000000   0.000000   0.000260  -0.000003   0.000000   0.000000
    18  H    0.000000   0.000000   0.000265  -0.000001   0.000000   0.000000
             13         14         15         16         17         18
     1  F   -0.000262   0.000000  -0.000019   0.000000   0.000000   0.000000
     2  C   -0.018234  -0.000149   0.003858   0.000000   0.000000   0.000000
     3  C    0.369153   0.001670  -0.000574  -0.000003   0.000000   0.000000
     4  C   -0.030270  -0.018725   0.002300   0.000165  -0.000005  -0.000018
     5  C   -0.000344   0.000106  -0.000017   0.000071  -0.000001  -0.000001
     6  F    0.000036   0.003373   0.000002   0.000190   0.000010   0.000354
     7  F    0.000916   0.000064   0.000000   0.000000   0.000000   0.000000
     8  F    0.000913   0.000064   0.000000   0.000000   0.000000   0.000000
     9  C    0.002527   0.352389  -0.021705  -0.006390   0.000260   0.000265
    10  N   -0.000294  -0.028193   0.310922   0.000020  -0.000003  -0.000001
    11  C    0.002660   0.000703  -0.018721  -0.000003   0.000000   0.000000
    12  S   -0.000060  -0.000102   0.013865   0.000000   0.000000   0.000000
    13  H    0.398006  -0.000050   0.000009   0.000000   0.000000   0.000000
    14  H   -0.000050   0.308305  -0.001225   0.013751  -0.000297  -0.000338
    15  H    0.000009  -0.001225   0.272687   0.000094  -0.000008  -0.000002
    16  O    0.000000   0.013751   0.000094   8.343449   0.264796   0.266516
    17  H    0.000000  -0.000297  -0.000008   0.264796   0.307192  -0.017132
    18  H    0.000000  -0.000338  -0.000002   0.266516  -0.017132   0.297976
 Mulliken atomic charges:
              1
     1  F   -0.363408
     2  C    0.396526
     3  C   -0.167272
     4  C   -0.328594
     5  C    1.207813
     6  F   -0.384737
     7  F   -0.376346
     8  F   -0.376350
     9  C    0.146961
    10  N   -0.789836
    11  C    0.189150
    12  S   -0.251297
    13  H    0.275293
    14  H    0.368653
    15  H    0.438534
    16  O   -0.882657
    17  H    0.445187
    18  H    0.452381
 Sum of Mulliken atomic charges =   0.00000
 Mulliken charges with hydrogens summed into heavy atoms:
              1
     1  F   -0.363408
     2  C    0.396526
     3  C    0.108021
     4  C   -0.328594
     5  C    1.207813
     6  F   -0.384737
     7  F   -0.376346
     8  F   -0.376350
     9  C    0.515614
    10  N   -0.351303
    11  C    0.189150
    12  S   -0.251297
    16  O    0.014911
 Sum of Mulliken charges with hydrogens summed into heavy atoms =   0.00000
 Electronic spatial extent (au):  <R**2>=           3442.2826
 Charge=              0.0000 electrons
 Dipole moment (field-independent basis, Debye):
    X=              5.1679    Y=             -5.2754    Z=             -0.0006  Tot=              7.3849
 Quadrupole moment (field-independent basis, Debye-Ang):
   XX=           -100.2887   YY=            -51.1465   ZZ=            -82.6122
   XY=             -7.1766   XZ=             -0.0009   YZ=              0.0016
 Traceless Quadrupole moment (field-independent basis, Debye-Ang):
   XX=            -22.2729   YY=             26.8692   ZZ=             -4.5964
   XY=             -7.1766   XZ=             -0.0009   YZ=              0.0016
 Octapole moment (field-independent basis, Debye-Ang**2):
  XXX=             96.6752  YYY=            -59.8105  ZZZ=              0.0048  XYY=             64.0864
  XXY=             -2.8374  XXZ=             -0.0029  XZZ=              3.1124  YZZ=             35.1225
  YYZ=             -0.0060  XYZ=              0.0039
 Hexadecapole moment (field-independent basis, Debye-Ang**3):
 XXXX=          -2760.6522 YYYY=           -356.0118 ZZZZ=           -143.6958 XXXY=             -7.7071
 XXXZ=              0.0049 YYYX=           -146.6425 YYYZ=              0.0227 ZZZX=              0.0124
 ZZZY=             -0.0322 XXYY=           -485.7539 XXZZ=           -473.9872 YYZZ=           -244.8371
 XXYZ=              0.0035 YYXZ=             -0.0109 ZZXY=             42.8982
 N-N= 9.183611381209D+02 E-N=-4.575471477807D+03  KE= 1.152559625385D+03
 Calling FoFJK, ICntrl=      2127 FMM=F ISym2X=0 I1Cent= 0 IOpClX= 0 NMat=1 NMatS=1 NMatT=0.
 -------------------------------------------------------------------
 Center     Atomic                   Forces (Hartrees/Bohr)
 Number     Number              X              Y              Z
 -------------------------------------------------------------------
      1        9           0.000000000    0.000000000    0.000000000
      2        6           0.000000000    0.000000000    0.000000000
      3        6           0.000000000    0.000000000    0.000000000
      4        6           0.000000000    0.000000000    0.000000000
      5        6           0.000000000    0.000000000    0.000000000
      6        9           0.000000000    0.000000000    0.000000000
      7        9           0.000000000    0.000000000    0.000000000
      8        9           0.000000000    0.000000000    0.000000000
      9        6           0.000000000    0.000000000    0.000000000
     10        7           0.000000000    0.000000000    0.000000000
     11        6           0.000000000    0.000000000    0.000000000
     12       16           0.000000000    0.000000000    0.000000000
     13        1           0.000000000    0.000000000    0.000000000
     14        1           0.000000000    0.000000000    0.000000000
     15        1           0.000000000    0.000000000    0.000000000
     16        8           0.005367247   -0.014142282   -0.000000636
     17        1           0.002692518    0.009296770    0.000000221
     18        1          -0.009136689    0.004625692    0.000000546
 -------------------------------------------------------------------
 Cartesian Forces:  Max     0.014142282 RMS     0.002813220
 -----------------------------------------------------------------------------------------------
                       Internal Coordinate Forces (Hartree/Bohr or radian)
  Cent   Atom   N1       Length/X         N2         Alpha/Y        N3         Beta/Z          J
 -----------------------------------------------------------------------------------------------
      1  F 
      2  C 
      3  C 
      4  C 
      5  C 
      6  F 
      7  F 
      8  F 
      9  C 
     10  N 
     11  C 
     12  S 
     13  H 
     14  H 
     15  H 
         X       14   0.000000(     1)      9  -0.000806(     6)      4   0.000000(    11)     0
         X       16   0.000000(     2)     14   0.000000(     7)      9   0.000000(    12)     0
     16  O       14  -0.000330(     3)     16  -0.000806(     8)     17   0.000000(    13)     0
     17  H       18  -0.009604(     4)     14  -0.002166(     9)     16   0.000000(    14)     0
     18  H       18  -0.009733(     5)     14  -0.005759(    10)     16   0.000000(    15)     0
 -----------------------------------------------------------------------------------------------
 Internal  Forces:  Max     0.009733441 RMS     0.003883734

 GradGradGradGradGradGradGradGradGradGradGradGradGradGradGradGradGradGrad
 Berny optimization.
 Search for a local minimum.
 Step number   1 out of a maximum of   20
 All quantities printed in internal units (Hartrees-Bohrs-Radians)
 Second derivative matrix not updated -- first step.
 The second derivative matrix:
                          RX       RDUM       ROH      ADUM      AHOA
           RX           0.03054
           RDUM         0.00000   0.00000
           ROH          0.00000   0.00000   1.12160
           ADUM         0.00000   0.00000   0.00000   1.00000
           AHOA         0.00000   0.00000   0.00000   0.00000   0.96000
           DOH          0.00000   0.00000   0.00000   0.00000   0.00000
           DD1          0.00000   0.00000   0.00000  -0.00002   0.00000
           DD2          0.00000   0.00000   0.00000   0.00002   0.00000
           DH1          0.00000   0.00000   0.00000   0.00000   0.00000
           DH2          0.00000   0.00000   0.00000   0.00000   0.00000
                          DOH       DD1       DD2       DH1       DH2
           DOH          0.00000
           DD1          0.00000   0.32908
           DD2          0.00000  -0.32908   0.32908
           DH1          0.00000  -0.00798   0.00798   0.02814
           DH2          0.00000   0.00798  -0.00798  -0.02814   0.02814
     Eigenvalues ---    0.030541000.000001000.000001000.000001000.00000
     Eigenvalues --- 1000.000001000.000001000.000001000.000001000.00000
 RFO step:  Lambda=-3.56234260D-06 EMin= 3.05427953D-02
 Linear search not attempted -- first point.
 Variable       Old X    -DE/DX   Delta X   Delta X   Delta X     New X
                                 (Linear)    (Quad)   (Total)
    RX        4.19538  -0.00033   0.00000  -0.01080  -0.01080   4.18458
   RDUM       1.88973   0.00000   0.00000   0.00000   0.00000   1.88973
   ROH        1.80885  -0.01934   0.00000   0.00000   0.00000   1.80885
   ADUM       1.57080  -0.00161   0.00000   0.00000   0.00000   1.57080
   AHOA       2.22948  -0.00793   0.00000   0.00000   0.00000   2.22948
   DOH        3.14159   0.00000   0.00000   0.00000   0.00000   3.14159
   DD1        0.00000   0.00000   0.00000   0.00000   0.00000   0.00000
   DD2        3.14159   0.00000   0.00000   0.00000   0.00000   3.14159
   DH1        0.00000   0.00000   0.00000   0.00000   0.00000   0.00000
   DH2       -3.14159   0.00000   0.00000   0.00000   0.00000  -3.14159
         Item               Value     Threshold  Converged?
 Maximum Force            0.000330     0.000450     YES
 RMS     Force            0.000330     0.000300     NO 
 Maximum Displacement     0.010798     0.001800     NO 
 RMS     Displacement     0.003415     0.001200     NO 
 Predicted change in Energy=-1.781171D-06
 GradGradGradGradGradGradGradGradGradGradGradGradGradGradGradGradGradGrad

 ---------------------------------------------------------------------------------------------------
                            Z-MATRIX (ANGSTROMS AND DEGREES)
   CD    Cent   Atom    N1       Length/X        N2       Alpha/Y        N3        Beta/Z          J
 ---------------------------------------------------------------------------------------------------
      1      1  F       -1  -1.969300          2.053680          0.000070
      2      2  C       -1  -1.222250          0.944230          0.000030
      3      3  C       -1   0.140030          1.057400         -0.000020
      4      4  C       -1   0.927950         -0.123640         -0.000080
      5      5  C       -1   2.414660         -0.018650         -0.000010
      6      6  F       -1   3.007080         -1.234610         -0.000560
      7      7  F       -1   2.858290          0.654480         -1.086020
      8      8  F       -1   2.858270          0.653500          1.086650
      9      9  C       -1   0.306540         -1.341490         -0.000090
     10     10  N       -1  -1.054170         -1.389970         -0.000060
     11     11  C       -1  -1.930500         -0.312100          0.000000
     12     12  S       -1  -3.570980         -0.506610          0.000030
     13     13  H       -1   0.596860          2.043100         -0.000020
     14     14  H       -1   0.831760         -2.288990         -0.000150
     15     15  H       -1  -1.521480         -2.296390         -0.000090
     16         X       14   1.000000(    15)      9   90.000(    33)      4  180.000(    50)      0
     17         X       16   1.000000(    16)     14   90.000(    34)      9    0.000(    51)      0
     18     16  O       14   2.214386(    17)     16   90.000(    35)     17  180.000(    52)      0
     19     17  H       18   0.957200(    18)     14  127.740(    36)     16    0.000(    53)      0
     20     18  H       18   0.957200(    19)     14  127.740(    37)     16 -180.000(    54)      0
 ---------------------------------------------------------------------------------------------------
                         Z-Matrix orientation:                         
 ---------------------------------------------------------------------
 Center     Atomic      Atomic             Coordinates (Angstroms)
 Number     Number       Type             X           Y           Z
 ---------------------------------------------------------------------
      1          9           0       -1.969300    2.053680    0.000070
      2          6           0       -1.222250    0.944230    0.000030
      3          6           0        0.140030    1.057400   -0.000020
      4          6           0        0.927950   -0.123640   -0.000080
      5          6           0        2.414660   -0.018650   -0.000010
      6          9           0        3.007080   -1.234610   -0.000560
      7          9           0        2.858290    0.654480   -1.086020
      8          9           0        2.858270    0.653500    1.086650
      9          6           0        0.306540   -1.341490   -0.000090
     10          7           0       -1.054170   -1.389970   -0.000060
     11          6           0       -1.930500   -0.312100    0.000000
     12         16           0       -3.570980   -0.506610    0.000030
     13          1           0        0.596860    2.043100   -0.000020
     14          1           0        0.831760   -2.288990   -0.000150
     15          1           0       -1.521480   -2.296390   -0.000090
     16         -1           0       -0.042855   -2.773808   -0.000122
     17         -1           0       -0.527673   -1.899193   -0.000066
     18          8           0        1.905335   -4.225725   -0.000273
     19          1           0        1.527341   -5.105130   -0.000284
     20          1           0        2.851421   -4.371163   -0.000327
 ---------------------------------------------------------------------
                    Distance matrix (angstroms):
                    1          2          3          4          5
     1  F    0.000000
     2  C    1.337521   0.000000
     3  C    2.332777   1.366973   0.000000
     4  C    3.624194   2.400772   1.419744   0.000000
     5  C    4.849088   3.762214   2.516312   1.490413   0.000000
     6  F    5.964663   4.757581   3.670597   2.357337   1.352598
     7  F    5.142274   4.232525   2.954772   2.347541   1.352527
     8  F    5.142625   4.232719   2.955134   2.347566   1.352555
     9  C    4.087374   2.749857   2.404662   1.367227   2.488790
    10  N    3.563171   2.340244   2.723184   2.352104   3.730054
    11  C    2.366098   1.442215   2.482463   2.864656   4.355058
    12  S    3.020011   2.760701   4.027123   4.515201   6.005497
    13  H    2.566182   2.125247   1.086415   2.191890   2.748674
    14  H    5.167661   3.830492   3.417136   2.167485   2.767673
    15  H    4.373060   3.254406   3.742796   3.274225   4.547669
    16  X    5.197676   3.900613   3.835571   2.822384   3.691920
    17  X    4.207552   2.927028   3.031051   2.295959   3.491958
    18  O    7.378599   6.042369   5.570252   4.216916   4.237793
    19  H    7.967123   6.644923   6.316756   5.017420   5.163294
    20  H    8.032307   6.696880   6.068026   4.662745   4.374372
                    6          7          8          9         10
     6  F    0.000000
     7  F    2.183809   0.000000
     8  F    2.183834   2.172670   0.000000
     9  C    2.702654   3.416807   3.416477   0.000000
    10  N    4.064221   4.546034   4.545756   1.361573   0.000000
    11  C    5.023019   5.004620   5.004549   2.462517   1.389157
    12  S    6.618222   6.622926   6.622828   3.966382   2.667332
    13  H    4.068482   2.867355   2.868068   3.397019   3.809445
    14  H    2.417382   3.734964   3.734451   1.083334   2.089251
    15  H    4.651369   5.391592   5.391203   2.062399   1.019792
    16  X    3.416319   4.620495   4.619961   1.474318   1.713991
    17  X    3.596686   4.377818   4.377420   1.003466   0.732467
    18  O    3.187571   5.089535   5.088843   3.297720   4.098801
    19  H    4.143736   6.010270   6.009543   3.956683   4.524004
    20  H    3.140413   5.141582   5.140895   3.956683   4.913365
                   11         12         13         14         15
    11  C    0.000000
    12  S    1.651971   0.000000
    13  H    3.454637   4.885889   0.000000
    14  H    3.396789   4.749842   4.338454   0.000000
    15  H    2.026007   2.720986   4.828927   2.353252   0.000000
    16  X    3.102130   4.193788   4.859202   1.000000   1.553789
    17  X    2.118204   3.346790   4.099543   1.414214   1.070242
    18  O    5.479971   6.619806   6.403926   2.214386   3.932606
    19  H    5.910143   6.865803   7.208535   2.900771   4.145398
    20  H    6.272381   7.495466   6.798957   2.900771   4.840139
                   16         17         18         19         20
    16  X    0.000000
    17  X    1.000000   0.000000
    18  O    2.429713   3.366345   0.000000
    19  H    2.810796   3.808032   0.957200   0.000000
    20  H    3.305809   4.186754   0.957200   1.513901   0.000000
 Symmetry turned off by external request.
 Stoichiometry    C6H5F4NOS
 Framework group  C1[X(C6H5F4NOS)]
 Deg. of freedom    48
 Full point group                 C1      NOp   1
 Rotational constants (GHZ):      0.9278072      0.4006205      0.2944222
 Standard basis: 6-31G(d) (6D, 7F)
 Integral buffers will be    131072 words long.
 Raffenetti 1 integral format.
 Two-electron integral symmetry is turned off.
   209 basis functions,   408 primitive gaussians,   209 cartesian basis functions
    54 alpha electrons       54 beta electrons
       nuclear repulsion energy       918.4764746609 Hartrees.
 NAtoms=   18 NActive=   18 NUniq=   18 SFac= 7.50D-01 NAtFMM=   80 NAOKFM=F Big=F
 One-electron integrals computed using PRISM.
 NBasis=   209 RedAO= T  NBF=   209
 NBsUse=   209 1.00D-06 NBFU=   209
 Initial guess read from the read-write file.
 B after Tr=     0.000000    0.000000    0.000000
         Rot=    1.000000    0.000000    0.000000    0.000000 Ang=   0.00 deg.
 Requested convergence on RMS density matrix=1.00D-08 within 128 cycles.
 Requested convergence on MAX density matrix=1.00D-06.
 Requested convergence on             energy=1.00D-06.
 No special actions if energy rises.
 SCF Done:  E(RHF) =  -1154.68114457     A.U. after    8 cycles
             Convg  =    0.3564D-08             -V/T =  2.0018
 Calling FoFJK, ICntrl=      2127 FMM=F ISym2X=0 I1Cent= 0 IOpClX= 0 NMat=1 NMatS=1 NMatT=0.
 -------------------------------------------------------------------
 Center     Atomic                   Forces (Hartrees/Bohr)
 Number     Number              X              Y              Z
 -------------------------------------------------------------------
      1        9           0.000000000    0.000000000    0.000000000
      2        6           0.000000000    0.000000000    0.000000000
      3        6           0.000000000    0.000000000    0.000000000
      4        6           0.000000000    0.000000000    0.000000000
      5        6           0.000000000    0.000000000    0.000000000
      6        9           0.000000000    0.000000000    0.000000000
      7        9           0.000000000    0.000000000    0.000000000
      8        9           0.000000000    0.000000000    0.000000000
      9        6           0.000000000    0.000000000    0.000000000
     10        7           0.000000000    0.000000000    0.000000000
     11        6           0.000000000    0.000000000    0.000000000
     12       16           0.000000000    0.000000000    0.000000000
     13        1           0.000000000    0.000000000    0.000000000
     14        1           0.000000000    0.000000000    0.000000000
     15        1           0.000000000    0.000000000    0.000000000
     16        8           0.005390065   -0.014207604   -0.000000638
     17        1           0.002689192    0.009290723    0.000000222
     18        1          -0.009129259    0.004633937    0.000000545
 -------------------------------------------------------------------
 Cartesian Forces:  Max     0.014207604 RMS     0.002819492
 -----------------------------------------------------------------------------------------------
                       Internal Coordinate Forces (Hartree/Bohr or radian)
  Cent   Atom   N1       Length/X         N2         Alpha/Y        N3         Beta/Z          J
 -----------------------------------------------------------------------------------------------
      1  F 
      2  C 
      3  C 
      4  C 
      5  C 
      6  F 
      7  F 
      8  F 
      9  C 
     10  N 
     11  C 
     12  S 
     13  H 
     14  H 
     15  H 
         X       14   0.000000(     1)      9  -0.000809(     6)      4   0.000000(    11)     0
         X       16   0.000000(     2)     14   0.000000(     7)      9   0.000000(    12)     0
     16  O       14  -0.000262(     3)     16  -0.000809(     8)     17   0.000000(    13)     0
     17  H       18  -0.009598(     4)     14  -0.002167(     9)     16   0.000000(    14)     0
     18  H       18  -0.009727(     5)     14  -0.005776(    10)     16   0.000000(    15)     0
 -----------------------------------------------------------------------------------------------
 Internal  Forces:  Max     0.009727350 RMS     0.003883018

 GradGradGradGradGradGradGradGradGradGradGradGradGradGradGradGradGradGrad
 Berny optimization.
 Search for a local minimum.
 Step number   2 out of a maximum of   20
 All quantities printed in internal units (Hartrees-Bohrs-Radians)
 Update second derivatives using D2CorN and points    1    2
 DE= -3.20D-06 DEPred=-1.78D-06 R= 1.79D+00
 SS=  1.41D+00  RLast= 1.08D-02 DXNew= 5.0454D-01 3.2395D-02
 Trust test= 1.79D+00 RLast= 1.08D-02 DXMaxT set to 3.00D-01
 The second derivative matrix:
                          RX       RDUM       ROH      ADUM      AHOA
           RX           0.00632
           RDUM         0.00000   0.00000
           ROH          0.00060   0.00000   1.12160
           ADUM        -0.00024   0.00000   0.00000   1.00000
           AHOA        -0.00083   0.00000   0.00000   0.00000   0.96000
           DOH          0.00000   0.00000   0.00000   0.00000   0.00000
           DD1          0.00000   0.00000   0.00000  -0.00002   0.00000
           DD2          0.00000   0.00000   0.00000   0.00002   0.00000
           DH1          0.00000   0.00000   0.00000   0.00000   0.00000
           DH2          0.00000   0.00000   0.00000   0.00000   0.00000
                          DOH       DD1       DD2       DH1       DH2
           DOH          0.00000
           DD1          0.00000   0.32908
           DD2          0.00000  -0.32908   0.32908
           DH1          0.00000  -0.00798   0.00798   0.02814
           DH2          0.00000   0.00798  -0.00798  -0.02814   0.02814
     Eigenvalues ---    0.006321000.000001000.000001000.000001000.00000
     Eigenvalues --- 1000.000001000.000001000.000001000.000001000.00000
 RFO step:  Lambda= 0.00000000D+00 EMin= 6.32134533D-03
 Quartic linear search produced a step of  2.00000.
 Variable       Old X    -DE/DX   Delta X   Delta X   Delta X     New X
                                 (Linear)    (Quad)   (Total)
    RX        4.18458  -0.00026  -0.02160   0.00000  -0.02160   4.16299
   RDUM       1.88973   0.00000   0.00000   0.00000   0.00000   1.88973
   ROH        1.80885  -0.01932   0.00000   0.00000   0.00000   1.80885
   ADUM       1.57080  -0.00162   0.00000   0.00000   0.00000   1.57080
   AHOA       2.22948  -0.00794   0.00000   0.00000   0.00000   2.22948
   DOH        3.14159   0.00000   0.00000   0.00000   0.00000   3.14159
   DD1        0.00000   0.00000   0.00000   0.00000   0.00000   0.00000
   DD2        3.14159   0.00000   0.00000   0.00000   0.00000   3.14159
   DH1        0.00000   0.00000   0.00000   0.00000   0.00000   0.00000
   DH2       -3.14159   0.00000   0.00000   0.00000   0.00000  -3.14159
         Item               Value     Threshold  Converged?
 Maximum Force            0.000262     0.000450     YES
 RMS     Force            0.000262     0.000300     YES
 Maximum Displacement     0.021597     0.001800     NO 
 RMS     Displacement     0.006830     0.001200     NO 
 Predicted change in Energy=-4.175395D-06
 GradGradGradGradGradGradGradGradGradGradGradGradGradGradGradGradGradGrad

 ---------------------------------------------------------------------------------------------------
                            Z-MATRIX (ANGSTROMS AND DEGREES)
   CD    Cent   Atom    N1       Length/X        N2       Alpha/Y        N3        Beta/Z          J
 ---------------------------------------------------------------------------------------------------
      1      1  F       -1  -1.969300          2.053680          0.000070
      2      2  C       -1  -1.222250          0.944230          0.000030
      3      3  C       -1   0.140030          1.057400         -0.000020
      4      4  C       -1   0.927950         -0.123640         -0.000080
      5      5  C       -1   2.414660         -0.018650         -0.000010
      6      6  F       -1   3.007080         -1.234610         -0.000560
      7      7  F       -1   2.858290          0.654480         -1.086020
      8      8  F       -1   2.858270          0.653500          1.086650
      9      9  C       -1   0.306540         -1.341490         -0.000090
     10     10  N       -1  -1.054170         -1.389970         -0.000060
     11     11  C       -1  -1.930500         -0.312100          0.000000
     12     12  S       -1  -3.570980         -0.506610          0.000030
     13     13  H       -1   0.596860          2.043100         -0.000020
     14     14  H       -1   0.831760         -2.288990         -0.000150
     15     15  H       -1  -1.521480         -2.296390         -0.000090
     16         X       14   1.000000(    15)      9   90.000(    33)      4  180.000(    50)      0
     17         X       16   1.000000(    16)     14   90.000(    34)      9    0.000(    51)      0
     18     16  O       14   2.202957(    17)     16   90.000(    35)     17  180.000(    52)      0
     19     17  H       18   0.957200(    18)     14  127.740(    36)     16    0.000(    53)      0
     20     18  H       18   0.957200(    19)     14  127.740(    37)     16 -180.000(    54)      0
 ---------------------------------------------------------------------------------------------------
                         Z-Matrix orientation:                         
 ---------------------------------------------------------------------
 Center     Atomic      Atomic             Coordinates (Angstroms)
 Number     Number       Type             X           Y           Z
 ---------------------------------------------------------------------
      1          9           0       -1.969300    2.053680    0.000070
      2          6           0       -1.222250    0.944230    0.000030
      3          6           0        0.140030    1.057400   -0.000020
      4          6           0        0.927950   -0.123640   -0.000080
      5          6           0        2.414660   -0.018650   -0.000010
      6          9           0        3.007080   -1.234610   -0.000560
      7          9           0        2.858290    0.654480   -1.086020
      8          9           0        2.858270    0.653500    1.086650
      9          6           0        0.306540   -1.341490   -0.000090
     10          7           0       -1.054170   -1.389970   -0.000060
     11          6           0       -1.930500   -0.312100    0.000000
     12         16           0       -3.570980   -0.506610    0.000030
     13          1           0        0.596860    2.043100   -0.000020
     14          1           0        0.831760   -2.288990   -0.000150
     15          1           0       -1.521480   -2.296390   -0.000090
     16         -1           0       -0.042855   -2.773808   -0.000122
     17         -1           0       -0.527673   -1.899193   -0.000066
     18          8           0        1.899794   -4.215729   -0.000272
     19          1           0        1.521800   -5.095134   -0.000283
     20          1           0        2.845880   -4.361167   -0.000326
 ---------------------------------------------------------------------
                    Distance matrix (angstroms):
                    1          2          3          4          5
     1  F    0.000000
     2  C    1.337521   0.000000
     3  C    2.332777   1.366973   0.000000
     4  C    3.624194   2.400772   1.419744   0.000000
     5  C    4.849088   3.762214   2.516312   1.490413   0.000000
     6  F    5.964663   4.757581   3.670597   2.357337   1.352598
     7  F    5.142274   4.232525   2.954772   2.347541   1.352527
     8  F    5.142625   4.232719   2.955134   2.347566   1.352555
     9  C    4.087374   2.749857   2.404662   1.367227   2.488790
    10  N    3.563171   2.340244   2.723184   2.352104   3.730054
    11  C    2.366098   1.442215   2.482463   2.864656   4.355058
    12  S    3.020011   2.760701   4.027123   4.515201   6.005497
    13  H    2.566182   2.125247   1.086415   2.191890   2.748674
    14  H    5.167661   3.830492   3.417136   2.167485   2.767673
    15  H    4.373060   3.254406   3.742796   3.274225   4.547669
    16  X    5.197676   3.900613   3.835571   2.822384   3.691920
    17  X    4.207552   2.927028   3.031051   2.295959   3.491958
    18  O    7.367182   6.030948   5.559016   4.205909   4.228541
    19  H    7.955710   6.633530   6.305788   5.006836   5.154405
    20  H    8.020987   6.685576   6.056608   4.651354   4.363875
                    6          7          8          9         10
     6  F    0.000000
     7  F    2.183809   0.000000
     8  F    2.183834   2.172670   0.000000
     9  C    2.702654   3.416807   3.416477   0.000000
    10  N    4.064221   4.546034   4.545756   1.361573   0.000000
    11  C    5.023019   5.004620   5.004549   2.462517   1.389157
    12  S    6.618222   6.622926   6.622828   3.966382   2.667332
    13  H    4.068482   2.867355   2.868068   3.397019   3.809445
    14  H    2.417382   3.734964   3.734451   1.083334   2.089251
    15  H    4.651369   5.391592   5.391203   2.062399   1.019792
    16  X    3.416319   4.620495   4.619961   1.474318   1.713991
    17  X    3.596686   4.377818   4.377420   1.003466   0.732467
    18  O    3.180119   5.080994   5.080302   3.286291   4.087887
    19  H    4.136387   6.001924   6.001197   3.945466   4.512633
    20  H    3.130710   5.131823   5.131136   3.945466   4.902898
                   11         12         13         14         15
    11  C    0.000000
    12  S    1.651971   0.000000
    13  H    3.454637   4.885889   0.000000
    14  H    3.396789   4.749842   4.338454   0.000000
    15  H    2.026007   2.720986   4.828927   2.353252   0.000000
    16  X    3.102130   4.193788   4.859202   1.000000   1.553789
    17  X    2.118204   3.346790   4.099543   1.414214   1.070242
    18  O    5.468955   6.609609   6.393010   2.202957   3.922879
    19  H    5.898796   6.854995   7.197909   2.889740   4.134552
    20  H    6.261689   7.485567   6.787690   2.889740   4.830853
                   16         17         18         19         20
    16  X    0.000000
    17  X    1.000000   0.000000
    18  O    2.419302   3.355433   0.000000
    19  H    2.799410   3.796627   0.957200   0.000000
    20  H    3.296134   4.176383   0.957200   1.513901   0.000000
 Symmetry turned off by external request.
 Stoichiometry    C6H5F4NOS
 Framework group  C1[X(C6H5F4NOS)]
 Deg. of freedom    48
 Full point group                 C1      NOp   1
 Rotational constants (GHZ):      0.9296786      0.4008334      0.2947255
 Standard basis: 6-31G(d) (6D, 7F)
 Integral buffers will be    131072 words long.
 Raffenetti 1 integral format.
 Two-electron integral symmetry is turned off.
   209 basis functions,   408 primitive gaussians,   209 cartesian basis functions
    54 alpha electrons       54 beta electrons
       nuclear repulsion energy       918.7078492217 Hartrees.
 NAtoms=   18 NActive=   18 NUniq=   18 SFac= 7.50D-01 NAtFMM=   80 NAOKFM=F Big=F
 One-electron integrals computed using PRISM.
 NBasis=   209 RedAO= T  NBF=   209
 NBsUse=   209 1.00D-06 NBFU=   209
 Initial guess read from the read-write file.
 B after Tr=     0.000000    0.000000    0.000000
         Rot=    1.000000    0.000000    0.000000    0.000000 Ang=   0.00 deg.
 Harris functional with IExCor=  205 diagonalized for initial guess.
 ExpMin= 1.17D-01 ExpMax= 2.19D+04 ExpMxC= 3.30D+03 IAcc=1 IRadAn=         1 AccDes= 0.00D+00
 HarFok:  IExCor=  205 AccDes= 0.00D+00 IRadAn=         1 IDoV= 1
 ScaDFX=  1.000000  1.000000  1.000000  1.000000
 FoFCou: FMM=F IPFlag=           0 FMFlag=      100000 FMFlg1=           0
         NFxFlg=           0 DoJE=T BraDBF=F KetDBF=T FulRan=T
         Omega=  0.000000  0.000000  1.000000  0.000000  0.000000 ICntrl=     500 IOpCl=  0
         NMat0=    1 NMatS0=    1 NMatT0=    0 NMatD0=    1 NMtDS0=    0 NMtDT0=    0
         I1Cent=           4 NGrid=           0.
 Symmetry not used in FoFCou.
 Requested convergence on RMS density matrix=1.00D-08 within 128 cycles.
 Requested convergence on MAX density matrix=1.00D-06.
 Requested convergence on             energy=1.00D-06.
 No special actions if energy rises.
 Integral accuracy reduced to 1.0D-05 until final iterations.
 Initial convergence to 1.0D-05 achieved.  Increase integral accuracy.
 SCF Done:  E(RHF) =  -1154.68114870     A.U. after    8 cycles
             Convg  =    0.9132D-08             -V/T =  2.0018
 Calling FoFJK, ICntrl=      2127 FMM=F ISym2X=0 I1Cent= 0 IOpClX= 0 NMat=1 NMatS=1 NMatT=0.
 -------------------------------------------------------------------
 Center     Atomic                   Forces (Hartrees/Bohr)
 Number     Number              X              Y              Z
 -------------------------------------------------------------------
      1        9           0.000000000    0.000000000    0.000000000
      2        6           0.000000000    0.000000000    0.000000000
      3        6           0.000000000    0.000000000    0.000000000
      4        6           0.000000000    0.000000000    0.000000000
      5        6           0.000000000    0.000000000    0.000000000
      6        9           0.000000000    0.000000000    0.000000000
      7        9           0.000000000    0.000000000    0.000000000
      8        9           0.000000000    0.000000000    0.000000000
      9        6           0.000000000    0.000000000    0.000000000
     10        7           0.000000000    0.000000000    0.000000000
     11        6           0.000000000    0.000000000    0.000000000
     12       16           0.000000000    0.000000000    0.000000000
     13        1           0.000000000    0.000000000    0.000000000
     14        1           0.000000000    0.000000000    0.000000000
     15        1           0.000000000    0.000000000    0.000000000
     16        8           0.005438299   -0.014343498   -0.000000644
     17        1           0.002682360    0.009278366    0.000000223
     18        1          -0.009114098    0.004650509    0.000000543
 -------------------------------------------------------------------
 Cartesian Forces:  Max     0.014343498 RMS     0.002832641
 -----------------------------------------------------------------------------------------------
                       Internal Coordinate Forces (Hartree/Bohr or radian)
  Cent   Atom   N1       Length/X         N2         Alpha/Y        N3         Beta/Z          J
 -----------------------------------------------------------------------------------------------
      1  F 
      2  C 
      3  C 
      4  C 
      5  C 
      6  F 
      7  F 
      8  F 
      9  C 
     10  N 
     11  C 
     12  S 
     13  H 
     14  H 
     15  H 
         X       14   0.000000(     1)      9  -0.000814(     6)      4   0.000000(    11)     0
         X       16   0.000000(     2)     14   0.000000(     7)      9   0.000000(    12)     0
     16  O       14  -0.000119(     3)     16  -0.000814(     8)     17   0.000000(    13)     0
     17  H       18  -0.009584(     4)     14  -0.002170(     9)     16   0.000000(    14)     0
     18  H       18  -0.009715(     5)     14  -0.005809(    10)     16   0.000000(    15)     0
 -----------------------------------------------------------------------------------------------
 Internal  Forces:  Max     0.009714883 RMS     0.003881773

 GradGradGradGradGradGradGradGradGradGradGradGradGradGradGradGradGradGrad
 Berny optimization.
 Search for a local minimum.
 Step number   3 out of a maximum of   20
 All quantities printed in internal units (Hartrees-Bohrs-Radians)
 Update second derivatives using D2CorN and points    2    3
 DE= -4.12D-06 DEPred=-4.18D-06 R= 9.88D-01
 SS=  1.41D+00  RLast= 2.16D-02 DXNew= 5.0454D-01 6.4791D-02
 Trust test= 9.88D-01 RLast= 2.16D-02 DXMaxT set to 3.00D-01
 The second derivative matrix:
                          RX       RDUM       ROH      ADUM      AHOA
           RX           0.00660
           RDUM         0.00000   0.00000
           ROH          0.00091   0.00000   1.12160
           ADUM        -0.00039   0.00000   0.00000   1.00000
           AHOA        -0.00126   0.00000   0.00000   0.00000   0.96000
           DOH          0.00000   0.00000   0.00000   0.00000   0.00000
           DD1          0.00000   0.00000   0.00000  -0.00002   0.00000
           DD2          0.00000   0.00000   0.00000   0.00002   0.00000
           DH1          0.00000   0.00000   0.00000   0.00000   0.00000
           DH2          0.00000   0.00000   0.00000   0.00000   0.00000
                          DOH       DD1       DD2       DH1       DH2
           DOH          0.00000
           DD1          0.00000   0.32908
           DD2          0.00000  -0.32908   0.32908
           DH1          0.00000  -0.00798   0.00798   0.02814
           DH2          0.00000   0.00798  -0.00798  -0.02814   0.02814
     Eigenvalues ---    0.006601000.000001000.000001000.000001000.00000
     Eigenvalues --- 1000.000001000.000001000.000001000.000001000.00000
 RFO step:  Lambda= 0.00000000D+00 EMin= 6.60240241D-03
 Quartic linear search produced a step of  0.79303.
 Variable       Old X    -DE/DX   Delta X   Delta X   Delta X     New X
                                 (Linear)    (Quad)   (Total)
    RX        4.16299  -0.00012  -0.01713   0.00000  -0.01713   4.14586
   RDUM       1.88973   0.00000   0.00000   0.00000   0.00000   1.88973
   ROH        1.80885  -0.01930   0.00000   0.00000   0.00000   1.80885
   ADUM       1.57080  -0.00163   0.00000   0.00000   0.00000   1.57080
   AHOA       2.22948  -0.00798   0.00000   0.00000   0.00000   2.22948
   DOH        3.14159   0.00000   0.00000   0.00000   0.00000   3.14159
   DD1        0.00000   0.00000   0.00000   0.00000   0.00000   0.00000
   DD2        3.14159   0.00000   0.00000   0.00000   0.00000   3.14159
   DH1        0.00000   0.00000   0.00000   0.00000   0.00000   0.00000
   DH2       -3.14159   0.00000   0.00000   0.00000   0.00000  -3.14159
         Item               Value     Threshold  Converged?
 Maximum Force            0.000119     0.000450     YES
 RMS     Force            0.000119     0.000300     YES
 Maximum Displacement     0.017127     0.001800     NO 
 RMS     Displacement     0.005416     0.001200     NO 
 Predicted change in Energy=-1.069785D-06
 GradGradGradGradGradGradGradGradGradGradGradGradGradGradGradGradGradGrad

 ---------------------------------------------------------------------------------------------------
                            Z-MATRIX (ANGSTROMS AND DEGREES)
   CD    Cent   Atom    N1       Length/X        N2       Alpha/Y        N3        Beta/Z          J
 ---------------------------------------------------------------------------------------------------
      1      1  F       -1  -1.969300          2.053680          0.000070
      2      2  C       -1  -1.222250          0.944230          0.000030
      3      3  C       -1   0.140030          1.057400         -0.000020
      4      4  C       -1   0.927950         -0.123640         -0.000080
      5      5  C       -1   2.414660         -0.018650         -0.000010
      6      6  F       -1   3.007080         -1.234610         -0.000560
      7      7  F       -1   2.858290          0.654480         -1.086020
      8      8  F       -1   2.858270          0.653500          1.086650
      9      9  C       -1   0.306540         -1.341490         -0.000090
     10     10  N       -1  -1.054170         -1.389970         -0.000060
     11     11  C       -1  -1.930500         -0.312100          0.000000
     12     12  S       -1  -3.570980         -0.506610          0.000030
     13     13  H       -1   0.596860          2.043100         -0.000020
     14     14  H       -1   0.831760         -2.288990         -0.000150
     15     15  H       -1  -1.521480         -2.296390         -0.000090
     16         X       14   1.000000(    15)      9   90.000(    33)      4  180.000(    50)      0
     17         X       16   1.000000(    16)     14   90.000(    34)      9    0.000(    51)      0
     18     16  O       14   2.193894(    17)     16   90.000(    35)     17  180.000(    52)      0
     19     17  H       18   0.957200(    18)     14  127.740(    36)     16    0.000(    53)      0
     20     18  H       18   0.957200(    19)     14  127.740(    37)     16 -180.000(    54)      0
 ---------------------------------------------------------------------------------------------------
                         Z-Matrix orientation:                         
 ---------------------------------------------------------------------
 Center     Atomic      Atomic             Coordinates (Angstroms)
 Number     Number       Type             X           Y           Z
 ---------------------------------------------------------------------
      1          9           0       -1.969300    2.053680    0.000070
      2          6           0       -1.222250    0.944230    0.000030
      3          6           0        0.140030    1.057400   -0.000020
      4          6           0        0.927950   -0.123640   -0.000080
      5          6           0        2.414660   -0.018650   -0.000010
      6          9           0        3.007080   -1.234610   -0.000560
      7          9           0        2.858290    0.654480   -1.086020
      8          9           0        2.858270    0.653500    1.086650
      9          6           0        0.306540   -1.341490   -0.000090
     10          7           0       -1.054170   -1.389970   -0.000060
     11          6           0       -1.930500   -0.312100    0.000000
     12         16           0       -3.570980   -0.506610    0.000030
     13          1           0        0.596860    2.043100   -0.000020
     14          1           0        0.831760   -2.288990   -0.000150
     15          1           0       -1.521480   -2.296390   -0.000090
     16         -1           0       -0.042855   -2.773808   -0.000122
     17         -1           0       -0.527673   -1.899193   -0.000066
     18          8           0        1.895400   -4.207802   -0.000272
     19          1           0        1.517406   -5.087207   -0.000282
     20          1           0        2.841486   -4.353240   -0.000326
 ---------------------------------------------------------------------
                    Distance matrix (angstroms):
                    1          2          3          4          5
     1  F    0.000000
     2  C    1.337521   0.000000
     3  C    2.332777   1.366973   0.000000
     4  C    3.624194   2.400772   1.419744   0.000000
     5  C    4.849088   3.762214   2.516312   1.490413   0.000000
     6  F    5.964663   4.757581   3.670597   2.357337   1.352598
     7  F    5.142274   4.232525   2.954772   2.347541   1.352527
     8  F    5.142625   4.232719   2.955134   2.347566   1.352555
     9  C    4.087374   2.749857   2.404662   1.367227   2.488790
    10  N    3.563171   2.340244   2.723184   2.352104   3.730054
    11  C    2.366098   1.442215   2.482463   2.864656   4.355058
    12  S    3.020011   2.760701   4.027123   4.515201   6.005497
    13  H    2.566182   2.125247   1.086415   2.191890   2.748674
    14  H    5.167661   3.830492   3.417136   2.167485   2.767673
    15  H    4.373060   3.254406   3.742796   3.274225   4.547669
    16  X    5.197676   3.900613   3.835571   2.822384   3.691920
    17  X    4.207552   2.927028   3.031051   2.295959   3.491958
    18  O    7.358129   6.021891   5.550106   4.197182   4.221212
    19  H    7.946659   6.624496   6.297091   4.998445   5.147362
    20  H    8.012009   6.676612   6.047553   4.642321   4.355554
                    6          7          8          9         10
     6  F    0.000000
     7  F    2.183809   0.000000
     8  F    2.183834   2.172670   0.000000
     9  C    2.702654   3.416807   3.416477   0.000000
    10  N    4.064221   4.546034   4.545756   1.361573   0.000000
    11  C    5.023019   5.004620   5.004549   2.462517   1.389157
    12  S    6.618222   6.622926   6.622828   3.966382   2.667332
    13  H    4.068482   2.867355   2.868068   3.397019   3.809445
    14  H    2.417382   3.734964   3.734451   1.083334   2.089251
    15  H    4.651369   5.391592   5.391203   2.062399   1.019792
    16  X    3.416319   4.620495   4.619961   1.474318   1.713991
    17  X    3.596686   4.377818   4.377420   1.003466   0.732467
    18  O    3.174225   5.074229   5.073537   3.277228   4.079233
    19  H    4.130573   5.995312   5.994585   3.936571   4.503617
    20  H    3.123024   5.124088   5.123402   3.936571   4.894600
                   11         12         13         14         15
    11  C    0.000000
    12  S    1.651971   0.000000
    13  H    3.454637   4.885889   0.000000
    14  H    3.396789   4.749842   4.338454   0.000000
    15  H    2.026007   2.720986   4.828927   2.353252   0.000000
    16  X    3.102130   4.193788   4.859202   1.000000   1.553789
    17  X    2.118204   3.346790   4.099543   1.414214   1.070242
    18  O    5.460220   6.601525   6.384355   2.193894   3.915171
    19  H    5.889797   6.846425   7.189484   2.880994   4.125953
    20  H    6.253213   7.477719   6.778755   2.880994   4.823495
                   16         17         18         19         20
    16  X    0.000000
    17  X    1.000000   0.000000
    18  O    2.411052   3.346783   0.000000
    19  H    2.790381   3.787582   0.957200   0.000000
    20  H    3.288469   4.168163   0.957200   1.513901   0.000000
 Symmetry turned off by external request.
 Stoichiometry    C6H5F4NOS
 Framework group  C1[X(C6H5F4NOS)]
 Deg. of freedom    48
 Full point group                 C1      NOp   1
 Rotational constants (GHZ):      0.9311675      0.4010015      0.2949659
 Standard basis: 6-31G(d) (6D, 7F)
 Integral buffers will be    131072 words long.
 Raffenetti 1 integral format.
 Two-electron integral symmetry is turned off.
   209 basis functions,   408 primitive gaussians,   209 cartesian basis functions
    54 alpha electrons       54 beta electrons
       nuclear repulsion energy       918.8920045974 Hartrees.
 NAtoms=   18 NActive=   18 NUniq=   18 SFac= 7.50D-01 NAtFMM=   80 NAOKFM=F Big=F
 One-electron integrals computed using PRISM.
 NBasis=   209 RedAO= T  NBF=   209
 NBsUse=   209 1.00D-06 NBFU=   209
 Initial guess read from the read-write file.
 B after Tr=     0.000000    0.000000    0.000000
         Rot=    1.000000    0.000000    0.000000    0.000000 Ang=   0.00 deg.
 Requested convergence on RMS density matrix=1.00D-08 within 128 cycles.
 Requested convergence on MAX density matrix=1.00D-06.
 Requested convergence on             energy=1.00D-06.
 No special actions if energy rises.
 SCF Done:  E(RHF) =  -1154.68114972     A.U. after    8 cycles
             Convg  =    0.5765D-08             -V/T =  2.0018
 Calling FoFJK, ICntrl=      2127 FMM=F ISym2X=0 I1Cent= 0 IOpClX= 0 NMat=1 NMatS=1 NMatT=0.
 -------------------------------------------------------------------
 Center     Atomic                   Forces (Hartrees/Bohr)
 Number     Number              X              Y              Z
 -------------------------------------------------------------------
      1        9           0.000000000    0.000000000    0.000000000
      2        6           0.000000000    0.000000000    0.000000000
      3        6           0.000000000    0.000000000    0.000000000
      4        6           0.000000000    0.000000000    0.000000000
      5        6           0.000000000    0.000000000    0.000000000
      6        9           0.000000000    0.000000000    0.000000000
      7        9           0.000000000    0.000000000    0.000000000
      8        9           0.000000000    0.000000000    0.000000000
      9        6           0.000000000    0.000000000    0.000000000
     10        7           0.000000000    0.000000000    0.000000000
     11        6           0.000000000    0.000000000    0.000000000
     12       16           0.000000000    0.000000000    0.000000000
     13        1           0.000000000    0.000000000    0.000000000
     14        1           0.000000000    0.000000000    0.000000000
     15        1           0.000000000    0.000000000    0.000000000
     16        8           0.005479108   -0.014456413   -0.000000648
     17        1           0.002676771    0.009268314    0.000000224
     18        1          -0.009101789    0.004663724    0.000000542
 -------------------------------------------------------------------
 Cartesian Forces:  Max     0.014456413 RMS     0.002843668
 -----------------------------------------------------------------------------------------------
                       Internal Coordinate Forces (Hartree/Bohr or radian)
  Cent   Atom   N1       Length/X         N2         Alpha/Y        N3         Beta/Z          J
 -----------------------------------------------------------------------------------------------
      1  F 
      2  C 
      3  C 
      4  C 
      5  C 
      6  F 
      7  F 
      8  F 
      9  C 
     10  N 
     11  C 
     12  S 
     13  H 
     14  H 
     15  H 
         X       14   0.000000(     1)      9  -0.000819(     6)      4   0.000000(    11)     0
         X       16   0.000000(     2)     14   0.000000(     7)      9   0.000000(    12)     0
     16  O       14   0.000000(     3)     16  -0.000819(     8)     17   0.000000(    13)     0
     17  H       18  -0.009572(     4)     14  -0.002172(     9)     16   0.000000(    14)     0
     18  H       18  -0.009705(     5)     14  -0.005836(    10)     16   0.000000(    15)     0
 -----------------------------------------------------------------------------------------------
 Internal  Forces:  Max     0.009704725 RMS     0.003880996

 GradGradGradGradGradGradGradGradGradGradGradGradGradGradGradGradGradGrad
 Berny optimization.
 Search for a local minimum.
 Step number   4 out of a maximum of   20
 All quantities printed in internal units (Hartrees-Bohrs-Radians)
 Update second derivatives using D2CorN and points    3    4
 DE= -1.03D-06 DEPred=-1.07D-06 R= 9.60D-01
 SS=  1.41D+00  RLast= 1.71D-02 DXNew= 5.0454D-01 5.1381D-02
 Trust test= 9.60D-01 RLast= 1.71D-02 DXMaxT set to 3.00D-01
 The second derivative matrix:
                          RX       RDUM       ROH      ADUM      AHOA
           RX           0.00695
           RDUM         0.00000   0.00000
           ROH          0.00109   0.00000   1.12160
           ADUM        -0.00049   0.00000   0.00000   1.00000
           AHOA        -0.00148   0.00000   0.00000   0.00000   0.96000
           DOH          0.00000   0.00000   0.00000   0.00000   0.00000
           DD1          0.00000   0.00000   0.00000  -0.00002   0.00000
           DD2          0.00000   0.00000   0.00000   0.00002   0.00000
           DH1          0.00000   0.00000   0.00000   0.00000   0.00000
           DH2          0.00000   0.00000   0.00000   0.00000   0.00000
                          DOH       DD1       DD2       DH1       DH2
           DOH          0.00000
           DD1          0.00000   0.32908
           DD2          0.00000  -0.32908   0.32908
           DH1          0.00000  -0.00798   0.00798   0.02814
           DH2          0.00000   0.00798  -0.00798  -0.02814   0.02814
     Eigenvalues ---    0.006951000.000001000.000001000.000001000.00000
     Eigenvalues --- 1000.000001000.000001000.000001000.000001000.00000
 RFO step:  Lambda= 0.00000000D+00 EMin= 6.94999605D-03
 Quartic linear search produced a step of -0.00026.
 Variable       Old X    -DE/DX   Delta X   Delta X   Delta X     New X
                                 (Linear)    (Quad)   (Total)
    RX        4.14586   0.00000   0.00000   0.00000   0.00000   4.14586
   RDUM       1.88973   0.00000   0.00000   0.00000   0.00000   1.88973
   ROH        1.80885  -0.01928   0.00000   0.00000   0.00000   1.80885
   ADUM       1.57080  -0.00164   0.00000   0.00000   0.00000   1.57080
   AHOA       2.22948  -0.00801   0.00000   0.00000   0.00000   2.22948
   DOH        3.14159   0.00000   0.00000   0.00000   0.00000   3.14159
   DD1        0.00000   0.00000   0.00000   0.00000   0.00000   0.00000
   DD2        3.14159   0.00000   0.00000   0.00000   0.00000   3.14159
   DH1        0.00000   0.00000   0.00000   0.00000   0.00000   0.00000
   DH2       -3.14159   0.00000   0.00000   0.00000   0.00000  -3.14159
         Item               Value     Threshold  Converged?
 Maximum Force            0.000000     0.000450     YES
 RMS     Force            0.000000     0.000300     YES
 Maximum Displacement     0.000004     0.001800     YES
 RMS     Displacement     0.000001     0.001200     YES
 Predicted change in Energy=-7.187099D-14
 Optimization completed.
    -- Stationary point found.
                       ----------------------------
                       !   Optimized Parameters   !
                       ! (Angstroms and Degrees)  !
 ----------------------                            ----------------------
 !      Name          Value   Derivative information (Atomic Units)     !
 ------------------------------------------------------------------------
 !       RX          2.1939   -DE/DX =    0.0                           !
 !      RDUM         1.0      -DE/DX =    0.0                           !
 !       ROH         0.9572   -DE/DX =   -0.0193                        !
 !      ADUM        90.0      -DE/DX =   -0.0016                        !
 !      AHOA       127.74     -DE/DX =   -0.008                         !
 !       DOH       180.0      -DE/DX =    0.0                           !
 !       DD1         0.0      -DE/DX =    0.0                           !
 !       DD2       180.0      -DE/DX =    0.0                           !
 !       DH1         0.0      -DE/DX =    0.0                           !
 !       DH2      -180.0      -DE/DX =    0.0                           !
 ------------------------------------------------------------------------
 GradGradGradGradGradGradGradGradGradGradGradGradGradGradGradGradGradGrad

 ---------------------------------------------------------------------------------------------------
                            Z-MATRIX (ANGSTROMS AND DEGREES)
   CD    Cent   Atom    N1       Length/X        N2       Alpha/Y        N3        Beta/Z          J
 ---------------------------------------------------------------------------------------------------
      1      1  F       -1  -1.969300          2.053680          0.000070
      2      2  C       -1  -1.222250          0.944230          0.000030
      3      3  C       -1   0.140030          1.057400         -0.000020
      4      4  C       -1   0.927950         -0.123640         -0.000080
      5      5  C       -1   2.414660         -0.018650         -0.000010
      6      6  F       -1   3.007080         -1.234610         -0.000560
      7      7  F       -1   2.858290          0.654480         -1.086020
      8      8  F       -1   2.858270          0.653500          1.086650
      9      9  C       -1   0.306540         -1.341490         -0.000090
     10     10  N       -1  -1.054170         -1.389970         -0.000060
     11     11  C       -1  -1.930500         -0.312100          0.000000
     12     12  S       -1  -3.570980         -0.506610          0.000030
     13     13  H       -1   0.596860          2.043100         -0.000020
     14     14  H       -1   0.831760         -2.288990         -0.000150
     15     15  H       -1  -1.521480         -2.296390         -0.000090
     16         X       14   1.000000(    15)      9   90.000(    33)      4  180.000(    50)      0
     17         X       16   1.000000(    16)     14   90.000(    34)      9    0.000(    51)      0
     18     16  O       14   2.193894(    17)     16   90.000(    35)     17  180.000(    52)      0
     19     17  H       18   0.957200(    18)     14  127.740(    36)     16    0.000(    53)      0
     20     18  H       18   0.957200(    19)     14  127.740(    37)     16 -180.000(    54)      0
 ---------------------------------------------------------------------------------------------------
                         Z-Matrix orientation:                         
 ---------------------------------------------------------------------
 Center     Atomic      Atomic             Coordinates (Angstroms)
 Number     Number       Type             X           Y           Z
 ---------------------------------------------------------------------
      1          9           0       -1.969300    2.053680    0.000070
      2          6           0       -1.222250    0.944230    0.000030
      3          6           0        0.140030    1.057400   -0.000020
      4          6           0        0.927950   -0.123640   -0.000080
      5          6           0        2.414660   -0.018650   -0.000010
      6          9           0        3.007080   -1.234610   -0.000560
      7          9           0        2.858290    0.654480   -1.086020
      8          9           0        2.858270    0.653500    1.086650
      9          6           0        0.306540   -1.341490   -0.000090
     10          7           0       -1.054170   -1.389970   -0.000060
     11          6           0       -1.930500   -0.312100    0.000000
     12         16           0       -3.570980   -0.506610    0.000030
     13          1           0        0.596860    2.043100   -0.000020
     14          1           0        0.831760   -2.288990   -0.000150
     15          1           0       -1.521480   -2.296390   -0.000090
     16         -1           0       -0.042855   -2.773808   -0.000122
     17         -1           0       -0.527673   -1.899193   -0.000066
     18          8           0        1.895400   -4.207802   -0.000272
     19          1           0        1.517406   -5.087207   -0.000282
     20          1           0        2.841486   -4.353240   -0.000326
 ---------------------------------------------------------------------
                    Distance matrix (angstroms):
                    1          2          3          4          5
     1  F    0.000000
     2  C    1.337521   0.000000
     3  C    2.332777   1.366973   0.000000
     4  C    3.624194   2.400772   1.419744   0.000000
     5  C    4.849088   3.762214   2.516312   1.490413   0.000000
     6  F    5.964663   4.757581   3.670597   2.357337   1.352598
     7  F    5.142274   4.232525   2.954772   2.347541   1.352527
     8  F    5.142625   4.232719   2.955134   2.347566   1.352555
     9  C    4.087374   2.749857   2.404662   1.367227   2.488790
    10  N    3.563171   2.340244   2.723184   2.352104   3.730054
    11  C    2.366098   1.442215   2.482463   2.864656   4.355058
    12  S    3.020011   2.760701   4.027123   4.515201   6.005497
    13  H    2.566182   2.125247   1.086415   2.191890   2.748674
    14  H    5.167661   3.830492   3.417136   2.167485   2.767673
    15  H    4.373060   3.254406   3.742796   3.274225   4.547669
    16  X    5.197676   3.900613   3.835571   2.822384   3.691920
    17  X    4.207552   2.927028   3.031051   2.295959   3.491958
    18  O    7.358129   6.021891   5.550106   4.197182   4.221212
    19  H    7.946659   6.624496   6.297091   4.998445   5.147362
    20  H    8.012009   6.676612   6.047553   4.642321   4.355554
                    6          7          8          9         10
     6  F    0.000000
     7  F    2.183809   0.000000
     8  F    2.183834   2.172670   0.000000
     9  C    2.702654   3.416807   3.416477   0.000000
    10  N    4.064221   4.546034   4.545756   1.361573   0.000000
    11  C    5.023019   5.004620   5.004549   2.462517   1.389157
    12  S    6.618222   6.622926   6.622828   3.966382   2.667332
    13  H    4.068482   2.867355   2.868068   3.397019   3.809445
    14  H    2.417382   3.734964   3.734451   1.083334   2.089251
    15  H    4.651369   5.391592   5.391203   2.062399   1.019792
    16  X    3.416319   4.620495   4.619961   1.474318   1.713991
    17  X    3.596686   4.377818   4.377420   1.003466   0.732467
    18  O    3.174225   5.074229   5.073537   3.277228   4.079233
    19  H    4.130573   5.995312   5.994585   3.936571   4.503617
    20  H    3.123024   5.124088   5.123402   3.936571   4.894600
                   11         12         13         14         15
    11  C    0.000000
    12  S    1.651971   0.000000
    13  H    3.454637   4.885889   0.000000
    14  H    3.396789   4.749842   4.338454   0.000000
    15  H    2.026007   2.720986   4.828927   2.353252   0.000000
    16  X    3.102130   4.193788   4.859202   1.000000   1.553789
    17  X    2.118204   3.346790   4.099543   1.414214   1.070242
    18  O    5.460220   6.601525   6.384355   2.193894   3.915171
    19  H    5.889797   6.846425   7.189484   2.880994   4.125953
    20  H    6.253213   7.477719   6.778755   2.880994   4.823495
                   16         17         18         19         20
    16  X    0.000000
    17  X    1.000000   0.000000
    18  O    2.411052   3.346783   0.000000
    19  H    2.790381   3.787582   0.957200   0.000000
    20  H    3.288469   4.168163   0.957200   1.513901   0.000000
 Symmetry turned off by external request.
 Stoichiometry    C6H5F4NOS
 Framework group  C1[X(C6H5F4NOS)]
 Deg. of freedom    48
 Full point group                 C1      NOp   1
 Rotational constants (GHZ):      0.9311675      0.4010015      0.2949659

 **********************************************************************

            Population analysis using the SCF density.

 **********************************************************************

 Alpha  occ. eigenvalues --  -91.89324 -26.35635 -26.34868 -26.34865 -26.32311
 Alpha  occ. eigenvalues --  -20.59836 -15.67381 -11.52995 -11.36625 -11.35831
 Alpha  occ. eigenvalues --  -11.33981 -11.30085 -11.28703  -8.90422  -6.58755
 Alpha  occ. eigenvalues --   -6.58474  -6.58354  -1.72998  -1.63955  -1.63596
 Alpha  occ. eigenvalues --   -1.63390  -1.37932  -1.34118  -1.15742  -1.10682
 Alpha  occ. eigenvalues --   -1.01776  -0.95811  -0.91357  -0.86939  -0.83594
 Alpha  occ. eigenvalues --   -0.82585  -0.82268  -0.75622  -0.74629  -0.74361
 Alpha  occ. eigenvalues --   -0.72459  -0.71212  -0.70445  -0.70228  -0.68978
 Alpha  occ. eigenvalues --   -0.66451  -0.66362  -0.65052  -0.62856  -0.61848
 Alpha  occ. eigenvalues --   -0.61089  -0.58589  -0.57822  -0.53618  -0.51445
 Alpha  occ. eigenvalues --   -0.45250  -0.41950  -0.33045  -0.29813
 Alpha virt. eigenvalues --    0.05740   0.10296   0.17333   0.20368   0.25488
 Alpha virt. eigenvalues --    0.27235   0.27706   0.27841   0.31114   0.33167
 Alpha virt. eigenvalues --    0.35905   0.38035   0.41083   0.41948   0.43959
 Alpha virt. eigenvalues --    0.44433   0.48033   0.50957   0.55646   0.56766
 Alpha virt. eigenvalues --    0.57647   0.60969   0.62496   0.65578   0.68247
 Alpha virt. eigenvalues --    0.69094   0.74129   0.74296   0.75390   0.76701
 Alpha virt. eigenvalues --    0.78658   0.79092   0.84568   0.85704   0.88665
 Alpha virt. eigenvalues --    0.90534   0.91144   0.93574   0.96624   0.97753
 Alpha virt. eigenvalues --    1.00963   1.04280   1.05466   1.08326   1.08939
 Alpha virt. eigenvalues --    1.10291   1.11134   1.12629   1.13256   1.15197
 Alpha virt. eigenvalues --    1.16613   1.17351   1.19396   1.25449   1.29349
 Alpha virt. eigenvalues --    1.31874   1.32659   1.34549   1.34620   1.35912
 Alpha virt. eigenvalues --    1.37326   1.40361   1.41666   1.43557   1.43990
 Alpha virt. eigenvalues --    1.48153   1.48927   1.53168   1.54045   1.61687
 Alpha virt. eigenvalues --    1.62078   1.62833   1.64895   1.65443   1.66315
 Alpha virt. eigenvalues --    1.67844   1.68222   1.69074   1.70793   1.71638
 Alpha virt. eigenvalues --    1.73216   1.77462   1.77975   1.82560   1.88177
 Alpha virt. eigenvalues --    1.91080   1.93730   1.95043   1.99504   2.01226
 Alpha virt. eigenvalues --    2.02632   2.05689   2.07207   2.10481   2.11086
 Alpha virt. eigenvalues --    2.13390   2.13464   2.16682   2.20137   2.21743
 Alpha virt. eigenvalues --    2.23831   2.24817   2.25760   2.29732   2.31242
 Alpha virt. eigenvalues --    2.32280   2.33914   2.35925   2.36049   2.37135
 Alpha virt. eigenvalues --    2.39287   2.41373   2.44446   2.46882   2.47053
 Alpha virt. eigenvalues --    2.48493   2.53708   2.58942   2.62189   2.63294
 Alpha virt. eigenvalues --    2.66908   2.69622   2.76500   2.84529   2.85723
 Alpha virt. eigenvalues --    2.86129   2.91446   2.93378   2.94651   2.94709
 Alpha virt. eigenvalues --    3.01753   3.08591   3.11076   3.18753   3.23519
 Alpha virt. eigenvalues --    3.31278   3.38519   3.40055   3.44066   3.45788
 Alpha virt. eigenvalues --    3.50776   3.72749   4.05800   4.38930   4.41795
 Alpha virt. eigenvalues --    4.47336   4.49631   4.63654   4.68469   4.69721
 Alpha virt. eigenvalues --    4.83328   5.02954   5.16891   5.58651   6.03106
          Condensed to atoms (all electrons):
              1          2          3          4          5          6
     1  F    9.165716   0.265661  -0.033907   0.002234  -0.000015   0.000000
     2  C    0.265661   4.583697   0.565957  -0.024402   0.000980  -0.000019
     3  C   -0.033907   0.565957   5.068347   0.350226  -0.013509   0.002219
     4  C    0.002234  -0.024402   0.350226   5.231950   0.417205  -0.043893
     5  C   -0.000015   0.000980  -0.013509   0.417205   3.549851   0.288327
     6  F    0.000000  -0.000019   0.002219  -0.043893   0.288327   9.189833
     7  F    0.000000   0.000296   0.005109  -0.055812   0.283733  -0.030626
     8  F    0.000000   0.000295   0.005103  -0.055819   0.283741  -0.030627
     9  C    0.000118  -0.024319  -0.052138   0.585975  -0.019449   0.005565
    10  N    0.001389  -0.049947  -0.024859  -0.028931   0.001454   0.000225
    11  C   -0.041026   0.383706  -0.077409  -0.002551   0.000055   0.000001
    12  S    0.003575  -0.083648   0.001706  -0.000085   0.000006   0.000000
    13  H   -0.000262  -0.018238   0.369148  -0.030262  -0.000340   0.000037
    14  H    0.000000  -0.000156   0.001693  -0.018780   0.000084   0.003315
    15  H   -0.000019   0.003862  -0.000576   0.002307  -0.000016   0.000002
    16  O    0.000000   0.000000  -0.000003   0.000184   0.000080   0.000199
    17  H    0.000000   0.000000   0.000000  -0.000006  -0.000001   0.000011
    18  H    0.000000   0.000000   0.000000  -0.000019  -0.000002   0.000381
              7          8          9         10         11         12
     1  F    0.000000   0.000000   0.000118   0.001389  -0.041026   0.003575
     2  C    0.000296   0.000295  -0.024319  -0.049947   0.383706  -0.083648
     3  C    0.005109   0.005103  -0.052138  -0.024859  -0.077409   0.001706
     4  C   -0.055812  -0.055819   0.585975  -0.028931  -0.002551  -0.000085
     5  C    0.283733   0.283741  -0.019449   0.001454   0.000055   0.000006
     6  F   -0.030626  -0.030627   0.005565   0.000225   0.000001   0.000000
     7  F    9.206119  -0.033892   0.000487  -0.000006  -0.000002   0.000000
     8  F   -0.033892   9.206138   0.000484  -0.000006  -0.000002   0.000000
     9  C    0.000487   0.000484   4.808683   0.257972  -0.039356   0.003311
    10  N   -0.000006  -0.000006   0.257972   7.239029   0.215849  -0.104333
    11  C   -0.000002  -0.000002  -0.039356   0.215849   4.947164   0.439617
    12  S    0.000000   0.000000   0.003311  -0.104333   0.439617  15.977765
    13  H    0.000916   0.000913   0.002524  -0.000294   0.002660  -0.000060
    14  H    0.000063   0.000063   0.351787  -0.028216   0.000706  -0.000102
    15  H    0.000000   0.000000  -0.021743   0.310967  -0.018747   0.013881
    16  O    0.000000   0.000000  -0.006728   0.000025  -0.000003   0.000000
    17  H    0.000000   0.000000   0.000276  -0.000003   0.000000   0.000000
    18  H    0.000000   0.000000   0.000281  -0.000001   0.000000   0.000000
             13         14         15         16         17         18
     1  F   -0.000262   0.000000  -0.000019   0.000000   0.000000   0.000000
     2  C   -0.018238  -0.000156   0.003862   0.000000   0.000000   0.000000
     3  C    0.369148   0.001693  -0.000576  -0.000003   0.000000   0.000000
     4  C   -0.030262  -0.018780   0.002307   0.000184  -0.000006  -0.000019
     5  C   -0.000340   0.000084  -0.000016   0.000080  -0.000001  -0.000002
     6  F    0.000037   0.003315   0.000002   0.000199   0.000011   0.000381
     7  F    0.000916   0.000063   0.000000   0.000000   0.000000   0.000000
     8  F    0.000913   0.000063   0.000000   0.000000   0.000000   0.000000
     9  C    0.002524   0.351787  -0.021743  -0.006728   0.000276   0.000281
    10  N   -0.000294  -0.028216   0.310967   0.000025  -0.000003  -0.000001
    11  C    0.002660   0.000706  -0.018747  -0.000003   0.000000   0.000000
    12  S   -0.000060  -0.000102   0.013881   0.000000   0.000000   0.000000
    13  H    0.398102  -0.000050   0.000009   0.000000   0.000000   0.000000
    14  H   -0.000050   0.306551  -0.001214   0.013416  -0.000263  -0.000309
    15  H    0.000009  -0.001214   0.272843   0.000105  -0.000009  -0.000003
    16  O    0.000000   0.013416   0.000105   8.344684   0.264755   0.266487
    17  H    0.000000  -0.000263  -0.000009   0.264755   0.306828  -0.017076
    18  H    0.000000  -0.000309  -0.000003   0.266487  -0.017076   0.297448
 Mulliken atomic charges:
              1
     1  F   -0.363465
     2  C    0.396276
     3  C   -0.167107
     4  C   -0.329519
     5  C    1.207818
     6  F   -0.384949
     7  F   -0.376385
     8  F   -0.376390
     9  C    0.146271
    10  N   -0.790315
    11  C    0.189336
    12  S   -0.251634
    13  H    0.275198
    14  H    0.371414
    15  H    0.438351
    16  O   -0.883201
    17  H    0.445488
    18  H    0.452812
 Sum of Mulliken atomic charges =   0.00000
 Mulliken charges with hydrogens summed into heavy atoms:
              1
     1  F   -0.363465
     2  C    0.396276
     3  C    0.108091
     4  C   -0.329519
     5  C    1.207818
     6  F   -0.384949
     7  F   -0.376385
     8  F   -0.376390
     9  C    0.517685
    10  N   -0.351964
    11  C    0.189336
    12  S   -0.251634
    16  O    0.015099
 Sum of Mulliken charges with hydrogens summed into heavy atoms =   0.00000
 Electronic spatial extent (au):  <R**2>=           3433.5090
 Charge=              0.0000 electrons
 Dipole moment (field-independent basis, Debye):
    X=              5.1785    Y=             -5.2903    Z=             -0.0006  Tot=              7.4030
 Quadrupole moment (field-independent basis, Debye-Ang):
   XX=           -100.3420   YY=            -51.1971   ZZ=            -82.6136
   XY=             -7.1487   XZ=             -0.0009   YZ=              0.0016
 Traceless Quadrupole moment (field-independent basis, Debye-Ang):
   XX=            -22.2911   YY=             26.8538   ZZ=             -4.5627
   XY=             -7.1487   XZ=             -0.0009   YZ=              0.0016
 Octapole moment (field-independent basis, Debye-Ang**2):
  XXX=             96.7644  YYY=            -59.1696  ZZZ=              0.0048  XYY=             63.6477
  XXY=             -2.6562  XXZ=             -0.0029  XZZ=              3.2109  YZZ=             34.9501
  YYZ=             -0.0060  XYZ=              0.0038
 Hexadecapole moment (field-independent basis, Debye-Ang**3):
 XXXX=          -2760.5280 YYYY=           -359.3617 ZZZZ=           -143.7008 XXXY=             -7.9037
 XXXZ=              0.0050 YYYX=           -143.7739 YYYZ=              0.0223 ZZZX=              0.0122
 ZZZY=             -0.0319 XXYY=           -486.8581 XXZZ=           -473.6628 YYZZ=           -243.4050
 XXYZ=              0.0033 YYXZ=             -0.0106 ZZXY=             42.1736
 N-N= 9.188920045974D+02 E-N=-4.576541711747D+03  KE= 1.152561657954D+03
 1\1\GINC-B1\FOpt\RHF\6-31G(d)\C6H5F4N1O1S1\ANA\24-Sep-2021\1\\#HF/6-31
 G* Opt=Z-matrix NoSymm\\water interaction with atom H14\\0,1\F,-1,-1.9
 693,2.05368,0.00007\C,-1,-1.22225,0.94423,0.00003\C,-1,0.14003,1.0574,
 -0.00002\C,-1,0.92795,-0.12364,-0.00008\C,-1,2.41466,-0.01865,-0.00001
 \F,-1,3.00708,-1.23461,-0.00056\F,-1,2.85829,0.65448,-1.08602\F,-1,2.8
 5827,0.6535,1.08665\C,-1,0.30654,-1.34149,-0.00009\N,-1,-1.05417,-1.38
 997,-0.00006\C,-1,-1.9305,-0.3121,0.\S,-1,-3.57098,-0.50661,0.00003\H,
 -1,0.59686,2.0431,-0.00002\H,-1,0.83176,-2.28899,-0.00015\H,-1,-1.5214
 8,-2.29639,-0.00009\X,14,RDUM,9,ADUM,4,DOH,0\X,16,RDUM,14,ADUM,9,DD1,0
 \O,14,RX,16,ADUM,17,DD2,0\H,18,ROH,14,AHOA,16,DH1,0\H,18,ROH,14,AHOA,1
 6,DH2,0\\RX=2.1938938\RDUM=1.\ROH=0.9572\ADUM=90.\AHOA=127.74\DOH=180.
 \DD1=0.\DD2=180.\DH1=0.\DH2=-180.\\Version=EM64L-G09RevA.01\HF=-1154.6
 811497\RMSD=5.765e-09\RMSF=2.844e-03\Dipole=2.0373985,-2.0813785,-0.00
 0229\Quadrupole=-16.5729204,19.9651673,-3.3922469,-5.3149109,-0.000679
 8,0.001202\PG=C01 [X(C6H5F4N1O1S1)]\\@


 WERE I TO AWAIT PERFECTION, MY BOOK WOULD NEVER BE FINISHED.
                                    -- HISTORY OF CHINESE WRITING

                                       TAI T'UNG, 13TH CENTURY
 Job cpu time:  0 days  0 hours  3 minutes 34.9 seconds.
 File lengths (MBytes):  RWF=     33 Int=      0 D2E=      0 Chk=      3 Scr=      1
 Normal termination of Gaussian 09 at Fri Sep 24 08:28:01 2021.
