 Entering Gaussian System, Link 0=g16
 Initial command:
 /home/alexey/programs//g16/l1.exe "/home/alexey/tmp/Gau-1490831.inp" -scrdir="/home/alexey/tmp/"
 Entering Link 1 = /home/alexey/programs//g16/l1.exe PID=   1490833.
  
 Copyright (c) 1988-2021, Gaussian, Inc.  All Rights Reserved.
  
 This is part of the Gaussian(R) 16 program.  It is based on
 the Gaussian(R) 09 system (copyright 2009, Gaussian, Inc.),
 the Gaussian(R) 03 system (copyright 2003, Gaussian, Inc.),
 the Gaussian(R) 98 system (copyright 1998, Gaussian, Inc.),
 the Gaussian(R) 94 system (copyright 1995, Gaussian, Inc.),
 the Gaussian 92(TM) system (copyright 1992, Gaussian, Inc.),
 the Gaussian 90(TM) system (copyright 1990, Gaussian, Inc.),
 the Gaussian 88(TM) system (copyright 1988, Gaussian, Inc.),
 the Gaussian 86(TM) system (copyright 1986, Carnegie Mellon
 University), and the Gaussian 82(TM) system (copyright 1983,
 Carnegie Mellon University). Gaussian is a federally registered
 trademark of Gaussian, Inc.
  
 This software contains proprietary and confidential information,
 including trade secrets, belonging to Gaussian, Inc.
  
 This software is provided under written license and may be
 used, copied, transmitted, or stored only in accord with that
 written license.
  
 The following legend is applicable only to US Government
 contracts under FAR:
  
                    RESTRICTED RIGHTS LEGEND
  
 Use, reproduction and disclosure by the US Government is
 subject to restrictions as set forth in subparagraphs (a)
 and (c) of the Commercial Computer Software - Restricted
 Rights clause in FAR 52.227-19.
  
 Gaussian, Inc.
 340 Quinnipiac St., Bldg. 40, Wallingford CT 06492
  
  
 ---------------------------------------------------------------
 Warning -- This program may not be used in any manner that
 competes with the business of Gaussian, Inc. or will provide
 assistance to any competitor of Gaussian, Inc.  The licensee
 of this program is prohibited from giving any competitor of
 Gaussian, Inc. access to this program.  By using this program,
 the user acknowledges that Gaussian, Inc. is engaged in the
 business of creating and licensing software in the field of
 computational chemistry and represents and warrants to the
 licensee that it is not a competitor of Gaussian, Inc. and that
 it will not use this program in any manner prohibited above.
 ---------------------------------------------------------------
  

 Cite this work as:
 Gaussian 16, Revision C.02,
 M. J. Frisch, G. W. Trucks, H. B. Schlegel, G. E. Scuseria, 
 M. A. Robb, J. R. Cheeseman, G. Scalmani, V. Barone, 
 G. A. Petersson, H. Nakatsuji, X. Li, M. Caricato, A. V. Marenich, 
 J. Bloino, B. G. Janesko, R. Gomperts, B. Mennucci, H. P. Hratchian, 
 J. V. Ortiz, A. F. Izmaylov, J. L. Sonnenberg, D. Williams-Young, 
 F. Ding, F. Lipparini, F. Egidi, J. Goings, B. Peng, A. Petrone, 
 T. Henderson, D. Ranasinghe, V. G. Zakrzewski, J. Gao, N. Rega, 
 G. Zheng, W. Liang, M. Hada, M. Ehara, K. Toyota, R. Fukuda, 
 J. Hasegawa, M. Ishida, T. Nakajima, Y. Honda, O. Kitao, H. Nakai, 
 T. Vreven, K. Throssell, J. A. Montgomery, Jr., J. E. Peralta, 
 F. Ogliaro, M. J. Bearpark, J. J. Heyd, E. N. Brothers, K. N. Kudin, 
 V. N. Staroverov, T. A. Keith, R. Kobayashi, J. Normand, 
 K. Raghavachari, A. P. Rendell, J. C. Burant, S. S. Iyengar, 
 J. Tomasi, M. Cossi, J. M. Millam, M. Klene, C. Adamo, R. Cammi, 
 J. W. Ochterski, R. L. Martin, K. Morokuma, O. Farkas, 
 J. B. Foresman, and D. J. Fox, Gaussian, Inc., Wallingford CT, 2019.
 
 ******************************************
 Gaussian 16:  ES64L-G16RevC.02  7-Dec-2021
                 2-Jul-2023 
 ******************************************
 %mem=8GB
 %NPROCS=4
 Will use up to    4 processors via shared memory.
 %NoSave
 ---------------------------------------------------------
 #MP2/6-31G* SCF=Tight Opt=(ModRedun, MaxCycle=20 ) NoSymm
 ---------------------------------------------------------
 1/6=20,18=120,19=15,38=1/1,3;
 2/9=110,12=2,15=1,17=6,18=5,40=1/2;
 3/5=1,6=6,7=1,11=9,25=1,30=1,71=1/1,2,3;
 4//1;
 5/5=2,32=2,38=5/2;
 8/6=4,10=2/1;
 9/15=2,16=-3/6;
 10/5=1,31=1/2;
 6/7=2,8=2,9=2,10=2/1;
 7/12=2,30=1/1,2,3,16;
 1/6=20,18=20,19=15/3(2);
 2/9=110,15=1/2;
 99//99;
 2/9=110,15=1/2;
 3/5=1,6=6,7=1,11=9,25=1,30=1,71=1/1,2,3;
 4/5=5,16=3,69=1/1;
 5/5=2,32=2,38=5/2;
 8/6=4,10=2/1;
 9/15=2,16=-3/6;
 10/5=1,31=1/2;
 7/12=2,30=1/1,2,3,16;
 1/6=20,18=20,19=15/3(-8);
 2/9=110,15=1/2;
 6/7=2,8=2,9=2,10=2/1;
 99/9=10/99;
 --------
 MolName:
 --------
 Symbolic Z-matrix:
 Charge =  0 Multiplicity = 1
 8                    0    -3.6505   -1.32311  -0.501 
 7                    0    -3.23071  -0.17652  -0.35448 
 8                    0    -3.94098   0.82449  -0.45918 
 6                    0    -1.73793   0.00666  -0.06109 
 6                    0    -1.34129   1.30801   0.26897 
 7                    0    -0.07999   1.71039   0.61135 
 6                    0     1.20477   0.97146   0.46506 
 1                    0     1.92256   1.47722   1.16243 
 6                    0     1.85153   1.04067  -0.94083 
 6                    0     3.2849    0.48025  -0.87164 
 6                    0     3.29739  -0.938    -0.27923 
 6                    0     2.55943  -0.98889   1.07611 
 6                    0     1.09767  -0.47935   0.94709 
 1                    0     0.62677  -0.52621   1.95701 
 7                    0     0.37832  -1.3706    0.03535 
 6                    0    -0.88915  -1.21549  -0.16769 
 1                    0    -2.10896   2.09938   0.28123 
 1                    0     0.15464   2.7056    0.63861 
 1                    0     1.24998   0.45437  -1.6677 
 1                    0     1.88654   2.09298  -1.29449 
 1                    0     3.73668   0.46786  -1.88767 
 1                    0     3.90582   1.1431   -0.22853 
 1                    0     2.80131  -1.63343  -0.99341 
 1                    0     4.346    -1.28402  -0.14942 
 1                    0     2.55111  -2.03639   1.44943 
 1                    0     3.10501  -0.36964   1.81854 
 1                    0    -1.42193  -2.0768   -0.5978 
 
 The following ModRedundant input section has been read:
 D       5       4      16      15 F                                           
 D       1       2       4      16 F                                           
 D       7      13      15      16 F                                           
 D       7       9      10      11 F                                           
 D       9      10      11      12 F                                           
 D       6       7      13      15 F                                           
 

 GradGradGradGradGradGradGradGradGradGradGradGradGradGradGradGradGradGrad
 Berny optimization.
 Initialization pass.
                           ----------------------------
                           !    Initial Parameters    !
                           ! (Angstroms and Degrees)  !
 --------------------------                            --------------------------
 ! Name  Definition              Value          Derivative Info.                !
 --------------------------------------------------------------------------------
 ! R1    R(1,2)                  1.2298         estimate D2E/DX2                !
 ! R2    R(2,3)                  1.2319         estimate D2E/DX2                !
 ! R3    R(2,4)                  1.5323         estimate D2E/DX2                !
 ! R4    R(4,5)                  1.3999         estimate D2E/DX2                !
 ! R5    R(4,16)                 1.4918         estimate D2E/DX2                !
 ! R6    R(5,6)                  1.3675         estimate D2E/DX2                !
 ! R7    R(5,17)                 1.1026         estimate D2E/DX2                !
 ! R8    R(6,7)                  1.4893         estimate D2E/DX2                !
 ! R9    R(6,18)                 1.0229         estimate D2E/DX2                !
 ! R10   R(7,8)                  1.1213         estimate D2E/DX2                !
 ! R11   R(7,9)                  1.5491         estimate D2E/DX2                !
 ! R12   R(7,13)                 1.5325         estimate D2E/DX2                !
 ! R13   R(9,10)                 1.5406         estimate D2E/DX2                !
 ! R14   R(9,19)                 1.1108         estimate D2E/DX2                !
 ! R15   R(9,20)                 1.1107         estimate D2E/DX2                !
 ! R16   R(10,11)                1.5371         estimate D2E/DX2                !
 ! R17   R(10,21)                1.112          estimate D2E/DX2                !
 ! R18   R(10,22)                1.1129         estimate D2E/DX2                !
 ! R19   R(11,12)                1.5441         estimate D2E/DX2                !
 ! R20   R(11,23)                1.1135         estimate D2E/DX2                !
 ! R21   R(11,24)                1.1118         estimate D2E/DX2                !
 ! R22   R(12,13)                1.5534         estimate D2E/DX2                !
 ! R23   R(12,25)                1.1121         estimate D2E/DX2                !
 ! R24   R(12,26)                1.1101         estimate D2E/DX2                !
 ! R25   R(13,14)                1.1153         estimate D2E/DX2                !
 ! R26   R(13,15)                1.4639         estimate D2E/DX2                !
 ! R27   R(15,16)                1.293          estimate D2E/DX2                !
 ! R28   R(16,27)                1.1003         estimate D2E/DX2                !
 ! A1    A(1,2,3)              123.4142         estimate D2E/DX2                !
 ! A2    A(1,2,4)              117.8276         estimate D2E/DX2                !
 ! A3    A(3,2,4)              118.7401         estimate D2E/DX2                !
 ! A4    A(2,4,5)              115.6128         estimate D2E/DX2                !
 ! A5    A(2,4,16)             116.274          estimate D2E/DX2                !
 ! A6    A(5,4,16)             128.1125         estimate D2E/DX2                !
 ! A7    A(4,5,6)              126.4336         estimate D2E/DX2                !
 ! A8    A(4,5,17)             118.1999         estimate D2E/DX2                !
 ! A9    A(6,5,17)             115.3532         estimate D2E/DX2                !
 ! A10   A(5,6,7)              128.6885         estimate D2E/DX2                !
 ! A11   A(5,6,18)             120.301          estimate D2E/DX2                !
 ! A12   A(7,6,18)             106.7073         estimate D2E/DX2                !
 ! A13   A(6,7,8)              105.506          estimate D2E/DX2                !
 ! A14   A(6,7,9)              115.287          estimate D2E/DX2                !
 ! A15   A(6,7,13)             112.2419         estimate D2E/DX2                !
 ! A16   A(8,7,9)              106.0825         estimate D2E/DX2                !
 ! A17   A(8,7,13)             106.0282         estimate D2E/DX2                !
 ! A18   A(9,7,13)             110.9119         estimate D2E/DX2                !
 ! A19   A(7,9,10)             109.3565         estimate D2E/DX2                !
 ! A20   A(7,9,19)             110.1322         estimate D2E/DX2                !
 ! A21   A(7,9,20)             110.1495         estimate D2E/DX2                !
 ! A22   A(10,9,19)            109.9519         estimate D2E/DX2                !
 ! A23   A(10,9,20)            109.2457         estimate D2E/DX2                !
 ! A24   A(19,9,20)            107.9853         estimate D2E/DX2                !
 ! A25   A(9,10,11)            111.1323         estimate D2E/DX2                !
 ! A26   A(9,10,21)            109.9388         estimate D2E/DX2                !
 ! A27   A(9,10,22)            109.1714         estimate D2E/DX2                !
 ! A28   A(11,10,21)           109.7897         estimate D2E/DX2                !
 ! A29   A(11,10,22)           108.8033         estimate D2E/DX2                !
 ! A30   A(21,10,22)           107.9363         estimate D2E/DX2                !
 ! A31   A(10,11,12)           111.3977         estimate D2E/DX2                !
 ! A32   A(10,11,23)           108.9937         estimate D2E/DX2                !
 ! A33   A(10,11,24)           109.8662         estimate D2E/DX2                !
 ! A34   A(12,11,23)           109.2381         estimate D2E/DX2                !
 ! A35   A(12,11,24)           109.7562         estimate D2E/DX2                !
 ! A36   A(23,11,24)           107.5003         estimate D2E/DX2                !
 ! A37   A(11,12,13)           111.4708         estimate D2E/DX2                !
 ! A38   A(11,12,25)           109.2257         estimate D2E/DX2                !
 ! A39   A(11,12,26)           109.4982         estimate D2E/DX2                !
 ! A40   A(13,12,25)           109.2576         estimate D2E/DX2                !
 ! A41   A(13,12,26)           109.5754         estimate D2E/DX2                !
 ! A42   A(25,12,26)           107.7345         estimate D2E/DX2                !
 ! A43   A(7,13,12)            105.7171         estimate D2E/DX2                !
 ! A44   A(7,13,14)            110.738          estimate D2E/DX2                !
 ! A45   A(7,13,15)            114.5062         estimate D2E/DX2                !
 ! A46   A(12,13,14)           107.9582         estimate D2E/DX2                !
 ! A47   A(12,13,15)           108.3263         estimate D2E/DX2                !
 ! A48   A(14,13,15)           109.3241         estimate D2E/DX2                !
 ! A49   A(13,15,16)           120.4285         estimate D2E/DX2                !
 ! A50   A(4,16,15)            130.1512         estimate D2E/DX2                !
 ! A51   A(4,16,27)            113.1868         estimate D2E/DX2                !
 ! A52   A(15,16,27)           116.2401         estimate D2E/DX2                !
 ! D1    D(1,2,4,5)           -172.0102         estimate D2E/DX2                !
 ! D2    D(1,2,4,16)             8.2588         Frozen                          !
 ! D3    D(3,2,4,5)              9.4842         estimate D2E/DX2                !
 ! D4    D(3,2,4,16)          -170.2468         estimate D2E/DX2                !
 ! D5    D(2,4,5,6)            177.7514         estimate D2E/DX2                !
 ! D6    D(2,4,5,17)            -0.8599         estimate D2E/DX2                !
 ! D7    D(16,4,5,6)            -2.5552         estimate D2E/DX2                !
 ! D8    D(16,4,5,17)          178.8335         estimate D2E/DX2                !
 ! D9    D(2,4,16,15)         -178.9936         estimate D2E/DX2                !
 ! D10   D(2,4,16,27)            8.862          estimate D2E/DX2                !
 ! D11   D(5,4,16,15)            1.3147         Frozen                          !
 ! D12   D(5,4,16,27)         -170.8297         estimate D2E/DX2                !
 ! D13   D(4,5,6,7)             13.2806         estimate D2E/DX2                !
 ! D14   D(4,5,6,18)           166.733          estimate D2E/DX2                !
 ! D15   D(17,5,6,7)          -168.0737         estimate D2E/DX2                !
 ! D16   D(17,5,6,18)          -14.6213         estimate D2E/DX2                !
 ! D17   D(5,6,7,8)           -161.1367         estimate D2E/DX2                !
 ! D18   D(5,6,7,9)             82.1825         estimate D2E/DX2                !
 ! D19   D(5,6,7,13)           -46.1107         estimate D2E/DX2                !
 ! D20   D(18,6,7,8)            42.6223         estimate D2E/DX2                !
 ! D21   D(18,6,7,9)           -74.0585         estimate D2E/DX2                !
 ! D22   D(18,6,7,13)          157.6483         estimate D2E/DX2                !
 ! D23   D(6,7,9,10)           168.9029         estimate D2E/DX2                !
 ! D24   D(6,7,9,19)           -70.1668         estimate D2E/DX2                !
 ! D25   D(6,7,9,20)            48.8336         estimate D2E/DX2                !
 ! D26   D(8,7,9,10)            52.549          estimate D2E/DX2                !
 ! D27   D(8,7,9,19)           173.4793         estimate D2E/DX2                !
 ! D28   D(8,7,9,20)           -67.5203         estimate D2E/DX2                !
 ! D29   D(13,7,9,10)          -62.1456         estimate D2E/DX2                !
 ! D30   D(13,7,9,19)           58.7847         estimate D2E/DX2                !
 ! D31   D(13,7,9,20)          177.7851         estimate D2E/DX2                !
 ! D32   D(6,7,13,12)         -165.8167         estimate D2E/DX2                !
 ! D33   D(6,7,13,14)          -49.1347         estimate D2E/DX2                !
 ! D34   D(6,7,13,15)           75.0225         Frozen                          !
 ! D35   D(8,7,13,12)          -51.1088         estimate D2E/DX2                !
 ! D36   D(8,7,13,14)           65.5731         estimate D2E/DX2                !
 ! D37   D(8,7,13,15)         -170.2696         estimate D2E/DX2                !
 ! D38   D(9,7,13,12)           63.6197         estimate D2E/DX2                !
 ! D39   D(9,7,13,14)         -179.6983         estimate D2E/DX2                !
 ! D40   D(9,7,13,15)          -55.541          estimate D2E/DX2                !
 ! D41   D(7,9,10,11)           54.8123         Frozen                          !
 ! D42   D(7,9,10,21)          176.5706         estimate D2E/DX2                !
 ! D43   D(7,9,10,22)          -65.203          estimate D2E/DX2                !
 ! D44   D(19,9,10,11)         -66.2275         estimate D2E/DX2                !
 ! D45   D(19,9,10,21)          55.5309         estimate D2E/DX2                !
 ! D46   D(19,9,10,22)         173.7572         estimate D2E/DX2                !
 ! D47   D(20,9,10,11)         175.4343         estimate D2E/DX2                !
 ! D48   D(20,9,10,21)         -62.8074         estimate D2E/DX2                !
 ! D49   D(20,9,10,22)          55.419          estimate D2E/DX2                !
 ! D50   D(9,10,11,12)         -52.8226         Frozen                          !
 ! D51   D(9,10,11,23)          67.784          estimate D2E/DX2                !
 ! D52   D(9,10,11,24)        -174.6661         estimate D2E/DX2                !
 ! D53   D(21,10,11,12)       -174.6678         estimate D2E/DX2                !
 ! D54   D(21,10,11,23)        -54.0611         estimate D2E/DX2                !
 ! D55   D(21,10,11,24)         63.4887         estimate D2E/DX2                !
 ! D56   D(22,10,11,12)         67.411          estimate D2E/DX2                !
 ! D57   D(22,10,11,23)       -171.9823         estimate D2E/DX2                !
 ! D58   D(22,10,11,24)        -54.4325         estimate D2E/DX2                !
 ! D59   D(10,11,12,13)         56.6875         estimate D2E/DX2                !
 ! D60   D(10,11,12,25)        177.5186         estimate D2E/DX2                !
 ! D61   D(10,11,12,26)        -64.7254         estimate D2E/DX2                !
 ! D62   D(23,11,12,13)        -63.7755         estimate D2E/DX2                !
 ! D63   D(23,11,12,25)         57.0556         estimate D2E/DX2                !
 ! D64   D(23,11,12,26)        174.8115         estimate D2E/DX2                !
 ! D65   D(24,11,12,13)        178.5947         estimate D2E/DX2                !
 ! D66   D(24,11,12,25)        -60.5741         estimate D2E/DX2                !
 ! D67   D(24,11,12,26)         57.1818         estimate D2E/DX2                !
 ! D68   D(11,12,13,7)         -60.5938         estimate D2E/DX2                !
 ! D69   D(11,12,13,14)       -179.1419         estimate D2E/DX2                !
 ! D70   D(11,12,13,15)         62.5769         estimate D2E/DX2                !
 ! D71   D(25,12,13,7)         178.5937         estimate D2E/DX2                !
 ! D72   D(25,12,13,14)         60.0456         estimate D2E/DX2                !
 ! D73   D(25,12,13,15)        -58.2355         estimate D2E/DX2                !
 ! D74   D(26,12,13,7)          60.7742         estimate D2E/DX2                !
 ! D75   D(26,12,13,14)        -57.7739         estimate D2E/DX2                !
 ! D76   D(26,12,13,15)       -176.055          estimate D2E/DX2                !
 ! D77   D(7,13,15,16)         -67.1612         Frozen                          !
 ! D78   D(12,13,15,16)        175.1542         estimate D2E/DX2                !
 ! D79   D(14,13,15,16)         57.7453         estimate D2E/DX2                !
 ! D80   D(13,15,16,4)          26.4143         estimate D2E/DX2                !
 ! D81   D(13,15,16,27)       -161.6376         estimate D2E/DX2                !
 --------------------------------------------------------------------------------
 Trust Radius=3.00D-01 FncErr=1.00D-07 GrdErr=1.00D-07 EigMax=2.50D+02 EigMin=1.00D-04
 Number of steps in this run=     20 maximum allowed number of steps=    162.
 GradGradGradGradGradGradGradGradGradGradGradGradGradGradGradGradGradGrad

                          Input orientation:                          
 ---------------------------------------------------------------------
 Center     Atomic      Atomic             Coordinates (Angstroms)
 Number     Number       Type             X           Y           Z
 ---------------------------------------------------------------------
      1          8           0       -3.650500   -1.323110   -0.501000
      2          7           0       -3.230710   -0.176520   -0.354480
      3          8           0       -3.940980    0.824490   -0.459180
      4          6           0       -1.737930    0.006660   -0.061090
      5          6           0       -1.341290    1.308010    0.268970
      6          7           0       -0.079990    1.710390    0.611350
      7          6           0        1.204770    0.971460    0.465060
      8          1           0        1.922560    1.477220    1.162430
      9          6           0        1.851530    1.040670   -0.940830
     10          6           0        3.284900    0.480250   -0.871640
     11          6           0        3.297390   -0.938000   -0.279230
     12          6           0        2.559430   -0.988890    1.076110
     13          6           0        1.097670   -0.479350    0.947090
     14          1           0        0.626770   -0.526210    1.957010
     15          7           0        0.378320   -1.370600    0.035350
     16          6           0       -0.889150   -1.215490   -0.167690
     17          1           0       -2.108960    2.099380    0.281230
     18          1           0        0.154640    2.705600    0.638610
     19          1           0        1.249980    0.454370   -1.667700
     20          1           0        1.886540    2.092980   -1.294490
     21          1           0        3.736680    0.467860   -1.887670
     22          1           0        3.905820    1.143100   -0.228530
     23          1           0        2.801310   -1.633430   -0.993410
     24          1           0        4.346000   -1.284020   -0.149420
     25          1           0        2.551110   -2.036390    1.449430
     26          1           0        3.105010   -0.369640    1.818540
     27          1           0       -1.421930   -2.076800   -0.597800
 ---------------------------------------------------------------------
                    Distance matrix (angstroms):
                    1          2          3          4          5
     1  O    0.000000
     2  N    1.229781   0.000000
     3  O    2.167559   1.231855   0.000000
     4  C    2.370598   1.532327   2.383433   0.000000
     5  C    3.584424   2.482424   2.742696   1.399920   0.000000
     6  N    4.815391   3.797406   4.103425   2.470554   1.367484
     7  C    5.456370   4.654351   5.230159   3.141203   2.575682
     8  H    6.455064   5.620682   6.118560   4.130222   3.388159
     9  C    6.004435   5.258757   5.816519   3.837622   3.424790
    10  C    7.175601   6.569016   7.245824   5.109804   4.836095
    11  C    6.962088   6.572793   7.452030   5.127808   5.182898
    12  C    6.415778   6.019323   6.921040   4.555398   4.598135
    13  C    5.035277   4.529974   5.391251   3.048485   3.098875
    14  H    4.997189   4.510590   5.341040   3.154122   3.176020
    15  N    4.064642   3.821373   4.870250   2.526788   3.191644
    16  C    2.783475   2.568512   3.682411   1.491791   2.600607
    17  H    3.834275   2.615754   2.351563   2.152748   1.102603
    18  H    5.657588   4.555594   4.638731   3.369819   2.080312
    19  H    5.341847   4.711598   5.342619   3.421878   3.345754
    20  H    6.554244   5.676310   6.022192   4.360136   3.671440
    21  H    7.726633   7.163129   7.817559   5.789685   5.580567
    22  H    7.953264   7.258603   7.856652   5.759466   5.273221
    23  H    6.478010   6.238276   7.196197   4.915670   5.235151
    24  H    8.004321   7.659970   8.556623   6.219957   6.264099
    25  H    6.540100   6.335823   7.346745   4.985137   5.265859
    26  H    7.205990   6.700795   7.500662   5.208520   4.998526
    27  H    2.354558   2.634759   3.844777   2.174562   3.494958
                    6          7          8          9         10
     6  N    0.000000
     7  C    1.489304   0.000000
     8  H    2.090039   1.121312   0.000000
     9  C    2.566818   1.549069   2.149261   0.000000
    10  C    3.877498   2.520912   2.643362   1.540587   0.000000
    11  C    4.383355   2.929004   3.130787   2.538378   1.537055
    12  C    3.803768   2.459971   2.548481   2.947589   2.545272
    13  C    2.508897   1.532538   2.134240   2.538308   3.002097
    14  H    2.704199   2.191578   2.514788   3.514630   4.009972
    15  N    3.167700   2.520499   3.430024   2.989565   3.563213
    16  C    3.134074   3.093158   4.114076   3.633088   4.560019
    17  H    2.092131   3.505254   4.173338   4.277824   5.748427
    18  H    1.022857   2.034732   2.215592   2.854130   4.126932
    19  H    2.922409   2.195015   3.083540   1.110833   2.185242
    20  H    2.765111   2.195139   2.533163   1.110701   2.176031
    21  H    4.728208   3.492781   3.689573   2.185957   1.112014
    22  H    4.112651   2.793957   2.445348   2.176688   1.112880
    23  H    4.696624   3.385488   3.885356   2.838249   2.171711
    24  H    5.397652   3.915623   3.901084   3.500413   2.181784
    25  H    4.654399   3.439299   3.580908   3.958668   3.501327
    26  H    3.990997   2.690979   2.289009   3.342800   2.826967
    27  H    4.195909   4.161864   5.187975   4.533413   5.363557
                   11         12         13         14         15
    11  C    0.000000
    12  C    1.544060   0.000000
    13  C    2.559881   1.553390   0.000000
    14  H    3.507499   2.173760   1.115294   0.000000
    15  N    2.967671   2.446656   1.463920   2.113646   0.000000
    16  C    4.197208   3.673022   2.394178   2.699532   1.292967
    17  H    6.226429   5.653593   4.168416   4.145622   4.276421
    18  H    4.898482   4.429862   3.335921   3.522170   4.126665
    19  H    2.838738   3.365435   2.780676   3.806370   2.643991
    20  H    3.494008   3.945941   3.501982   4.361127   4.004945
    21  H    2.180940   3.505999   3.987160   5.043935   4.284451
    22  H    2.168810   2.839055   3.449657   4.279644   4.339536
    23  H    1.113450   2.181021   2.828397   3.828778   2.645431
    24  H    1.111829   2.186517   3.521573   4.340967   3.972923
    25  H    2.179830   1.112067   2.188426   2.498273   2.676549
    26  H    2.181899   1.110104   2.191090   2.487039   3.408302
    27  H    4.865217   4.453847   3.359601   3.623335   2.034821
                   16         17         18         19         20
    16  C    0.000000
    17  H    3.560594   0.000000
    18  H    4.136975   2.370466   0.000000
    19  H    3.100700   4.217448   3.403949   0.000000
    20  H    4.463195   4.294992   2.666769   1.797091   0.000000
    21  H    5.214432   6.444959   4.921441   2.496447   2.532962
    22  H    5.344005   6.111621   4.155080   3.098233   2.473062
    23  H    3.804732   6.298359   5.338121   2.687043   3.848842
    24  H    5.235630   7.300641   5.839996   3.861672   4.331773
    25  H    3.889003   6.339206   5.374660   4.196823   5.002244
    26  H    4.540252   5.970332   4.421993   4.034104   4.152123
    27  H    1.100320   4.322636   5.185136   3.832833   5.368279
                   21         22         23         24         25
    21  H    0.000000
    22  H    1.799251   0.000000
    23  H    2.467800   3.084494   0.000000
    24  H    2.542020   2.467981   1.794568   0.000000
    25  H    4.337405   3.841867   2.488462   2.518732   0.000000
    26  H    3.851806   2.668366   3.097816   2.499803   1.794743
    27  H    5.894940   6.236107   4.264838   5.839397   4.469657
                   26         27
    26  H    0.000000
    27  H    5.407983   0.000000
 Symmetry turned off by external request.
 Stoichiometry    C9H13N3O2
 Framework group  C1[X(C9H13N3O2)]
 Deg. of freedom    75
 Full point group                 C1      NOp   1
 Rotational constants (GHZ):           1.6211305           0.4019192           0.3593047
 Standard basis: 6-31G(d) (6D, 7F)
   236 basis functions,   444 primitive gaussians,   236 cartesian basis functions
    52 alpha electrons       52 beta electrons
       nuclear repulsion energy       917.2419776106 Hartrees.
 NAtoms=   27 NActive=   27 NUniq=   27 SFac= 1.00D+00 NAtFMM=   60 NAOKFM=F Big=F
 Integral buffers will be    131072 words long.
 Raffenetti 1 integral format.
 Two-electron integral symmetry is turned off.
 One-electron integrals computed using PRISM.
 NBasis=   236 RedAO= T EigKep=  1.26D-03  NBF=   236
 NBsUse=   236 1.00D-06 EigRej= -1.00D+00 NBFU=   236
 ExpMin= 1.61D-01 ExpMax= 5.48D+03 ExpMxC= 8.25D+02 IAcc=3 IRadAn=         5 AccDes= 0.00D+00
 Harris functional with IExCor=  205 and IRadAn=       5 diagonalized for initial guess.
 HarFok:  IExCor=  205 AccDes= 0.00D+00 IRadAn=         5 IDoV= 1 UseB2=F ITyADJ=14
 ICtDFT=  3500011 ScaDFX=  1.000000  1.000000  1.000000  1.000000
 FoFCou: FMM=F IPFlag=           0 FMFlag=      100000 FMFlg1=           0
         NFxFlg=           0 DoJE=T BraDBF=F KetDBF=T FulRan=T
         wScrn=  0.000000 ICntrl=       500 IOpCl=  0 I1Cent=   200000004 NGrid=           0
         NMat0=    1 NMatS0=      1 NMatT0=    0 NMatD0=    1 NMtDS0=    0 NMtDT0=    0
 Symmetry not used in FoFCou.
 Keep R1 ints in memory in canonical form, NReq=397720213.
 Requested convergence on RMS density matrix=1.00D-08 within 128 cycles.
 Requested convergence on MAX density matrix=1.00D-06.
 Requested convergence on             energy=1.00D-06.
 No special actions if energy rises.
 SCF Done:  E(RHF) =  -661.278144066     A.U. after   16 cycles
            NFock= 16  Conv=0.70D-08     -V/T= 2.0037
 ExpMin= 1.61D-01 ExpMax= 5.48D+03 ExpMxC= 8.25D+02 IAcc=3 IRadAn=         5 AccDes= 0.00D+00
 HarFok:  IExCor=  205 AccDes= 0.00D+00 IRadAn=         5 IDoV=-2 UseB2=F ITyADJ=14
 ICtDFT= 12500011 ScaDFX=  1.000000  1.000000  1.000000  1.000000
 Range of M.O.s used for correlation:    15   236
 NBasis=   236 NAE=    52 NBE=    52 NFC=    14 NFV=     0
 NROrb=    222 NOA=    38 NOB=    38 NVA=   184 NVB=   184
 Fully direct method using O(ONN) memory.
 JobTyp=1 Pass  1:  I=  15 to  52 NPSUse=  4 ParTrn=T ParDer=T DoDerP=T.
 Spin components of T(2) and E(2):
     alpha-alpha T2 =       0.9212518812D-01 E2=     -0.2719466951D+00
     alpha-beta  T2 =       0.4996308508D+00 E2=     -0.1493666069D+01
     beta-beta   T2 =       0.9212518812D-01 E2=     -0.2719466951D+00
 ANorm=    0.1297644492D+01
 E2 =    -0.2037559459D+01 EUMP2 =    -0.66331570352463D+03
          IDoAtm=111111111111111111111111111
          Differentiating once with respect to electric field.
                with respect to dipole field.
          Differentiating once with respect to nuclear coordinates.
 Keep R1 ints in memory in canonical form, NReq=397723379.
          There are     1 degrees of freedom in the 1st order CPHF.  IDoFFX=0 NUNeed=     1.
 LinEq1:  Iter=  0 NonCon=     1 RMS=4.67D-03 Max=1.26D-01 NDo=     1
 AX will form     1 AO Fock derivatives at one time.
 LinEq1:  Iter=  1 NonCon=     1 RMS=1.59D-03 Max=4.41D-02 NDo=     1
 LinEq1:  Iter=  2 NonCon=     1 RMS=6.54D-04 Max=2.06D-02 NDo=     1
 LinEq1:  Iter=  3 NonCon=     1 RMS=2.98D-04 Max=9.61D-03 NDo=     1
 LinEq1:  Iter=  4 NonCon=     1 RMS=9.40D-05 Max=2.53D-03 NDo=     1
 LinEq1:  Iter=  5 NonCon=     1 RMS=3.88D-05 Max=1.80D-03 NDo=     1
 LinEq1:  Iter=  6 NonCon=     1 RMS=1.60D-05 Max=5.55D-04 NDo=     1
 LinEq1:  Iter=  7 NonCon=     1 RMS=6.07D-06 Max=6.69D-05 NDo=     1
 LinEq1:  Iter=  8 NonCon=     1 RMS=2.40D-06 Max=5.00D-05 NDo=     1
 LinEq1:  Iter=  9 NonCon=     1 RMS=8.86D-07 Max=2.47D-05 NDo=     1
 LinEq1:  Iter= 10 NonCon=     1 RMS=4.22D-07 Max=1.31D-05 NDo=     1
 LinEq1:  Iter= 11 NonCon=     1 RMS=1.59D-07 Max=5.53D-06 NDo=     1
 LinEq1:  Iter= 12 NonCon=     1 RMS=5.65D-08 Max=9.56D-07 NDo=     1
 LinEq1:  Iter= 13 NonCon=     1 RMS=1.78D-08 Max=3.73D-07 NDo=     1
 LinEq1:  Iter= 14 NonCon=     1 RMS=5.51D-09 Max=1.51D-07 NDo=     1
 LinEq1:  Iter= 15 NonCon=     1 RMS=2.01D-09 Max=6.42D-08 NDo=     1
 LinEq1:  Iter= 16 NonCon=     1 RMS=7.34D-10 Max=1.29D-08 NDo=     1
 LinEq1:  Iter= 17 NonCon=     1 RMS=2.49D-10 Max=4.40D-09 NDo=     1
 LinEq1:  Iter= 18 NonCon=     1 RMS=8.96D-11 Max=1.53D-09 NDo=     1
 LinEq1:  Iter= 19 NonCon=     0 RMS=3.20D-11 Max=7.16D-10 NDo=     1
 Linear equations converged to 1.000D-10 1.000D-09 after    19 iterations.
 End of Minotr F.D. properties file   721 does not exist.
 End of Minotr F.D. properties file   722 does not exist.
 End of Minotr F.D. properties file   788 does not exist.

 **********************************************************************

            Population analysis using the SCF Density.

 **********************************************************************

 Alpha  occ. eigenvalues --  -20.59779 -20.59422 -15.85303 -15.63817 -15.56110
 Alpha  occ. eigenvalues --  -11.36012 -11.30496 -11.30182 -11.30008 -11.27541
 Alpha  occ. eigenvalues --  -11.24654 -11.23897 -11.23273 -11.22845  -1.58479
 Alpha  occ. eigenvalues --   -1.37953  -1.29008  -1.22432  -1.13283  -1.08411
 Alpha  occ. eigenvalues --   -1.01715  -1.00734  -0.93715  -0.88900  -0.84904
 Alpha  occ. eigenvalues --   -0.81516  -0.78002  -0.77034  -0.74417  -0.71239
 Alpha  occ. eigenvalues --   -0.70277  -0.69798  -0.67354  -0.64040  -0.63317
 Alpha  occ. eigenvalues --   -0.61876  -0.59827  -0.57436  -0.56503  -0.54799
 Alpha  occ. eigenvalues --   -0.54144  -0.50512  -0.49810  -0.48604  -0.47857
 Alpha  occ. eigenvalues --   -0.47754  -0.46391  -0.45381  -0.44045  -0.42202
 Alpha  occ. eigenvalues --   -0.38984  -0.33533
 Alpha virt. eigenvalues --    0.07339   0.11490   0.17330   0.21583   0.23779
 Alpha virt. eigenvalues --    0.25105   0.25903   0.27970   0.28593   0.28884
 Alpha virt. eigenvalues --    0.29894   0.31475   0.31785   0.32410   0.33189
 Alpha virt. eigenvalues --    0.33927   0.34630   0.35671   0.37704   0.38783
 Alpha virt. eigenvalues --    0.40353   0.41121   0.43789   0.45181   0.45311
 Alpha virt. eigenvalues --    0.47001   0.49851   0.53368   0.57643   0.59137
 Alpha virt. eigenvalues --    0.63302   0.68402   0.69440   0.72467   0.74090
 Alpha virt. eigenvalues --    0.74857   0.75723   0.75851   0.78244   0.78608
 Alpha virt. eigenvalues --    0.80952   0.82500   0.84659   0.84984   0.87869
 Alpha virt. eigenvalues --    0.88527   0.90669   0.91702   0.92415   0.93764
 Alpha virt. eigenvalues --    0.94978   0.97411   0.99365   1.00932   1.01950
 Alpha virt. eigenvalues --    1.03044   1.04967   1.06135   1.07154   1.08631
 Alpha virt. eigenvalues --    1.09851   1.10646   1.11792   1.12738   1.13197
 Alpha virt. eigenvalues --    1.13370   1.14327   1.15378   1.15874   1.16630
 Alpha virt. eigenvalues --    1.17911   1.20494   1.21494   1.21822   1.22948
 Alpha virt. eigenvalues --    1.23399   1.24881   1.25663   1.27274   1.28390
 Alpha virt. eigenvalues --    1.29037   1.31444   1.34219   1.36609   1.38983
 Alpha virt. eigenvalues --    1.42028   1.47886   1.51182   1.52615   1.53601
 Alpha virt. eigenvalues --    1.54306   1.58567   1.60757   1.63729   1.65253
 Alpha virt. eigenvalues --    1.67280   1.69074   1.72020   1.72506   1.76621
 Alpha virt. eigenvalues --    1.79307   1.82205   1.83898   1.87435   1.91218
 Alpha virt. eigenvalues --    1.93435   1.95962   1.97882   1.99908   2.01062
 Alpha virt. eigenvalues --    2.02926   2.03168   2.05628   2.09537   2.11666
 Alpha virt. eigenvalues --    2.11908   2.13239   2.16964   2.18149   2.19702
 Alpha virt. eigenvalues --    2.20421   2.22181   2.23890   2.24732   2.25861
 Alpha virt. eigenvalues --    2.29001   2.31957   2.32855   2.35235   2.36908
 Alpha virt. eigenvalues --    2.39588   2.41587   2.42509   2.44786   2.45610
 Alpha virt. eigenvalues --    2.48725   2.50667   2.50845   2.56301   2.57264
 Alpha virt. eigenvalues --    2.60381   2.63936   2.65801   2.67823   2.68388
 Alpha virt. eigenvalues --    2.69268   2.70160   2.74107   2.75285   2.81337
 Alpha virt. eigenvalues --    2.84846   2.86560   2.89793   2.91449   2.94165
 Alpha virt. eigenvalues --    2.97694   2.98037   3.02189   3.05682   3.06877
 Alpha virt. eigenvalues --    3.07863   3.14642   3.18514   3.22772   3.27203
 Alpha virt. eigenvalues --    3.31734   3.32163   3.38221   3.42420   3.60741
 Alpha virt. eigenvalues --    4.10473   4.23101   4.32235   4.36501   4.44445
 Alpha virt. eigenvalues --    4.52134   4.59362   4.60082   4.70667   4.78231
 Alpha virt. eigenvalues --    4.96892   4.99223   5.04600   5.08970
          Condensed to atoms (all electrons):
               1          2          3          4          5          6
     1  O    8.302395   0.309994  -0.090368  -0.077133   0.003519  -0.000011
     2  N    0.309994   5.678794   0.312089   0.264066  -0.048718   0.000727
     3  O   -0.090368   0.312089   8.329131  -0.088267   0.008116   0.000488
     4  C   -0.077133   0.264066  -0.088267   5.258797   0.563456  -0.050873
     5  C    0.003519  -0.048718   0.008116   0.563456   4.685283   0.315690
     6  N   -0.000011   0.000727   0.000488  -0.050873   0.315690   7.156127
     7  C    0.000001  -0.000100   0.000001   0.006089  -0.029551   0.204648
     8  H   -0.000000   0.000001  -0.000000  -0.000258   0.002878  -0.045869
     9  C    0.000000  -0.000005  -0.000000   0.000662   0.000682  -0.058360
    10  C   -0.000000   0.000000   0.000000  -0.000025  -0.000033   0.003357
    11  C   -0.000000  -0.000000  -0.000000  -0.000011   0.000011  -0.000150
    12  C   -0.000000   0.000001  -0.000000  -0.000253  -0.000141   0.003865
    13  C   -0.000009   0.000017  -0.000001  -0.007806  -0.000635  -0.051679
    14  H    0.000000  -0.000030   0.000000   0.001847   0.002891  -0.005074
    15  N    0.000417   0.001472  -0.000009  -0.062776  -0.004838   0.002148
    16  C    0.001363  -0.021939   0.002088   0.310859  -0.044219   0.001009
    17  H    0.000153  -0.004499   0.012848  -0.023850   0.374425  -0.031738
    18  H    0.000000  -0.000033   0.000008   0.001591  -0.026421   0.331636
    19  H    0.000000  -0.000003  -0.000000  -0.000989   0.001233  -0.000269
    20  H    0.000000   0.000000   0.000000  -0.000037  -0.000025  -0.000551
    21  H   -0.000000  -0.000000  -0.000000   0.000001   0.000001  -0.000063
    22  H   -0.000000   0.000000  -0.000000  -0.000000  -0.000001  -0.000092
    23  H    0.000000  -0.000000   0.000000   0.000025  -0.000000  -0.000024
    24  H    0.000000   0.000000   0.000000  -0.000000  -0.000000   0.000005
    25  H    0.000000  -0.000000   0.000000   0.000023  -0.000001  -0.000075
    26  H    0.000000  -0.000000   0.000000   0.000004  -0.000001  -0.000077
    27  H    0.006810  -0.000111   0.000058  -0.068136   0.001990  -0.000018
               7          8          9         10         11         12
     1  O    0.000001  -0.000000   0.000000  -0.000000  -0.000000  -0.000000
     2  N   -0.000100   0.000001  -0.000005   0.000000  -0.000000   0.000001
     3  O    0.000001  -0.000000  -0.000000   0.000000  -0.000000  -0.000000
     4  C    0.006089  -0.000258   0.000662  -0.000025  -0.000011  -0.000253
     5  C   -0.029551   0.002878   0.000682  -0.000033   0.000011  -0.000141
     6  N    0.204648  -0.045869  -0.058360   0.003357  -0.000150   0.003865
     7  C    5.047323   0.413336   0.342707  -0.049186  -0.008178  -0.065233
     8  H    0.413336   0.543770  -0.057332   0.000658  -0.000194  -0.003315
     9  C    0.342707  -0.057332   5.173477   0.319949  -0.053708  -0.005388
    10  C   -0.049186   0.000658   0.319949   5.126410   0.332570  -0.060784
    11  C   -0.008178  -0.000194  -0.053708   0.332570   5.125076   0.330411
    12  C   -0.065233  -0.003315  -0.005388  -0.060784   0.330411   5.141989
    13  C    0.314343  -0.037786  -0.054945  -0.000918  -0.047081   0.367906
    14  H   -0.042208  -0.000842   0.003782  -0.000385   0.003965  -0.041242
    15  N   -0.063879   0.004031  -0.011540   0.001217  -0.007264  -0.075852
    16  C   -0.000386  -0.000163  -0.000047  -0.000084  -0.000009   0.002382
    17  H    0.001443  -0.000048  -0.000045   0.000001  -0.000000   0.000001
    18  H   -0.030134  -0.004191   0.001109  -0.000114   0.000010  -0.000157
    19  H   -0.035259   0.003972   0.388506  -0.033451  -0.002110   0.000528
    20  H   -0.042007  -0.001806   0.397094  -0.036919   0.004124  -0.000386
    21  H    0.004091  -0.000068  -0.035967   0.400111  -0.035768   0.004241
    22  H   -0.004520   0.003543  -0.045553   0.395760  -0.045503  -0.001241
    23  H    0.000503   0.000035  -0.002036  -0.040245   0.396580  -0.036773
    24  H   -0.000146  -0.000106   0.004409  -0.038473   0.400402  -0.037707
    25  H    0.005204  -0.000017  -0.000390   0.004110  -0.033661   0.394678
    26  H   -0.004398   0.001454   0.001101  -0.002441  -0.042546   0.393976
    27  H   -0.000388   0.000008  -0.000042   0.000003   0.000007  -0.000022
              13         14         15         16         17         18
     1  O   -0.000009   0.000000   0.000417   0.001363   0.000153   0.000000
     2  N    0.000017  -0.000030   0.001472  -0.021939  -0.004499  -0.000033
     3  O   -0.000001   0.000000  -0.000009   0.002088   0.012848   0.000008
     4  C   -0.007806   0.001847  -0.062776   0.310859  -0.023850   0.001591
     5  C   -0.000635   0.002891  -0.004838  -0.044219   0.374425  -0.026421
     6  N   -0.051679  -0.005074   0.002148   0.001009  -0.031738   0.331636
     7  C    0.314343  -0.042208  -0.063879  -0.000386   0.001443  -0.030134
     8  H   -0.037786  -0.000842   0.004031  -0.000163  -0.000048  -0.004191
     9  C   -0.054945   0.003782  -0.011540  -0.000047  -0.000045   0.001109
    10  C   -0.000918  -0.000385   0.001217  -0.000084   0.000001  -0.000114
    11  C   -0.047081   0.003965  -0.007264  -0.000009  -0.000000   0.000010
    12  C    0.367906  -0.041242  -0.075852   0.002382   0.000001  -0.000157
    13  C    5.017729   0.408844   0.250252  -0.066318  -0.000077   0.004039
    14  H    0.408844   0.516976  -0.033971  -0.007496   0.000009  -0.000009
    15  N    0.250252  -0.033971   6.963319   0.579634  -0.000054  -0.000124
    16  C   -0.066318  -0.007496   0.579634   4.707687   0.001391  -0.000173
    17  H   -0.000077   0.000009  -0.000054   0.001391   0.380161  -0.002575
    18  H    0.004039  -0.000009  -0.000124  -0.000173  -0.002575   0.325985
    19  H   -0.005829   0.000058   0.006557   0.001742   0.000005  -0.000131
    20  H    0.003950  -0.000053   0.000088  -0.000042  -0.000013   0.002059
    21  H   -0.000412   0.000009  -0.000034   0.000003  -0.000000   0.000000
    22  H    0.000322  -0.000042   0.000009  -0.000000   0.000000   0.000002
    23  H   -0.006025   0.000002   0.006790   0.000097   0.000000   0.000000
    24  H    0.004157  -0.000061   0.000009   0.000005   0.000000  -0.000000
    25  H   -0.034310  -0.002740   0.001470  -0.000063  -0.000000   0.000003
    26  H   -0.045127  -0.000903   0.004245  -0.000027   0.000000  -0.000001
    27  H    0.004697  -0.000139  -0.041218   0.404574  -0.000063   0.000001
              19         20         21         22         23         24
     1  O    0.000000   0.000000  -0.000000  -0.000000   0.000000   0.000000
     2  N   -0.000003   0.000000  -0.000000   0.000000  -0.000000   0.000000
     3  O   -0.000000   0.000000  -0.000000  -0.000000   0.000000   0.000000
     4  C   -0.000989  -0.000037   0.000001  -0.000000   0.000025  -0.000000
     5  C    0.001233  -0.000025   0.000001  -0.000001  -0.000000  -0.000000
     6  N   -0.000269  -0.000551  -0.000063  -0.000092  -0.000024   0.000005
     7  C   -0.035259  -0.042007   0.004091  -0.004520   0.000503  -0.000146
     8  H    0.003972  -0.001806  -0.000068   0.003543   0.000035  -0.000106
     9  C    0.388506   0.397094  -0.035967  -0.045553  -0.002036   0.004409
    10  C   -0.033451  -0.036919   0.400111   0.395760  -0.040245  -0.038473
    11  C   -0.002110   0.004124  -0.035768  -0.045503   0.396580   0.400402
    12  C    0.000528  -0.000386   0.004241  -0.001241  -0.036773  -0.037707
    13  C   -0.005829   0.003950  -0.000412   0.000322  -0.006025   0.004157
    14  H    0.000058  -0.000053   0.000009  -0.000042   0.000002  -0.000061
    15  N    0.006557   0.000088  -0.000034   0.000009   0.006790   0.000009
    16  C    0.001742  -0.000042   0.000003  -0.000000   0.000097   0.000005
    17  H    0.000005  -0.000013  -0.000000   0.000000   0.000000   0.000000
    18  H   -0.000131   0.002059   0.000000   0.000002   0.000000  -0.000000
    19  H    0.505454  -0.023694  -0.002548   0.003760   0.001680  -0.000074
    20  H   -0.023694   0.546882  -0.002662  -0.002919  -0.000049  -0.000090
    21  H   -0.002548  -0.002662   0.525489  -0.024679  -0.002823  -0.002066
    22  H    0.003760  -0.002919  -0.024679   0.569425   0.004067  -0.003549
    23  H    0.001680  -0.000049  -0.002823   0.004067   0.510278  -0.024894
    24  H   -0.000074  -0.000090  -0.002066  -0.003549  -0.024894   0.540471
    25  H   -0.000028   0.000011  -0.000086  -0.000083  -0.002055  -0.002413
    26  H    0.000023  -0.000035  -0.000072   0.002453   0.003846  -0.002761
    27  H    0.000062   0.000000  -0.000000   0.000000  -0.000021  -0.000000
              25         26         27
     1  O    0.000000   0.000000   0.006810
     2  N   -0.000000  -0.000000  -0.000111
     3  O    0.000000   0.000000   0.000058
     4  C    0.000023   0.000004  -0.068136
     5  C   -0.000001  -0.000001   0.001990
     6  N   -0.000075  -0.000077  -0.000018
     7  C    0.005204  -0.004398  -0.000388
     8  H   -0.000017   0.001454   0.000008
     9  C   -0.000390   0.001101  -0.000042
    10  C    0.004110  -0.002441   0.000003
    11  C   -0.033661  -0.042546   0.000007
    12  C    0.394678   0.393976  -0.000022
    13  C   -0.034310  -0.045127   0.004697
    14  H   -0.002740  -0.000903  -0.000139
    15  N    0.001470   0.004245  -0.041218
    16  C   -0.000063  -0.000027   0.404574
    17  H   -0.000000   0.000000  -0.000063
    18  H    0.000003  -0.000001   0.000001
    19  H   -0.000028   0.000023   0.000062
    20  H    0.000011  -0.000035   0.000000
    21  H   -0.000086  -0.000072  -0.000000
    22  H   -0.000083   0.002453   0.000000
    23  H   -0.002055   0.003846  -0.000021
    24  H   -0.002413  -0.002761  -0.000000
    25  H    0.509712  -0.023213  -0.000017
    26  H   -0.023213   0.564740   0.000001
    27  H   -0.000017   0.000001   0.441435
 Mulliken charges:
               1
     1  O   -0.457133
     2  N    0.508278
     3  O   -0.486182
     4  C   -0.027006
     5  C    0.194410
     6  N   -0.774777
     7  C    0.035883
     8  H    0.178309
     9  C   -0.308120
    10  C   -0.321089
    11  C   -0.316972
    12  C   -0.311484
    13  C   -0.017299
    14  H    0.196809
    15  N   -0.520097
    16  C    0.128137
    17  H    0.292526
    18  H    0.397619
    19  H    0.190804
    20  H    0.157082
    21  H    0.173303
    22  H    0.148842
    23  H    0.191042
    24  H    0.162884
    25  H    0.183942
    26  H    0.149758
    27  H    0.250530
 Sum of Mulliken charges =  -0.00000
 Mulliken charges with hydrogens summed into heavy atoms:
               1
     1  O   -0.457133
     2  N    0.508278
     3  O   -0.486182
     4  C   -0.027006
     5  C    0.486935
     6  N   -0.377157
     7  C    0.214192
     9  C    0.039766
    10  C    0.001056
    11  C    0.036954
    12  C    0.022216
    13  C    0.179510
    15  N   -0.520097
    16  C    0.378667
 Electronic spatial extent (au):  <R**2>=           3113.8012
 Charge=             -0.0000 electrons
 Dipole moment (field-independent basis, Debye):
    X=              5.3450    Y=              4.4486    Z=              1.5371  Tot=              7.1219
 Quadrupole moment (field-independent basis, Debye-Ang):
   XX=           -104.8755   YY=            -79.7419   ZZ=            -83.0184
   XY=             -0.5603   XZ=             -3.0494   YZ=              1.1368
 Traceless Quadrupole moment (field-independent basis, Debye-Ang):
   XX=            -15.6636   YY=              9.4700   ZZ=              6.1936
   XY=             -0.5603   XZ=             -3.0494   YZ=              1.1368
 Octapole moment (field-independent basis, Debye-Ang**2):
  XXX=             96.3251  YYY=             33.2755  ZZZ=              1.7908  XYY=             -3.3022
  XXY=              7.1207  XXZ=             19.6594  XZZ=             -5.0632  YZZ=             -2.1943
  YYZ=              7.4243  XYZ=             -0.5016
 Hexadecapole moment (field-independent basis, Debye-Ang**3):
 XXXX=          -3488.3767 YYYY=           -616.4969 ZZZZ=           -327.7749 XXXY=             -4.2077
 XXXZ=           -122.8785 YYYX=             10.8309 YYYZ=             24.2364 ZZZX=            -52.5587
 ZZZY=              8.0498 XXYY=           -647.8571 XXZZ=           -552.4127 YYZZ=           -169.5879
 XXYZ=              6.6565 YYXZ=            -18.5382 ZZXY=              8.7503
 N-N= 9.172419776106D+02 E-N=-3.380518156630D+03  KE= 6.588683879210D+02
 Calling FoFJK, ICntrl=  10002127 FMM=F ISym2X=0 I1Cent= 0 IOpClX= 0 NMat=1 NMatS=1 NMatT=0.
 -------------------------------------------------------------------
 Center     Atomic                   Forces (Hartrees/Bohr)
 Number     Number              X              Y              Z
 -------------------------------------------------------------------
      1        8           0.000500355   -0.018938749    0.000059981
      2        7           0.039528144    0.008872228    0.006192744
      3        8          -0.003549275    0.016850216    0.001297081
      4        6          -0.003105801    0.002756248    0.011959757
      5        6           0.002493129   -0.013980413   -0.005683391
      6        7           0.016317918   -0.002868052   -0.010170695
      7        6          -0.003672073    0.005834654    0.005491562
      8        1          -0.012276874   -0.001777444   -0.006838907
      9        6          -0.004300125    0.001186755   -0.002173832
     10        6           0.002701892   -0.001333797    0.000675028
     11        6          -0.001134583   -0.004207936   -0.001833061
     12        6           0.000655255   -0.009428253   -0.002864156
     13        6           0.012612622    0.000085833   -0.001361838
     14        1           0.001187465    0.003419095   -0.011324164
     15        7          -0.000534633   -0.008201582    0.020735268
     16        6          -0.021011708    0.015534448   -0.015635678
     17        1           0.007005251   -0.008253906   -0.000169989
     18        1          -0.018520642   -0.002559499    0.000715284
     19        1           0.003343090    0.005697897    0.007314774
     20        1          -0.002930388   -0.007770873    0.002903702
     21        1          -0.003591967    0.002356184    0.009914125
     22        1          -0.004539833   -0.004002341   -0.006997757
     23        1           0.004494561    0.005945038    0.008807089
     24        1          -0.009614949    0.002333037   -0.001447464
     25        1          -0.001239899    0.010616685   -0.002503644
     26        1          -0.004931303   -0.004699238   -0.003966507
     27        1           0.004114371    0.006533765   -0.003095311
 -------------------------------------------------------------------
 Cartesian Forces:  Max     0.039528144 RMS     0.009024972

 GradGradGradGradGradGradGradGradGradGradGradGradGradGradGradGradGradGrad
 Berny optimization.
 FormGI is forming the generalized inverse of G from B-inverse, IUseBI=4.
 Internal  Forces:  Max     0.037794248 RMS     0.007025826
 Search for a local minimum.
 Step number   1 out of a maximum of   20
 All quantities printed in internal units (Hartrees-Bohrs-Radians)
 Mixed Optimization -- RFO/linear search
 Second derivative matrix not updated -- first step.
 ITU=  0
     Eigenvalues ---    0.00232   0.00779   0.01105   0.01149   0.01274
     Eigenvalues ---    0.01543   0.01610   0.01835   0.02046   0.02106
     Eigenvalues ---    0.02708   0.03659   0.04516   0.04686   0.04838
     Eigenvalues ---    0.05081   0.05139   0.05308   0.05882   0.06247
     Eigenvalues ---    0.07087   0.07684   0.07697   0.07824   0.07985
     Eigenvalues ---    0.08035   0.08045   0.10439   0.11578   0.11977
     Eigenvalues ---    0.12497   0.14382   0.15083   0.15942   0.15998
     Eigenvalues ---    0.20100   0.22268   0.23348   0.25000   0.25000
     Eigenvalues ---    0.25000   0.25407   0.26415   0.26650   0.27976
     Eigenvalues ---    0.28087   0.28535   0.29210   0.31431   0.32046
     Eigenvalues ---    0.32052   0.32237   0.32297   0.32382   0.32388
     Eigenvalues ---    0.32407   0.32512   0.32526   0.32589   0.33315
     Eigenvalues ---    0.33396   0.33647   0.35525   0.43885   0.44348
     Eigenvalues ---    0.50244   0.67266   0.90318   0.911781000.00000
     Eigenvalues --- 1000.000001000.000001000.000001000.000001000.00000
     Eigenvalues --- 1000.000001000.000001000.000001000.000001000.00000
     Eigenvalues --- 1000.000001000.000001000.000001000.000001000.00000
     Eigenvalues --- 1000.000001000.000001000.000001000.000001000.00000
     Eigenvalues --- 1000.000001000.000001000.000001000.000001000.00000
     Eigenvalues --- 1000.000001000.000001000.000001000.000001000.00000
     Eigenvalues --- 1000.000001000.000001000.000001000.000001000.00000
     Eigenvalues --- 1000.000001000.000001000.000001000.000001000.00000
     Eigenvalues --- 1000.000001000.000001000.000001000.000001000.00000
     Eigenvalues --- 1000.000001000.000001000.000001000.000001000.00000
     Eigenvalues --- 1000.000001000.000001000.000001000.000001000.00000
     Eigenvalues --- 1000.000001000.000001000.000001000.000001000.00000
     Eigenvalues --- 1000.000001000.000001000.000001000.000001000.00000
     Eigenvalues --- 1000.000001000.000001000.000001000.000001000.00000
     Eigenvalues --- 1000.000001000.000001000.000001000.000001000.00000
     Eigenvalues --- 1000.000001000.000001000.000001000.000001000.00000
     Eigenvalues --- 1000.000001000.000001000.000001000.000001000.00000
     Eigenvalues --- 1000.000001000.000001000.000001000.000001000.00000
     Eigenvalues --- 1000.00000
 RFO step:  Lambda=-2.51693567D-02 EMin= 2.32423228D-03
 Linear search not attempted -- first point.
 Iteration  1 RMS(Cart)=  0.06107122 RMS(Int)=  0.00142377
 Iteration  2 RMS(Cart)=  0.00173109 RMS(Int)=  0.00030056
 Iteration  3 RMS(Cart)=  0.00000120 RMS(Int)=  0.00030056
 Iteration  4 RMS(Cart)=  0.00000000 RMS(Int)=  0.00030056
 Iteration  1 RMS(Cart)=  0.00003329 RMS(Int)=  0.00003488
 Iteration  2 RMS(Cart)=  0.00002422 RMS(Int)=  0.00003744
 Iteration  3 RMS(Cart)=  0.00001920 RMS(Int)=  0.00004222
 Iteration  4 RMS(Cart)=  0.00001578 RMS(Int)=  0.00004728
 Iteration  5 RMS(Cart)=  0.00001317 RMS(Int)=  0.00005205
 Iteration  6 RMS(Cart)=  0.00001107 RMS(Int)=  0.00005634
 Iteration  7 RMS(Cart)=  0.00000932 RMS(Int)=  0.00006012
 Iteration  8 RMS(Cart)=  0.00000787 RMS(Int)=  0.00006341
 Iteration  9 RMS(Cart)=  0.00000664 RMS(Int)=  0.00006624
 Iteration 10 RMS(Cart)=  0.00000561 RMS(Int)=  0.00006868
 Iteration 11 RMS(Cart)=  0.00000474 RMS(Int)=  0.00007076
 Iteration 12 RMS(Cart)=  0.00000400 RMS(Int)=  0.00007253
 Iteration 13 RMS(Cart)=  0.00000338 RMS(Int)=  0.00007404
 Iteration 14 RMS(Cart)=  0.00000285 RMS(Int)=  0.00007533
 Iteration 15 RMS(Cart)=  0.00000241 RMS(Int)=  0.00007642
 Iteration 16 RMS(Cart)=  0.00000203 RMS(Int)=  0.00007734
 Iteration 17 RMS(Cart)=  0.00000172 RMS(Int)=  0.00007812
 Iteration 18 RMS(Cart)=  0.00000145 RMS(Int)=  0.00007879
 Iteration 19 RMS(Cart)=  0.00000123 RMS(Int)=  0.00007935
 Iteration 20 RMS(Cart)=  0.00000104 RMS(Int)=  0.00007983
 Iteration 21 RMS(Cart)=  0.00000087 RMS(Int)=  0.00008023
 Variable       Old X    -DE/DX   Delta X   Delta X   Delta X     New X
                                 (Linear)    (Quad)   (Total)
    R1        2.32395   0.01748   0.00000   0.01866   0.01866   2.34260
    R2        2.32787   0.01563   0.00000   0.01684   0.01684   2.34470
    R3        2.89568  -0.03779   0.00000  -0.11913  -0.11913   2.77655
    R4        2.64546  -0.03214   0.00000  -0.06898  -0.06874   2.57672
    R5        2.81908  -0.02612   0.00000  -0.07627  -0.07599   2.74309
    R6        2.58417  -0.02359   0.00000  -0.04399  -0.04398   2.54019
    R7        2.08362  -0.01080   0.00000  -0.03008  -0.03008   2.05354
    R8        2.81438  -0.01741   0.00000  -0.04555  -0.04582   2.76856
    R9        1.93292  -0.00672   0.00000  -0.01448  -0.01448   1.91844
   R10        2.11897  -0.01291   0.00000  -0.03804  -0.03804   2.08093
   R11        2.92732  -0.01294   0.00000  -0.04353  -0.04349   2.88383
   R12        2.89608  -0.00146   0.00000  -0.00024  -0.00026   2.89582
   R13        2.91129  -0.00425   0.00000  -0.01436  -0.01441   2.89688
   R14        2.09917  -0.00960   0.00000  -0.02742  -0.02742   2.07175
   R15        2.09892  -0.00838   0.00000  -0.02391  -0.02391   2.07501
   R16        2.90461  -0.00144   0.00000  -0.00685  -0.00690   2.89771
   R17        2.10140  -0.01054   0.00000  -0.03021  -0.03021   2.07119
   R18        2.10304  -0.00896   0.00000  -0.02574  -0.02574   2.07730
   R19        2.91785  -0.00932   0.00000  -0.02966  -0.02970   2.88815
   R20        2.10412  -0.01136   0.00000  -0.03270  -0.03270   2.07142
   R21        2.10105  -0.00996   0.00000  -0.02853  -0.02853   2.07252
   R22        2.93548  -0.01109   0.00000  -0.03661  -0.03655   2.89893
   R23        2.10150  -0.01083   0.00000  -0.03104  -0.03104   2.07047
   R24        2.09779  -0.00770   0.00000  -0.02193  -0.02193   2.07586
   R25        2.10760  -0.01090   0.00000  -0.03153  -0.03153   2.07607
   R26        2.76641  -0.00462   0.00000  -0.00915  -0.00944   2.75697
   R27        2.44335  -0.00151   0.00000  -0.00265  -0.00254   2.44082
   R28        2.07930  -0.00590   0.00000  -0.01631  -0.01631   2.06300
    A1        2.15398   0.01121   0.00000   0.04110   0.04069   2.19468
    A2        2.05648  -0.00559   0.00000  -0.01998  -0.02039   2.03609
    A3        2.07241  -0.00557   0.00000  -0.01989  -0.02030   2.05211
    A4        2.01782  -0.00975   0.00000  -0.03198  -0.03234   1.98548
    A5        2.02936  -0.00271   0.00000  -0.00641  -0.00677   2.02259
    A6        2.23599   0.01246   0.00000   0.03843   0.03913   2.27511
    A7        2.20668   0.00645   0.00000   0.02367   0.02407   2.23076
    A8        2.06298  -0.00397   0.00000  -0.01569  -0.01594   2.04704
    A9        2.01329  -0.00248   0.00000  -0.00768  -0.00793   2.00536
   A10        2.24604  -0.00723   0.00000  -0.01988  -0.02039   2.22565
   A11        2.09965  -0.01232   0.00000  -0.07349  -0.07399   2.02565
   A12        1.86239   0.01974   0.00000   0.10739   0.10782   1.97021
   A13        1.84143  -0.00237   0.00000  -0.01773  -0.01741   1.82401
   A14        2.01214  -0.00107   0.00000  -0.01616  -0.01656   1.99558
   A15        1.95899   0.00199   0.00000  -0.00476  -0.00526   1.95373
   A16        1.85149   0.00329   0.00000   0.02915   0.02904   1.88053
   A17        1.85054   0.00158   0.00000   0.02872   0.02830   1.87884
   A18        1.93578  -0.00299   0.00000  -0.01260  -0.01232   1.92346
   A19        1.90863   0.00025   0.00000  -0.00611  -0.00619   1.90244
   A20        1.92217  -0.00066   0.00000  -0.01416  -0.01416   1.90801
   A21        1.92247  -0.00188   0.00000  -0.00583  -0.00585   1.91662
   A22        1.91902  -0.00073   0.00000   0.00406   0.00394   1.92296
   A23        1.90670   0.00341   0.00000   0.02719   0.02719   1.93389
   A24        1.88470  -0.00036   0.00000  -0.00471  -0.00495   1.87975
   A25        1.93963  -0.00075   0.00000   0.00592   0.00584   1.94546
   A26        1.91879  -0.00081   0.00000  -0.00744  -0.00745   1.91134
   A27        1.90540   0.00029   0.00000  -0.00299  -0.00307   1.90233
   A28        1.91619   0.00055   0.00000   0.00663   0.00667   1.92286
   A29        1.89898   0.00192   0.00000   0.01155   0.01157   1.91055
   A30        1.88384  -0.00119   0.00000  -0.01413  -0.01421   1.86963
   A31        1.94426   0.00152   0.00000   0.00751   0.00760   1.95186
   A32        1.90230   0.00014   0.00000   0.00542   0.00544   1.90774
   A33        1.91753   0.00041   0.00000   0.00509   0.00502   1.92255
   A34        1.90657  -0.00142   0.00000  -0.01531  -0.01536   1.89121
   A35        1.91561  -0.00072   0.00000   0.00017   0.00008   1.91569
   A36        1.87623   0.00002   0.00000  -0.00339  -0.00342   1.87281
   A37        1.94553  -0.00406   0.00000  -0.02162  -0.02164   1.92389
   A38        1.90635   0.00258   0.00000   0.01533   0.01518   1.92153
   A39        1.91110   0.00190   0.00000   0.01522   0.01516   1.92626
   A40        1.90690   0.00078   0.00000  -0.00288  -0.00277   1.90414
   A41        1.91245  -0.00013   0.00000  -0.00292  -0.00279   1.90966
   A42        1.88032  -0.00095   0.00000  -0.00248  -0.00267   1.87765
   A43        1.84511   0.00585   0.00000   0.02230   0.02230   1.86742
   A44        1.93274  -0.00470   0.00000  -0.02392  -0.02437   1.90837
   A45        1.99851  -0.00002   0.00000   0.01368   0.01420   2.01271
   A46        1.88423   0.00200   0.00000   0.02631   0.02651   1.91074
   A47        1.89065  -0.00419   0.00000  -0.03439  -0.03449   1.85616
   A48        1.90807   0.00132   0.00000  -0.00235  -0.00225   1.90581
   A49        2.10187  -0.00433   0.00000  -0.00787  -0.00856   2.09331
   A50        2.27157  -0.00647   0.00000  -0.03267  -0.03306   2.23851
   A51        1.97548   0.00312   0.00000   0.01085   0.00960   1.98508
   A52        2.02877   0.00342   0.00000   0.01281   0.01153   2.04031
    D1       -3.00214   0.00039   0.00000   0.00740   0.00727  -2.99488
    D2        0.14414   0.00150   0.00000   0.00000  -0.00000   0.14414
    D3        0.16553  -0.00186   0.00000  -0.04383  -0.04389   0.12164
    D4       -2.97137  -0.00075   0.00000  -0.05123  -0.05116  -3.02253
    D5        3.10235   0.00117   0.00000   0.01827   0.01847   3.12082
    D6       -0.01501   0.00111   0.00000   0.00260   0.00246  -0.01255
    D7       -0.04460  -0.00015   0.00000   0.02653   0.02686  -0.01774
    D8        3.12123  -0.00021   0.00000   0.01086   0.01085   3.13208
    D9       -3.12403   0.00305   0.00000   0.00824   0.00847  -3.11556
   D10        0.15467   0.00200   0.00000   0.09003   0.09004   0.24471
   D11        0.02295   0.00440   0.00000   0.00000   0.00000   0.02295
   D12       -2.98154   0.00334   0.00000   0.08179   0.08157  -2.89997
   D13        0.23179  -0.00229   0.00000  -0.04385  -0.04339   0.18841
   D14        2.91004   0.00295   0.00000   0.02214   0.02071   2.93075
   D15       -2.93344  -0.00226   0.00000  -0.02868  -0.02781  -2.96125
   D16       -0.25519   0.00298   0.00000   0.03731   0.03629  -0.21890
   D17       -2.81237   0.00005   0.00000   0.01754   0.01776  -2.79460
   D18        1.43436  -0.00184   0.00000   0.00226   0.00250   1.43685
   D19       -0.80478   0.00153   0.00000   0.03904   0.03867  -0.76611
   D20        0.74390   0.00121   0.00000  -0.00750  -0.00815   0.73575
   D21       -1.29256  -0.00068   0.00000  -0.02278  -0.02342  -1.31598
   D22        2.75148   0.00269   0.00000   0.01399   0.01275   2.76424
   D23        2.94791   0.00264   0.00000   0.03805   0.03782   2.98573
   D24       -1.22464   0.00148   0.00000   0.03026   0.03005  -1.19459
   D25        0.85231  -0.00055   0.00000   0.01200   0.01184   0.86415
   D26        0.91715   0.00397   0.00000   0.04944   0.04946   0.96661
   D27        3.02778   0.00281   0.00000   0.04165   0.04169   3.06948
   D28       -1.17845   0.00078   0.00000   0.02339   0.02348  -1.15497
   D29       -1.08464   0.00177   0.00000   0.00568   0.00582  -1.07882
   D30        1.02599   0.00061   0.00000  -0.00210  -0.00194   1.02405
   D31        3.10294  -0.00142   0.00000  -0.02037  -0.02015   3.08278
   D32       -2.89405  -0.00088   0.00000  -0.01965  -0.01939  -2.91344
   D33       -0.85756   0.00242   0.00000   0.01199   0.01192  -0.84564
   D34        1.30939   0.00037   0.00000   0.00000  -0.00001   1.30938
   D35       -0.89202  -0.00178   0.00000  -0.02646  -0.02643  -0.91844
   D36        1.14447   0.00151   0.00000   0.00518   0.00489   1.14936
   D37       -2.97177  -0.00054   0.00000  -0.00681  -0.00704  -2.97881
   D38        1.11037   0.00149   0.00000   0.01757   0.01766   1.12804
   D39       -3.13633   0.00478   0.00000   0.04920   0.04898  -3.08735
   D40       -0.96937   0.00273   0.00000   0.03721   0.03705  -0.93233
   D41        0.95666   0.00104   0.00000   0.00000   0.00000   0.95666
   D42        3.08174   0.00069   0.00000   0.00726   0.00722   3.08895
   D43       -1.13801  -0.00107   0.00000  -0.01610  -0.01607  -1.15408
   D44       -1.15589   0.00215   0.00000   0.01883   0.01889  -1.13699
   D45        0.96920   0.00180   0.00000   0.02608   0.02611   0.99530
   D46        3.03264   0.00005   0.00000   0.00273   0.00282   3.03546
   D47        3.06191   0.00098   0.00000   0.00583   0.00580   3.06771
   D48       -1.09620   0.00063   0.00000   0.01309   0.01301  -1.08318
   D49        0.96724  -0.00112   0.00000  -0.01027  -0.01027   0.95697
   D50       -0.92193  -0.00083   0.00000   0.00000   0.00000  -0.92193
   D51        1.18305  -0.00156   0.00000  -0.01076  -0.01075   1.17230
   D52       -3.04850  -0.00121   0.00000  -0.00874  -0.00876  -3.05726
   D53       -3.04853   0.00031   0.00000   0.00095   0.00096  -3.04757
   D54       -0.94354  -0.00042   0.00000  -0.00981  -0.00979  -0.95334
   D55        1.10809  -0.00008   0.00000  -0.00778  -0.00780   1.10029
   D56        1.17654   0.00030   0.00000   0.00743   0.00746   1.18400
   D57       -3.00166  -0.00042   0.00000  -0.00333  -0.00330  -3.00496
   D58       -0.95003  -0.00008   0.00000  -0.00131  -0.00131  -0.95133
   D59        0.98938  -0.00138   0.00000  -0.01017  -0.01014   0.97925
   D60        3.09828  -0.00129   0.00000  -0.01741  -0.01753   3.08076
   D61       -1.12967   0.00016   0.00000  -0.00263  -0.00255  -1.13222
   D62       -1.11309  -0.00158   0.00000  -0.01160  -0.01155  -1.12464
   D63        0.99581  -0.00149   0.00000  -0.01885  -0.01894   0.97687
   D64        3.05104  -0.00003   0.00000  -0.00407  -0.00396   3.04708
   D65        3.11707  -0.00034   0.00000   0.00140   0.00143   3.11850
   D66       -1.05722  -0.00026   0.00000  -0.00585  -0.00596  -1.06318
   D67        0.99801   0.00120   0.00000   0.00893   0.00902   1.00703
   D68       -1.05756  -0.00004   0.00000  -0.00432  -0.00432  -1.06188
   D69       -3.12662   0.00138   0.00000  -0.00121  -0.00153  -3.12814
   D70        1.09217   0.00101   0.00000   0.00588   0.00596   1.09813
   D71        3.11705  -0.00118   0.00000  -0.00771  -0.00768   3.10937
   D72        1.04799   0.00024   0.00000  -0.00461  -0.00489   1.04311
   D73       -1.01640  -0.00013   0.00000   0.00248   0.00260  -1.01380
   D74        1.06071  -0.00040   0.00000  -0.00132  -0.00123   1.05948
   D75       -1.00834   0.00102   0.00000   0.00179   0.00156  -1.00678
   D76       -3.07274   0.00065   0.00000   0.00888   0.00905  -3.06369
   D77       -1.17218   0.00763   0.00000   0.00000  -0.00001  -1.17219
   D78        3.05702   0.00317   0.00000  -0.01277  -0.01267   3.04435
   D79        1.00784   0.00242   0.00000  -0.02346  -0.02366   0.98418
   D80        0.46102  -0.00711   0.00000  -0.01370  -0.01375   0.44727
   D81       -2.82111  -0.00608   0.00000  -0.09780  -0.09778  -2.91889
         Item               Value     Threshold  Converged?
 Maximum Force            0.037794     0.000450     NO 
 RMS     Force            0.007025     0.000300     NO 
 Maximum Displacement     0.306852     0.001800     NO 
 RMS     Displacement     0.061165     0.001200     NO 
 Predicted change in Energy=-1.422773D-02
 GradGradGradGradGradGradGradGradGradGradGradGradGradGradGradGradGradGrad

                          Input orientation:                          
 ---------------------------------------------------------------------
 Center     Atomic      Atomic             Coordinates (Angstroms)
 Number     Number       Type             X           Y           Z
 ---------------------------------------------------------------------
      1          8           0       -3.509331   -1.318463   -0.494746
      2          7           0       -3.089944   -0.161415   -0.346109
      3          8           0       -3.778601    0.869920   -0.386051
      4          6           0       -1.655407   -0.011010   -0.066306
      5          6           0       -1.290626    1.260408    0.264875
      6          7           0       -0.066266    1.707304    0.593712
      7          6           0        1.207350    0.994161    0.468304
      8          1           0        1.887814    1.521995    1.154570
      9          6           0        1.822247    1.045720   -0.927437
     10          6           0        3.239221    0.463562   -0.870428
     11          6           0        3.242367   -0.947749   -0.270835
     12          6           0        2.531508   -0.992418    1.081390
     13          6           0        1.099979   -0.457895    0.946068
     14          1           0        0.605491   -0.482641    1.926785
     15          7           0        0.407369   -1.364369    0.036639
     16          6           0       -0.857659   -1.218437   -0.179468
     17          1           0       -2.071758    2.015776    0.276508
     18          1           0        0.047209    2.715682    0.623992
     19          1           0        1.201789    0.463594   -1.618877
     20          1           0        1.840893    2.082757   -1.287874
     21          1           0        3.668957    0.446861   -1.878559
     22          1           0        3.872463    1.122518   -0.259565
     23          1           0        2.727657   -1.632984   -0.954256
     24          1           0        4.271946   -1.309192   -0.160626
     25          1           0        2.495967   -2.022082    1.454166
     26          1           0        3.077660   -0.390615    1.820480
     27          1           0       -1.369306   -2.036999   -0.689334
 ---------------------------------------------------------------------
                    Distance matrix (angstroms):
                    1          2          3          4          5
     1  O    0.000000
     2  N    1.239653   0.000000
     3  O    2.207565   1.240764   0.000000
     4  C    2.308685   1.469288   2.320825   0.000000
     5  C    3.485722   2.373274   2.601193   1.363544   0.000000
     6  N    4.711126   3.676684   3.929705   2.431789   1.344212
     7  C    5.340671   4.523865   5.060144   3.080836   2.520347
     8  H    6.318039   5.464794   5.908212   4.049081   3.310961
     9  C    5.848273   5.091633   5.629698   3.735277   3.340310
    10  C    6.989971   6.381523   7.046245   4.982891   4.737445
    11  C    6.765574   6.381391   7.253356   4.990741   5.070598
    12  C    6.251579   5.859099   6.740857   4.450912   4.511166
    13  C    4.905330   4.394664   5.228592   2.969303   3.021850
    14  H    4.847078   4.350341   5.137985   3.050657   3.065195
    15  N    3.952849   3.718171   4.763723   2.469255   3.134443
    16  C    2.672222   2.475513   3.596639   1.451581   2.555303
    17  H    3.711954   2.482844   2.159927   2.097315   1.086685
    18  H    5.493167   4.365835   4.366217   3.287897   2.009127
    19  H    5.160819   4.519906   5.146771   3.286228   3.224216
    20  H    6.389229   5.498762   5.819190   4.254433   3.590779
    21  H    7.520580   6.957093   7.607409   5.642938   5.463847
    22  H    7.778469   7.080331   7.656277   5.646201   5.191487
    23  H    6.261797   6.031571   6.994196   4.757153   5.099470
    24  H    7.788453   7.453135   8.343300   6.068582   6.142158
    25  H    6.352712   6.156743   7.149845   4.856970   5.150480
    26  H    7.043410   6.541100   7.312048   5.109402   4.922165
    27  H    2.265803   2.568310   3.787725   2.138843   3.433599
                    6          7          8          9         10
     6  N    0.000000
     7  C    1.465059   0.000000
     8  H    2.041403   1.101182   0.000000
     9  C    2.513576   1.526056   2.136794   0.000000
    10  C    3.823197   2.490429   2.654656   1.532962   0.000000
    11  C    4.329411   2.908373   3.156933   2.534124   1.533402
    12  C    3.778195   2.464906   2.596530   2.948294   2.535810
    13  C    2.484425   1.532401   2.141056   2.508495   2.953828
    14  H    2.650321   2.161098   2.501846   3.458752   3.956796
    15  N    3.157505   2.527640   3.431120   2.956323   3.490485
    16  C    3.127950   3.095070   4.102103   3.587166   4.482295
    17  H    2.053722   3.439917   4.085709   4.189721   5.650781
    18  H    1.015194   2.081778   2.257039   2.889025   4.182615
    19  H    2.837310   2.153568   3.046777   1.096324   2.170553
    20  H    2.705288   2.161152   2.506429   1.098048   2.179764
    21  H    4.653249   3.444824   3.678078   2.161852   1.096029
    22  H    4.072302   2.765700   2.469452   2.157623   1.099260
    23  H    4.621659   3.352148   3.886692   2.827709   2.159683
    24  H    5.337449   3.884938   3.928034   3.483481   2.170945
    25  H    4.605838   3.424935   3.608336   3.941743   3.483474
    26  H    3.973726   2.691477   2.348882   3.345171   2.827846
    27  H    4.167005   4.143333   5.164809   4.443631   5.246344
                   11         12         13         14         15
    11  C    0.000000
    12  C    1.528342   0.000000
    13  C    2.512098   1.534047   0.000000
    14  H    3.463953   2.164279   1.098607   0.000000
    15  N    2.881896   2.396209   1.458926   2.095077   0.000000
    16  C    4.109967   3.623161   2.382772   2.668052   1.291625
    17  H    6.109172   5.557618   4.077655   4.016611   4.198689
    18  H    4.942719   4.486753   3.359114   3.498316   4.137815
    19  H    2.823661   3.343585   2.727352   3.717882   2.591001
    20  H    3.490338   3.942976   3.463288   4.294359   3.961313
    21  H    2.170643   3.482329   3.923869   4.972870   4.193625
    22  H    2.164059   2.840647   3.411441   4.246148   4.275421
    23  H    1.096146   2.143048   2.764308   3.758627   2.537275
    24  H    1.096732   2.161499   3.465668   4.299229   3.870002
    25  H    2.164932   1.095643   2.157227   2.483375   2.608488
    26  H    2.170513   1.098500   2.163411   2.476165   3.355703
    27  H    4.757009   4.409417   3.356408   3.627662   2.033726
                   16         17         18         19         20
    16  C    0.000000
    17  H    3.484549   0.000000
    18  H    4.116021   2.258459   0.000000
    19  H    3.023649   4.088749   3.381630   0.000000
    20  H    4.405523   4.214335   2.696874   1.771921   0.000000
    21  H    5.113744   6.329425   4.952511   2.480853   2.523268
    22  H    5.278309   6.034820   4.236911   3.068291   2.471185
    23  H    3.691428   6.153260   5.346640   2.676870   3.834629
    24  H    5.130443   7.175590   5.887584   3.833423   4.322734
    25  H    3.815942   6.209291   5.397408   4.158975   4.979720
    26  H    4.491305   5.889913   4.501588   4.009706   4.160412
    27  H    1.091691   4.225077   5.130236   3.705070   5.256997
                   21         22         23         24         25
    21  H    0.000000
    22  H    1.766088   0.000000
    23  H    2.462953   3.063652   0.000000
    24  H    2.529548   2.466291   1.766215   0.000000
    25  H    4.310295   3.836682   2.450627   2.503970   0.000000
    26  H    3.838475   2.692188   3.060252   2.488953   1.770378
    27  H    5.741769   6.135421   4.125351   5.712527   4.419859
                   26         27
    26  H    0.000000
    27  H    5.365190   0.000000
 Symmetry turned off by external request.
 Stoichiometry    C9H13N3O2
 Framework group  C1[X(C9H13N3O2)]
 Deg. of freedom    75
 Full point group                 C1      NOp   1
 Rotational constants (GHZ):           1.6331123           0.4248487           0.3773287
 Standard basis: 6-31G(d) (6D, 7F)
   236 basis functions,   444 primitive gaussians,   236 cartesian basis functions
    52 alpha electrons       52 beta electrons
       nuclear repulsion energy       932.2504244748 Hartrees.
 NAtoms=   27 NActive=   27 NUniq=   27 SFac= 1.00D+00 NAtFMM=   60 NAOKFM=F Big=F
 Integral buffers will be    131072 words long.
 Raffenetti 1 integral format.
 Two-electron integral symmetry is turned off.
 One-electron integrals computed using PRISM.
 NBasis=   236 RedAO= T EigKep=  1.00D-03  NBF=   236
 NBsUse=   236 1.00D-06 EigRej= -1.00D+00 NBFU=   236
 Initial guess from the checkpoint file:  "/home/alexey/tmp/Gau-1490833.chk"
 B after Tr=     0.059725    0.003789    0.009998
         Rot=    0.999999   -0.000672   -0.000704    0.000636 Ang=  -0.13 deg.
 ExpMin= 1.61D-01 ExpMax= 5.48D+03 ExpMxC= 8.25D+02 IAcc=3 IRadAn=         5 AccDes= 0.00D+00
 Harris functional with IExCor=  205 and IRadAn=       5 diagonalized for initial guess.
 HarFok:  IExCor=  205 AccDes= 0.00D+00 IRadAn=         5 IDoV= 1 UseB2=F ITyADJ=14
 ICtDFT=  3500011 ScaDFX=  1.000000  1.000000  1.000000  1.000000
 FoFCou: FMM=F IPFlag=           0 FMFlag=      100000 FMFlg1=           0
         NFxFlg=           0 DoJE=T BraDBF=F KetDBF=T FulRan=T
         wScrn=  0.000000 ICntrl=       500 IOpCl=  0 I1Cent=   200000004 NGrid=           0
         NMat0=    1 NMatS0=      1 NMatT0=    0 NMatD0=    1 NMtDS0=    0 NMtDT0=    0
 Symmetry not used in FoFCou.
 Keep R1 ints in memory in canonical form, NReq=397720213.
 Requested convergence on RMS density matrix=1.00D-08 within 128 cycles.
 Requested convergence on MAX density matrix=1.00D-06.
 Requested convergence on             energy=1.00D-06.
 No special actions if energy rises.
 SCF Done:  E(RHF) =  -661.295086072     A.U. after   15 cycles
            NFock= 15  Conv=0.47D-08     -V/T= 2.0024
 ExpMin= 1.61D-01 ExpMax= 5.48D+03 ExpMxC= 8.25D+02 IAcc=3 IRadAn=         5 AccDes= 0.00D+00
 HarFok:  IExCor=  205 AccDes= 0.00D+00 IRadAn=         5 IDoV=-2 UseB2=F ITyADJ=14
 ICtDFT= 12500011 ScaDFX=  1.000000  1.000000  1.000000  1.000000
 Range of M.O.s used for correlation:    15   236
 NBasis=   236 NAE=    52 NBE=    52 NFC=    14 NFV=     0
 NROrb=    222 NOA=    38 NOB=    38 NVA=   184 NVB=   184
 Fully direct method using O(ONN) memory.
 JobTyp=1 Pass  1:  I=  15 to  52 NPSUse=  4 ParTrn=T ParDer=T DoDerP=T.
 Spin components of T(2) and E(2):
     alpha-alpha T2 =       0.9146360437D-01 E2=     -0.2725923148D+00
     alpha-beta  T2 =       0.4916615524D+00 E2=     -0.1488343075D+01
     beta-beta   T2 =       0.9146360437D-01 E2=     -0.2725923148D+00
 ANorm=    0.1294059025D+01
 E2 =    -0.2033527705D+01 EUMP2 =    -0.66332861377636D+03
          IDoAtm=111111111111111111111111111
          Differentiating once with respect to electric field.
                with respect to dipole field.
          Differentiating once with respect to nuclear coordinates.
 Keep R1 ints in memory in canonical form, NReq=397723379.
          There are     1 degrees of freedom in the 1st order CPHF.  IDoFFX=0 NUNeed=     1.
[...]
    27  H    4.716794   4.401189   3.357103   3.637614   2.025615
                   16         17         18         19         20
    16  C    0.000000
    17  H    3.473411   0.000000
    18  H    4.123177   2.234534   0.000000
    19  H    3.000019   4.187766   3.557876   0.000000
    20  H    4.401667   4.352419   2.955450   1.768950   0.000000
    21  H    5.097969   6.429105   5.135066   2.500113   2.521341
    22  H    5.263362   6.073180   4.345408   3.070481   2.463443
    23  H    3.674142   6.184779   5.432702   2.701894   3.842947
    24  H    5.123206   7.183952   5.945575   3.847918   4.318366
    25  H    3.813313   6.128281   5.338205   4.168994   4.985158
    26  H    4.503331   5.830296   4.451501   4.029274   4.177900
    27  H    1.090025   4.241020   5.147800   3.646763   5.221171
                   21         22         23         24         25
    21  H    0.000000
    22  H    1.758950   0.000000
    23  H    2.470595   3.063110   0.000000
    24  H    2.517525   2.461018   1.764302   0.000000
    25  H    4.311913   3.838334   2.444489   2.519099   0.000000
    26  H    3.844428   2.700979   3.060459   2.495086   1.769029
    27  H    5.684330   6.090445   4.072493   5.675388   4.410401
                   26         27
    26  H    0.000000
    27  H    5.366128   0.000000
 Symmetry turned off by external request.
 Stoichiometry    C9H13N3O2
 Framework group  C1[X(C9H13N3O2)]
 Deg. of freedom    75
 Full point group                 C1      NOp   1
 Rotational constants (GHZ):           1.6438060           0.4225793           0.3755101

 **********************************************************************

            Population analysis using the SCF Density.

 **********************************************************************

 Alpha  occ. eigenvalues --  -20.59298 -20.58984 -15.84714 -15.64207 -15.55873
 Alpha  occ. eigenvalues --  -11.35071 -11.29600 -11.29562 -11.28748 -11.27081
 Alpha  occ. eigenvalues --  -11.23747 -11.23196 -11.22592 -11.22057  -1.57145
 Alpha  occ. eigenvalues --   -1.36751  -1.31001  -1.22822  -1.14698  -1.09803
 Alpha  occ. eigenvalues --   -1.02765  -1.01276  -0.94514  -0.89689  -0.85469
 Alpha  occ. eigenvalues --   -0.82498  -0.78708  -0.77373  -0.75221  -0.72078
 Alpha  occ. eigenvalues --   -0.69848  -0.69294  -0.67736  -0.64718  -0.63917
 Alpha  occ. eigenvalues --   -0.62227  -0.60245  -0.57799  -0.56818  -0.55148
 Alpha  occ. eigenvalues --   -0.54545  -0.50557  -0.50357  -0.48788  -0.48115
 Alpha  occ. eigenvalues --   -0.47409  -0.46151  -0.45894  -0.43695  -0.41968
 Alpha  occ. eigenvalues --   -0.39259  -0.33638
 Alpha virt. eigenvalues --    0.07408   0.11317   0.17182   0.21882   0.24377
 Alpha virt. eigenvalues --    0.26044   0.26769   0.28682   0.29255   0.29411
 Alpha virt. eigenvalues --    0.30786   0.32008   0.32070   0.32835   0.33973
 Alpha virt. eigenvalues --    0.34419   0.35986   0.37536   0.38638   0.40496
 Alpha virt. eigenvalues --    0.41094   0.42010   0.44535   0.46031   0.46526
 Alpha virt. eigenvalues --    0.47374   0.49053   0.54175   0.57542   0.60278
 Alpha virt. eigenvalues --    0.63796   0.69407   0.69842   0.72998   0.74039
 Alpha virt. eigenvalues --    0.74966   0.75644   0.76490   0.78626   0.79688
 Alpha virt. eigenvalues --    0.81557   0.83543   0.85443   0.85852   0.88739
 Alpha virt. eigenvalues --    0.89092   0.91545   0.91833   0.92983   0.94585
 Alpha virt. eigenvalues --    0.95359   0.97843   1.00192   1.02017   1.02154
 Alpha virt. eigenvalues --    1.03409   1.05941   1.07315   1.08356   1.09051
 Alpha virt. eigenvalues --    1.10666   1.11096   1.12085   1.12218   1.13855
 Alpha virt. eigenvalues --    1.14098   1.15209   1.15579   1.17270   1.18332
 Alpha virt. eigenvalues --    1.18808   1.21582   1.22218   1.23290   1.24049
 Alpha virt. eigenvalues --    1.25204   1.26140   1.27948   1.28106   1.29570
 Alpha virt. eigenvalues --    1.30179   1.33324   1.35244   1.37289   1.40081
 Alpha virt. eigenvalues --    1.42543   1.48045   1.49481   1.49761   1.54791
 Alpha virt. eigenvalues --    1.57208   1.60240   1.60441   1.63621   1.65684
 Alpha virt. eigenvalues --    1.66653   1.67644   1.72437   1.75888   1.79277
 Alpha virt. eigenvalues --    1.80680   1.84309   1.87813   1.89937   1.92350
 Alpha virt. eigenvalues --    1.94229   1.95692   1.99924   2.01038   2.03265
 Alpha virt. eigenvalues --    2.04014   2.06521   2.08446   2.09504   2.12633
 Alpha virt. eigenvalues --    2.12921   2.15768   2.18618   2.20141   2.22406
 Alpha virt. eigenvalues --    2.23015   2.23927   2.25214   2.28352   2.28861
 Alpha virt. eigenvalues --    2.31380   2.33373   2.35145   2.36610   2.38022
 Alpha virt. eigenvalues --    2.39458   2.42767   2.44652   2.46356   2.46673
 Alpha virt. eigenvalues --    2.49874   2.52511   2.54223   2.55638   2.59593
 Alpha virt. eigenvalues --    2.62558   2.66066   2.66960   2.69204   2.70437
 Alpha virt. eigenvalues --    2.71341   2.72601   2.76691   2.77926   2.83664
 Alpha virt. eigenvalues --    2.87992   2.89371   2.92153   2.93578   2.95910
 Alpha virt. eigenvalues --    2.99224   3.01287   3.04025   3.06287   3.09059
 Alpha virt. eigenvalues --    3.09596   3.15730   3.21036   3.24060   3.27444
 Alpha virt. eigenvalues --    3.32976   3.36117   3.39160   3.51537   3.66611
 Alpha virt. eigenvalues --    4.12636   4.26165   4.33986   4.38373   4.46547
 Alpha virt. eigenvalues --    4.55493   4.61570   4.62150   4.73661   4.79357
 Alpha virt. eigenvalues --    4.99573   5.00770   5.07394   5.09863
          Condensed to atoms (all electrons):
               1          2          3          4          5          6
     1  O    8.316645   0.304911  -0.082425  -0.083199   0.003964  -0.000018
     2  N    0.304911   5.727442   0.300020   0.259945  -0.053412   0.001073
     3  O   -0.082425   0.300020   8.350241  -0.091928   0.002895   0.000732
     4  C   -0.083199   0.259945  -0.091928   5.229327   0.555168  -0.052549
     5  C    0.003964  -0.053412   0.002895   0.555168   4.721976   0.325253
     6  N   -0.000018   0.001073   0.000732  -0.052549   0.325253   7.186156
     7  C    0.000003  -0.000167   0.000000   0.005045  -0.031326   0.170390
     8  H   -0.000000   0.000002  -0.000000  -0.000189   0.002850  -0.048432
     9  C   -0.000000  -0.000007   0.000000   0.000609   0.000963  -0.062577
    10  C   -0.000000   0.000000   0.000000  -0.000029  -0.000062   0.003734
    11  C   -0.000000  -0.000000  -0.000000  -0.000036   0.000024  -0.000195
    12  C    0.000000   0.000002  -0.000000  -0.000208  -0.000170   0.004110
    13  C   -0.000017  -0.000002  -0.000001  -0.009698  -0.001240  -0.051916
    14  H   -0.000002  -0.000047   0.000001   0.002330   0.004854  -0.006271
    15  N    0.000537   0.002396  -0.000018  -0.061464  -0.008584   0.002080
    16  C    0.001417  -0.027778   0.002701   0.332342  -0.052956   0.000803
    17  H    0.000247  -0.007162   0.017658  -0.023411   0.374293  -0.032897
    18  H    0.000001  -0.000053   0.000011   0.001544  -0.030892   0.338488
    19  H    0.000000  -0.000004  -0.000000  -0.001129   0.001297  -0.000883
    20  H    0.000000  -0.000000   0.000000  -0.000117   0.000144   0.000001
    21  H   -0.000000  -0.000000  -0.000000   0.000001   0.000001  -0.000079
    22  H   -0.000000   0.000000  -0.000000  -0.000000  -0.000003  -0.000113
    23  H    0.000000  -0.000000   0.000000   0.000041   0.000002  -0.000032
    24  H    0.000000   0.000000   0.000000   0.000000  -0.000000   0.000006
    25  H    0.000000  -0.000000   0.000000   0.000032  -0.000002  -0.000094
    26  H    0.000000  -0.000000   0.000000   0.000002   0.000002  -0.000066
    27  H    0.005695  -0.000901   0.000000  -0.064681   0.002662  -0.000006
               7          8          9         10         11         12
     1  O    0.000003  -0.000000  -0.000000  -0.000000  -0.000000   0.000000
     2  N   -0.000167   0.000002  -0.000007   0.000000  -0.000000   0.000002
     3  O    0.000000  -0.000000   0.000000   0.000000  -0.000000  -0.000000
     4  C    0.005045  -0.000189   0.000609  -0.000029  -0.000036  -0.000208
     5  C   -0.031326   0.002850   0.000963  -0.000062   0.000024  -0.000170
     6  N    0.170390  -0.048432  -0.062577   0.003734  -0.000195   0.004110
     7  C    5.035186   0.416593   0.351527  -0.054659  -0.009214  -0.062443
     8  H    0.416593   0.532886  -0.051791   0.000215  -0.000197  -0.002377
     9  C    0.351527  -0.051791   5.152151   0.326562  -0.050898  -0.004928
    10  C   -0.054659   0.000215   0.326562   5.118304   0.336930  -0.061468
    11  C   -0.009214  -0.000197  -0.050898   0.336930   5.121690   0.336000
    12  C   -0.062443  -0.002377  -0.004928  -0.061468   0.336000   5.123227
    13  C    0.328880  -0.036488  -0.062163  -0.000067  -0.050256   0.372153
    14  H   -0.047683  -0.000650   0.004371  -0.000395   0.004227  -0.036772
    15  N   -0.060893   0.003774  -0.013069   0.001471  -0.013670  -0.084553
    16  C    0.000013  -0.000180  -0.000347  -0.000094   0.000068   0.002373
    17  H    0.001540  -0.000072  -0.000032   0.000001   0.000000   0.000001
    18  H   -0.021387  -0.004717   0.001628  -0.000083   0.000003  -0.000117
    19  H   -0.036754   0.004231   0.392019  -0.032765  -0.002114   0.000663
    20  H   -0.042181  -0.001987   0.399209  -0.034889   0.003901  -0.000433
    21  H    0.004628  -0.000068  -0.036571   0.402502  -0.034877   0.004370
    22  H   -0.004952   0.003533  -0.046916   0.397597  -0.045236  -0.001044
    23  H    0.000665   0.000036  -0.002031  -0.039029   0.399168  -0.038112
    24  H   -0.000132  -0.000103   0.004391  -0.038362   0.402415  -0.038470
    25  H    0.005237  -0.000031  -0.000431   0.004202  -0.033221   0.397776
    26  H   -0.003745   0.001657   0.000960  -0.002259  -0.041594   0.396036
    27  H   -0.000393   0.000007  -0.000035   0.000004   0.000016  -0.000038
              13         14         15         16         17         18
     1  O   -0.000017  -0.000002   0.000537   0.001417   0.000247   0.000001
     2  N   -0.000002  -0.000047   0.002396  -0.027778  -0.007162  -0.000053
     3  O   -0.000001   0.000001  -0.000018   0.002701   0.017658   0.000011
     4  C   -0.009698   0.002330  -0.061464   0.332342  -0.023411   0.001544
     5  C   -0.001240   0.004854  -0.008584  -0.052956   0.374293  -0.030892
     6  N   -0.051916  -0.006271   0.002080   0.000803  -0.032897   0.338488
     7  C    0.328880  -0.047683  -0.060893   0.000013   0.001540  -0.021387
     8  H   -0.036488  -0.000650   0.003774  -0.000180  -0.000072  -0.004717
     9  C   -0.062163   0.004371  -0.013069  -0.000347  -0.000032   0.001628
    10  C   -0.000067  -0.000395   0.001471  -0.000094   0.000001  -0.000083
    11  C   -0.050256   0.004227  -0.013670   0.000068   0.000000   0.000003
    12  C    0.372153  -0.036772  -0.084553   0.002373   0.000001  -0.000117
    13  C    5.040519   0.406759   0.248834  -0.066596  -0.000047   0.002921
    14  H    0.406759   0.526672  -0.035929  -0.006895   0.000016  -0.000087
    15  N    0.248834  -0.035929   6.983825   0.575951  -0.000083  -0.000126
    16  C   -0.066596  -0.006895   0.575951   4.705060   0.001641  -0.000155
    17  H   -0.000047   0.000016  -0.000083   0.001641   0.374527  -0.002737
    18  H    0.002921  -0.000087  -0.000126  -0.000155  -0.002737   0.309919
    19  H   -0.007769   0.000106   0.007469   0.002008   0.000007  -0.000139
    20  H    0.004410  -0.000069   0.000138  -0.000041  -0.000004   0.000587
    21  H   -0.000445   0.000010  -0.000045   0.000004  -0.000000   0.000002
    22  H    0.000021  -0.000052   0.000027  -0.000001   0.000000   0.000000
    23  H   -0.007841   0.000001   0.008821   0.000171   0.000000   0.000000
    24  H    0.004705  -0.000060   0.000111   0.000006   0.000000  -0.000000
    25  H   -0.035421  -0.002883   0.000996  -0.000044  -0.000000   0.000003
    26  H   -0.047645  -0.001036   0.005010  -0.000031   0.000000   0.000000
    27  H    0.004969  -0.000146  -0.041962   0.405776  -0.000079   0.000001
              19         20         21         22         23         24
     1  O    0.000000   0.000000  -0.000000  -0.000000   0.000000   0.000000
     2  N   -0.000004  -0.000000  -0.000000   0.000000  -0.000000   0.000000
     3  O   -0.000000   0.000000  -0.000000  -0.000000   0.000000   0.000000
     4  C   -0.001129  -0.000117   0.000001  -0.000000   0.000041   0.000000
     5  C    0.001297   0.000144   0.000001  -0.000003   0.000002  -0.000000
     6  N   -0.000883   0.000001  -0.000079  -0.000113  -0.000032   0.000006
     7  C   -0.036754  -0.042181   0.004628  -0.004952   0.000665  -0.000132
     8  H    0.004231  -0.001987  -0.000068   0.003533   0.000036  -0.000103
     9  C    0.392019   0.399209  -0.036571  -0.046916  -0.002031   0.004391
    10  C   -0.032765  -0.034889   0.402502   0.397597  -0.039029  -0.038362
    11  C   -0.002114   0.003901  -0.034877  -0.045236   0.399168   0.402415
    12  C    0.000663  -0.000433   0.004370  -0.001044  -0.038112  -0.038470
    13  C   -0.007769   0.004410  -0.000445   0.000021  -0.007841   0.004705
    14  H    0.000106  -0.000069   0.000010  -0.000052   0.000001  -0.000060
    15  N    0.007469   0.000138  -0.000045   0.000027   0.008821   0.000111
    16  C    0.002008  -0.000041   0.000004  -0.000001   0.000171   0.000006
    17  H    0.000007  -0.000004  -0.000000   0.000000   0.000000   0.000000
    18  H   -0.000139   0.000587   0.000002   0.000000   0.000000  -0.000000
    19  H    0.504622  -0.024544  -0.002744   0.003967   0.001545  -0.000070
    20  H   -0.024544   0.537763  -0.002714  -0.002947  -0.000045  -0.000082
    21  H   -0.002744  -0.002714   0.523834  -0.027385  -0.002895  -0.002254
    22  H    0.003967  -0.002947  -0.027385   0.571301   0.004129  -0.003618
    23  H    0.001545  -0.000045  -0.002895   0.004129   0.498926  -0.025413
    24  H   -0.000070  -0.000082  -0.002254  -0.003618  -0.025413   0.537516
    25  H   -0.000029   0.000013  -0.000087  -0.000082  -0.002256  -0.002325
    26  H    0.000021  -0.000030  -0.000080   0.002387   0.004082  -0.002996
    27  H    0.000056   0.000000  -0.000000   0.000000  -0.000036  -0.000000
              25         26         27
     1  O    0.000000   0.000000   0.005695
     2  N   -0.000000  -0.000000  -0.000901
     3  O    0.000000   0.000000   0.000000
     4  C    0.000032   0.000002  -0.064681
     5  C   -0.000002   0.000002   0.002662
     6  N   -0.000094  -0.000066  -0.000006
     7  C    0.005237  -0.003745  -0.000393
     8  H   -0.000031   0.001657   0.000007
     9  C   -0.000431   0.000960  -0.000035
    10  C    0.004202  -0.002259   0.000004
    11  C   -0.033221  -0.041594   0.000016
    12  C    0.397776   0.396036  -0.000038
    13  C   -0.035421  -0.047645   0.004969
    14  H   -0.002883  -0.001036  -0.000146
    15  N    0.000996   0.005010  -0.041962
    16  C   -0.000044  -0.000031   0.405776
    17  H   -0.000000   0.000000  -0.000079
    18  H    0.000003   0.000000   0.000001
    19  H   -0.000029   0.000021   0.000056
    20  H    0.000013  -0.000030   0.000000
    21  H   -0.000087  -0.000080  -0.000000
    22  H   -0.000082   0.002387   0.000000
    23  H   -0.002256   0.004082  -0.000036
    24  H   -0.002325  -0.002996  -0.000000
    25  H    0.505277  -0.023992  -0.000018
    26  H   -0.023992   0.564581   0.000001
    27  H   -0.000018   0.000001   0.441192
 Mulliken charges:
               1
     1  O   -0.467759
     2  N    0.493742
     3  O   -0.499886
     4  C    0.002253
     5  C    0.182302
     6  N   -0.776699
     7  C    0.056222
     8  H    0.181498
     9  C   -0.302596
    10  C   -0.327360
    11  C   -0.322935
    12  C   -0.305578
    13  C   -0.036560
    14  H    0.189632
    15  N   -0.521045
    16  C    0.124787
    17  H    0.296592
    18  H    0.405387
    19  H    0.190934
    20  H    0.163919
    21  H    0.174891
    22  H    0.149387
    23  H    0.200102
    24  H    0.164736
    25  H    0.187381
    26  H    0.148736
    27  H    0.247915
 Sum of Mulliken charges =  -0.00000
 Mulliken charges with hydrogens summed into heavy atoms:
               1
     1  O   -0.467759
     2  N    0.493742
     3  O   -0.499886
     4  C    0.002253
     5  C    0.478894
     6  N   -0.371312
     7  C    0.237721
     9  C    0.052257
    10  C   -0.003082
    11  C    0.041903
    12  C    0.030540
    13  C    0.153072
    15  N   -0.521045
    16  C    0.372702
 Electronic spatial extent (au):  <R**2>=           2990.9006
 Charge=              0.0000 electrons
 Dipole moment (field-independent basis, Debye):
    X=              5.3144    Y=              4.6343    Z=              1.9909  Tot=              7.3269
 Quadrupole moment (field-independent basis, Debye-Ang):
   XX=           -105.4386   YY=            -79.6285   ZZ=            -81.4009
   XY=             -0.9658   XZ=             -2.6772   YZ=              3.2316
 Traceless Quadrupole moment (field-independent basis, Debye-Ang):
   XX=            -16.6160   YY=              9.1942   ZZ=              7.4218
   XY=             -0.9658   XZ=             -2.6772   YZ=              3.2316
 Octapole moment (field-independent basis, Debye-Ang**2):
  XXX=             86.8045  YYY=             32.2741  ZZZ=              4.0913  XYY=             -5.0863
  XXY=              7.0376  XXZ=             16.3057  XZZ=             -9.2056  YZZ=              0.2242
  YYZ=             11.4593  XYZ=             -1.9822
 Hexadecapole moment (field-independent basis, Debye-Ang**3):
 XXXX=          -3320.9341 YYYY=           -610.2764 ZZZZ=           -317.8031 XXXY=             -2.7171
 XXXZ=            -93.2579 YYYX=              7.5877 YYYZ=             34.2898 ZZZX=            -38.8960
 ZZZY=             10.6885 XXYY=           -623.4774 XXZZ=           -523.7220 YYZZ=           -158.5642
 XXYZ=              6.9163 YYXZ=            -14.4782 ZZXY=              8.6274
 N-N= 9.313799797486D+02 E-N=-3.409481833880D+03  KE= 6.596232784664D+02
 Unable to Open any file for archive entry.
 1\1\GINC-LOTUS\FOpt\RMP2-FC\6-31G(d)\C9H13N3O2\ALEXEY\02-Jul-2023\0\\#
 MP2/6-31G* SCF=Tight Opt=(ModRedun, MaxCycle=20 ) NoSymm\\MolName:\\0,
 1\O,-3.520174442,-1.3391490091,-0.4211959666\N,-3.0918693359,-0.174540
 5159,-0.3064596691\O,-3.8206252471,0.8354245806,-0.3637844372\C,-1.657
 7874307,-0.0053087485,-0.110561056\C,-1.2874694593,1.2515406848,0.3002
 245202\N,-0.052256555,1.733152258,0.5046508602\C,1.2149157628,1.022219
 1634,0.4199242028\H,1.887262542,1.5522320606,1.1097105435\C,1.85159209
 33,1.0392418495,-0.9683924055\C,3.2580578873,0.4366217144,-0.872954684
 2\C,3.2440939017,-0.9610231986,-0.2482775816\C,2.5124555026,-0.9761385
 877,1.0954212443\C,1.0893753988,-0.4314448261,0.9189852441\H,0.5523182
 203,-0.4204824835,1.8787101747\N,0.4145789811,-1.3440573927,0.00090450
 32\C,-0.8485801449,-1.196743596,-0.2533504667\H,-2.0859713378,1.979987
 8921,0.4113478179\H,-0.0091308068,2.6934867965,0.8246205014\H,1.224283
 9892,0.4589418719,-1.6540845283\H,1.8940125653,2.0673632735,-1.3480959
 503\H,3.7145169656,0.4025073477,-1.8688455419\H,3.8854878871,1.1035704
 739,-0.2647307421\H,2.7347220612,-1.658147857,-0.9214589046\H,4.271392
 4352,-1.3228153337,-0.1221107241\H,2.4507540462,-1.9982661947,1.482539
 2494\H,3.0538209284,-0.3736365994,1.8380002613\H,-1.3207864084,-2.0105
 456241,-0.8037164649\\Version=ES64L-G16RevC.02\HF=-661.295957\MP2=-663
 .3314638\RMSD=8.740e-09\RMSF=3.352e-03\Dipole=1.9629048,1.6475349,0.69
 27701\PG=C01 [X(C9H13N3O2)]\\@
 The archive entry for this job was punched.


 FAULTILY FAULTLESS, ICILY REGULAR, SPLENDIDLY NULL...
           MAUDE BY TENNYSON
 Job cpu time:       0 days  1 hours 27 minutes 33.8 seconds.
 Elapsed time:       0 days  0 hours 26 minutes 26.9 seconds.
 File lengths (MBytes):  RWF=     36 Int=      0 D2E=      0 Chk=      7 Scr=      1
 Normal termination of Gaussian 16 at Sun Jul  2 10:39:33 2023.
