 Entering Gaussian System, Link 0=g16
 Initial command:
 /home/alexey/programs//g16/l1.exe "/home/alexey/tmp/Gau-1486967.inp" -scrdir="/home/alexey/tmp/"
 Entering Link 1 = /home/alexey/programs//g16/l1.exe PID=   1486969.
  
 Copyright (c) 1988-2021, Gaussian, Inc.  All Rights Reserved.
  
 This is part of the Gaussian(R) 16 program.  It is based on
 the Gaussian(R) 09 system (copyright 2009, Gaussian, Inc.),
 the Gaussian(R) 03 system (copyright 2003, Gaussian, Inc.),
 the Gaussian(R) 98 system (copyright 1998, Gaussian, Inc.),
 the Gaussian(R) 94 system (copyright 1995, Gaussian, Inc.),
 the Gaussian 92(TM) system (copyright 1992, Gaussian, Inc.),
 the Gaussian 90(TM) system (copyright 1990, Gaussian, Inc.),
 the Gaussian 88(TM) system (copyright 1988, Gaussian, Inc.),
 the Gaussian 86(TM) system (copyright 1986, Carnegie Mellon
 University), and the Gaussian 82(TM) system (copyright 1983,
 Carnegie Mellon University). Gaussian is a federally registered
 trademark of Gaussian, Inc.
  
 This software contains proprietary and confidential information,
 including trade secrets, belonging to Gaussian, Inc.
  
 This software is provided under written license and may be
 used, copied, transmitted, or stored only in accord with that
 written license.
  
 The following legend is applicable only to US Government
 contracts under FAR:
  
                    RESTRICTED RIGHTS LEGEND
  
 Use, reproduction and disclosure by the US Government is
 subject to restrictions as set forth in subparagraphs (a)
 and (c) of the Commercial Computer Software - Restricted
 Rights clause in FAR 52.227-19.
  
 Gaussian, Inc.
 340 Quinnipiac St., Bldg. 40, Wallingford CT 06492
  
  
 ---------------------------------------------------------------
 Warning -- This program may not be used in any manner that
 competes with the business of Gaussian, Inc. or will provide
 assistance to any competitor of Gaussian, Inc.  The licensee
 of this program is prohibited from giving any competitor of
 Gaussian, Inc. access to this program.  By using this program,
 the user acknowledges that Gaussian, Inc. is engaged in the
 business of creating and licensing software in the field of
 computational chemistry and represents and warrants to the
 licensee that it is not a competitor of Gaussian, Inc. and that
 it will not use this program in any manner prohibited above.
 ---------------------------------------------------------------
  

 Cite this work as:
 Gaussian 16, Revision C.02,
 M. J. Frisch, G. W. Trucks, H. B. Schlegel, G. E. Scuseria, 
 M. A. Robb, J. R. Cheeseman, G. Scalmani, V. Barone, 
 G. A. Petersson, H. Nakatsuji, X. Li, M. Caricato, A. V. Marenich, 
 J. Bloino, B. G. Janesko, R. Gomperts, B. Mennucci, H. P. Hratchian, 
 J. V. Ortiz, A. F. Izmaylov, J. L. Sonnenberg, D. Williams-Young, 
 F. Ding, F. Lipparini, F. Egidi, J. Goings, B. Peng, A. Petrone, 
 T. Henderson, D. Ranasinghe, V. G. Zakrzewski, J. Gao, N. Rega, 
 G. Zheng, W. Liang, M. Hada, M. Ehara, K. Toyota, R. Fukuda, 
 J. Hasegawa, M. Ishida, T. Nakajima, Y. Honda, O. Kitao, H. Nakai, 
 T. Vreven, K. Throssell, J. A. Montgomery, Jr., J. E. Peralta, 
 F. Ogliaro, M. J. Bearpark, J. J. Heyd, E. N. Brothers, K. N. Kudin, 
 V. N. Staroverov, T. A. Keith, R. Kobayashi, J. Normand, 
 K. Raghavachari, A. P. Rendell, J. C. Burant, S. S. Iyengar, 
 J. Tomasi, M. Cossi, J. M. Millam, M. Klene, C. Adamo, R. Cammi, 
 J. W. Ochterski, R. L. Martin, K. Morokuma, O. Farkas, 
 J. B. Foresman, and D. J. Fox, Gaussian, Inc., Wallingford CT, 2019.
 
 ******************************************
 Gaussian 16:  ES64L-G16RevC.02  7-Dec-2021
                 2-Jul-2023 
 ******************************************
 %mem=8GB
 %NPROCS=4
 Will use up to    4 processors via shared memory.
 %NoSave
 ---------------------------------------------------------
 #MP2/6-31G* SCF=Tight Opt=(ModRedun, MaxCycle=20 ) NoSymm
 ---------------------------------------------------------
 1/6=20,18=120,19=15,38=1/1,3;
 2/9=110,12=2,15=1,17=6,18=5,40=1/2;
 3/5=1,6=6,7=1,11=9,25=1,30=1,71=1/1,2,3;
 4//1;
 5/5=2,32=2,38=5/2;
 8/6=4,10=2/1;
 9/15=2,16=-3/6;
 10/5=1,31=1/2;
 6/7=2,8=2,9=2,10=2/1;
 7/12=2,30=1/1,2,3,16;
 1/6=20,18=20,19=15/3(2);
 2/9=110,15=1/2;
 99//99;
 2/9=110,15=1/2;
 3/5=1,6=6,7=1,11=9,25=1,30=1,71=1/1,2,3;
 4/5=5,16=3,69=1/1;
 5/5=2,32=2,38=5/2;
 8/6=4,10=2/1;
 9/15=2,16=-3/6;
 10/5=1,31=1/2;
 7/12=2,30=1/1,2,3,16;
 1/6=20,18=20,19=15/3(-8);
 2/9=110,15=1/2;
 6/7=2,8=2,9=2,10=2/1;
 99/9=10/99;
 --------
 MolName:
 --------
 Symbolic Z-matrix:
 Charge =  0 Multiplicity = 1
 8                    0    -3.65122  -1.37723  -0.34637 
 7                    0    -3.25781  -0.22165  -0.19685 
 8                    0    -4.00794   0.7552   -0.18001 
 6                    0    -1.75079   0.00557  -0.05364 
 6                    0    -1.35609   1.3099    0.2661 
 7                    0    -0.07897   1.73814   0.51059 
 6                    0     1.20407   0.98311   0.41876 
 1                    0     1.89776   1.48426   1.14304 
 6                    0     1.90522   1.04434  -0.96136 
 6                    0     3.32987   0.47104  -0.83699 
 6                    0     3.30766  -0.94645  -0.24323 
 6                    0     2.51848  -0.98947   1.08309 
 6                    0     1.06723  -0.46743   0.89839 
 1                    0     0.55772  -0.51142   1.88944 
 7                    0     0.37711  -1.34771  -0.04618 
 6                    0    -0.87884  -1.17652  -0.29849 
 1                    0    -2.13916   2.07888   0.37201 
 1                    0     0.15705   2.73143   0.44814 
 1                    0     1.32655   0.46344  -1.71072 
 1                    0     1.9645    2.0958   -1.31427 
 1                    0     3.8201    0.45352  -1.83495 
 1                    0     3.93155   1.12918  -0.17111 
 1                    0     2.83367  -1.63874  -0.97522 
 1                    0     4.34765  -1.30101  -0.07315 
 1                    0     2.4866   -2.03654   1.45635 
 1                    0     3.04068  -0.37421   1.84539 
 1                    0    -1.39265  -1.99143  -0.83075 
 
 The following ModRedundant input section has been read:
 D       5       4      16      15 F                                           
 D       1       2       4      16 F                                           
 D       7      13      15      16 F                                           
 D       7       9      10      11 F                                           
 D       9      10      11      12 F                                           
 D       6       7      13      15 F                                           
 

 GradGradGradGradGradGradGradGradGradGradGradGradGradGradGradGradGradGrad
 Berny optimization.
 Initialization pass.
                           ----------------------------
                           !    Initial Parameters    !
                           ! (Angstroms and Degrees)  !
 --------------------------                            --------------------------
 ! Name  Definition              Value          Derivative Info.                !
 --------------------------------------------------------------------------------
 ! R1    R(1,2)                  1.2298         estimate D2E/DX2                !
 ! R2    R(2,3)                  1.2318         estimate D2E/DX2                !
 ! R3    R(2,4)                  1.5308         estimate D2E/DX2                !
 ! R4    R(4,5)                  1.3997         estimate D2E/DX2                !
 ! R5    R(4,16)                 1.4892         estimate D2E/DX2                !
 ! R6    R(5,6)                  1.369          estimate D2E/DX2                !
 ! R7    R(5,17)                 1.1026         estimate D2E/DX2                !
 ! R8    R(6,7)                  1.4915         estimate D2E/DX2                !
 ! R9    R(6,18)                 1.0229         estimate D2E/DX2                !
 ! R10   R(7,8)                  1.1211         estimate D2E/DX2                !
 ! R11   R(7,9)                  1.5492         estimate D2E/DX2                !
 ! R12   R(7,13)                 1.5339         estimate D2E/DX2                !
 ! R13   R(9,10)                 1.5407         estimate D2E/DX2                !
 ! R14   R(9,19)                 1.1108         estimate D2E/DX2                !
 ! R15   R(9,20)                 1.1107         estimate D2E/DX2                !
 ! R16   R(10,11)                1.537          estimate D2E/DX2                !
 ! R17   R(10,21)                1.112          estimate D2E/DX2                !
 ! R18   R(10,22)                1.1129         estimate D2E/DX2                !
 ! R19   R(11,12)                1.5439         estimate D2E/DX2                !
 ! R20   R(11,23)                1.1134         estimate D2E/DX2                !
 ! R21   R(11,24)                1.1119         estimate D2E/DX2                !
 ! R22   R(12,13)                1.5533         estimate D2E/DX2                !
 ! R23   R(12,25)                1.1121         estimate D2E/DX2                !
 ! R24   R(12,26)                1.1101         estimate D2E/DX2                !
 ! R25   R(13,14)                1.1152         estimate D2E/DX2                !
 ! R26   R(13,15)                1.464          estimate D2E/DX2                !
 ! R27   R(15,16)                1.2924         estimate D2E/DX2                !
 ! R28   R(16,27)                1.1006         estimate D2E/DX2                !
 ! A1    A(1,2,3)              123.5061         estimate D2E/DX2                !
 ! A2    A(1,2,4)              117.7603         estimate D2E/DX2                !
 ! A3    A(3,2,4)              118.7213         estimate D2E/DX2                !
 ! A4    A(2,4,5)              115.9312         estimate D2E/DX2                !
 ! A5    A(2,4,16)             116.3108         estimate D2E/DX2                !
 ! A6    A(5,4,16)             127.7442         estimate D2E/DX2                !
 ! A7    A(4,5,6)              126.5362         estimate D2E/DX2                !
 ! A8    A(4,5,17)             118.1354         estimate D2E/DX2                !
 ! A9    A(6,5,17)             115.2908         estimate D2E/DX2                !
 ! A10   A(5,6,7)              129.2813         estimate D2E/DX2                !
 ! A11   A(5,6,18)             120.5388         estimate D2E/DX2                !
 ! A12   A(7,6,18)             106.8177         estimate D2E/DX2                !
 ! A13   A(6,7,8)              105.4381         estimate D2E/DX2                !
 ! A14   A(6,7,9)              115.0972         estimate D2E/DX2                !
 ! A15   A(6,7,13)             112.5015         estimate D2E/DX2                !
 ! A16   A(8,7,9)              106.1297         estimate D2E/DX2                !
 ! A17   A(8,7,13)             106.016          estimate D2E/DX2                !
 ! A18   A(9,7,13)             110.8736         estimate D2E/DX2                !
 ! A19   A(7,9,10)             109.3825         estimate D2E/DX2                !
 ! A20   A(7,9,19)             110.1537         estimate D2E/DX2                !
 ! A21   A(7,9,20)             110.1591         estimate D2E/DX2                !
 ! A22   A(10,9,19)            109.9729         estimate D2E/DX2                !
 ! A23   A(10,9,20)            109.1812         estimate D2E/DX2                !
 ! A24   A(19,9,20)            107.9704         estimate D2E/DX2                !
 ! A25   A(9,10,11)            111.1614         estimate D2E/DX2                !
 ! A26   A(9,10,21)            109.9417         estimate D2E/DX2                !
 ! A27   A(9,10,22)            109.1573         estimate D2E/DX2                !
 ! A28   A(11,10,21)           109.7876         estimate D2E/DX2                !
 ! A29   A(11,10,22)           108.7878         estimate D2E/DX2                !
 ! A30   A(21,10,22)           107.935          estimate D2E/DX2                !
 ! A31   A(10,11,12)           111.4042         estimate D2E/DX2                !
 ! A32   A(10,11,23)           109.0021         estimate D2E/DX2                !
 ! A33   A(10,11,24)           109.8572         estimate D2E/DX2                !
 ! A34   A(12,11,23)           109.2584         estimate D2E/DX2                !
 ! A35   A(12,11,24)           109.7437         estimate D2E/DX2                !
 ! A36   A(23,11,24)           107.4862         estimate D2E/DX2                !
 ! A37   A(11,12,13)           111.4721         estimate D2E/DX2                !
 ! A38   A(11,12,25)           109.2215         estimate D2E/DX2                !
 ! A39   A(11,12,26)           109.5123         estimate D2E/DX2                !
 ! A40   A(13,12,25)           109.2425         estimate D2E/DX2                !
 ! A41   A(13,12,26)           109.5653         estimate D2E/DX2                !
 ! A42   A(25,12,26)           107.7487         estimate D2E/DX2                !
 ! A43   A(7,13,12)            105.7625         estimate D2E/DX2                !
 ! A44   A(7,13,14)            110.8506         estimate D2E/DX2                !
 ! A45   A(7,13,15)            114.1364         estimate D2E/DX2                !
 ! A46   A(12,13,14)           107.9343         estimate D2E/DX2                !
 ! A47   A(12,13,15)           108.364          estimate D2E/DX2                !
 ! A48   A(14,13,15)           109.5283         estimate D2E/DX2                !
 ! A49   A(13,15,16)           120.291          estimate D2E/DX2                !
 ! A50   A(4,16,15)            129.9449         estimate D2E/DX2                !
 ! A51   A(4,16,27)            113.1974         estimate D2E/DX2                !
 ! A52   A(15,16,27)           116.7433         estimate D2E/DX2                !
 ! D1    D(1,2,4,5)           -172.9906         estimate D2E/DX2                !
 ! D2    D(1,2,4,16)             8.2586         Frozen                          !
 ! D3    D(3,2,4,5)              8.2385         estimate D2E/DX2                !
 ! D4    D(3,2,4,16)          -170.5122         estimate D2E/DX2                !
 ! D5    D(2,4,5,6)            176.4637         estimate D2E/DX2                !
 ! D6    D(2,4,5,17)            -1.1929         estimate D2E/DX2                !
 ! D7    D(16,4,5,6)            -4.9524         estimate D2E/DX2                !
 ! D8    D(16,4,5,17)          177.391          estimate D2E/DX2                !
 ! D9    D(2,4,16,15)         -167.412          estimate D2E/DX2                !
 ! D10   D(2,4,16,27)           16.6641         estimate D2E/DX2                !
 ! D11   D(5,4,16,15)           14.0088         Frozen                          !
 ! D12   D(5,4,16,27)         -161.9152         estimate D2E/DX2                !
 ! D13   D(4,5,6,7)              4.3707         estimate D2E/DX2                !
 ! D14   D(4,5,6,18)           160.7958         estimate D2E/DX2                !
 ! D15   D(17,5,6,7)          -177.9149         estimate D2E/DX2                !
 ! D16   D(17,5,6,18)          -21.4897         estimate D2E/DX2                !
 ! D17   D(5,6,7,8)           -152.8438         estimate D2E/DX2                !
 ! D18   D(5,6,7,9)             90.5661         estimate D2E/DX2                !
 ! D19   D(5,6,7,13)           -37.7425         estimate D2E/DX2                !
 ! D20   D(18,6,7,8)            48.2478         estimate D2E/DX2                !
 ! D21   D(18,6,7,9)           -68.3423         estimate D2E/DX2                !
 ! D22   D(18,6,7,13)          163.349          estimate D2E/DX2                !
 ! D23   D(6,7,9,10)           168.816          estimate D2E/DX2                !
 ! D24   D(6,7,9,19)           -70.1977         estimate D2E/DX2                !
 ! D25   D(6,7,9,20)            48.8039         estimate D2E/DX2                !
 ! D26   D(8,7,9,10)            52.6198         estimate D2E/DX2                !
 ! D27   D(8,7,9,19)           173.6062         estimate D2E/DX2                !
 ! D28   D(8,7,9,20)           -67.3923         estimate D2E/DX2                !
 ! D29   D(13,7,9,10)          -62.0676         estimate D2E/DX2                !
 ! D30   D(13,7,9,19)           58.9188         estimate D2E/DX2                !
 ! D31   D(13,7,9,20)          177.9203         estimate D2E/DX2                !
 ! D32   D(6,7,13,12)         -165.9518         estimate D2E/DX2                !
 ! D33   D(6,7,13,14)          -49.2153         estimate D2E/DX2                !
 ! D34   D(6,7,13,15)           75.0224         Frozen                          !
 ! D35   D(8,7,13,12)          -51.2008         estimate D2E/DX2                !
 ! D36   D(8,7,13,14)           65.5357         estimate D2E/DX2                !
 ! D37   D(8,7,13,15)         -170.2266         estimate D2E/DX2                !
 ! D38   D(9,7,13,12)           63.5577         estimate D2E/DX2                !
 ! D39   D(9,7,13,14)         -179.7058         estimate D2E/DX2                !
 ! D40   D(9,7,13,15)          -55.4681         estimate D2E/DX2                !
 ! D41   D(7,9,10,11)           54.8122         Frozen                          !
 ! D42   D(7,9,10,21)          176.5892         estimate D2E/DX2                !
 ! D43   D(7,9,10,22)          -65.1929         estimate D2E/DX2                !
 ! D44   D(19,9,10,11)         -66.2839         estimate D2E/DX2                !
 ! D45   D(19,9,10,21)          55.4931         estimate D2E/DX2                !
 ! D46   D(19,9,10,22)         173.7111         estimate D2E/DX2                !
 ! D47   D(20,9,10,11)         175.4223         estimate D2E/DX2                !
 ! D48   D(20,9,10,21)         -62.8007         estimate D2E/DX2                !
 ! D49   D(20,9,10,22)          55.4172         estimate D2E/DX2                !
 ! D50   D(9,10,11,12)         -52.8223         Frozen                          !
 ! D51   D(9,10,11,23)          67.8193         estimate D2E/DX2                !
 ! D52   D(9,10,11,24)        -174.6481         estimate D2E/DX2                !
 ! D53   D(21,10,11,12)       -174.689          estimate D2E/DX2                !
 ! D54   D(21,10,11,23)        -54.0474         estimate D2E/DX2                !
 ! D55   D(21,10,11,24)         63.4852         estimate D2E/DX2                !
 ! D56   D(22,10,11,12)         67.4018         estimate D2E/DX2                !
 ! D57   D(22,10,11,23)       -171.9566         estimate D2E/DX2                !
 ! D58   D(22,10,11,24)        -54.4241         estimate D2E/DX2                !
 ! D59   D(10,11,12,13)         56.6766         estimate D2E/DX2                !
 ! D60   D(10,11,12,25)        177.4869         estimate D2E/DX2                !
 ! D61   D(10,11,12,26)        -64.7342         estimate D2E/DX2                !
 ! D62   D(23,11,12,13)        -63.8145         estimate D2E/DX2                !
 ! D63   D(23,11,12,25)         56.9959         estimate D2E/DX2                !
 ! D64   D(23,11,12,26)        174.7748         estimate D2E/DX2                !
 ! D65   D(24,11,12,13)        178.5682         estimate D2E/DX2                !
 ! D66   D(24,11,12,25)        -60.6215         estimate D2E/DX2                !
 ! D67   D(24,11,12,26)         57.1574         estimate D2E/DX2                !
 ! D68   D(11,12,13,7)         -60.5747         estimate D2E/DX2                !
 ! D69   D(11,12,13,14)       -179.2656         estimate D2E/DX2                !
 ! D70   D(11,12,13,15)         62.2033         estimate D2E/DX2                !
 ! D71   D(25,12,13,7)         178.6272         estimate D2E/DX2                !
 ! D72   D(25,12,13,14)         59.9363         estimate D2E/DX2                !
 ! D73   D(25,12,13,15)        -58.5948         estimate D2E/DX2                !
 ! D74   D(26,12,13,7)          60.8052         estimate D2E/DX2                !
 ! D75   D(26,12,13,14)        -57.8856         estimate D2E/DX2                !
 ! D76   D(26,12,13,15)       -176.4167         estimate D2E/DX2                !
 ! D77   D(7,13,15,16)         -67.1604         Frozen                          !
 ! D78   D(12,13,15,16)        175.298          estimate D2E/DX2                !
 ! D79   D(14,13,15,16)         57.7825         estimate D2E/DX2                !
 ! D80   D(13,15,16,4)          17.5427         estimate D2E/DX2                !
 ! D81   D(13,15,16,27)       -166.6528         estimate D2E/DX2                !
 --------------------------------------------------------------------------------
 Trust Radius=3.00D-01 FncErr=1.00D-07 GrdErr=1.00D-07 EigMax=2.50D+02 EigMin=1.00D-04
 Number of steps in this run=     20 maximum allowed number of steps=    162.
 GradGradGradGradGradGradGradGradGradGradGradGradGradGradGradGradGradGrad

                          Input orientation:                          
 ---------------------------------------------------------------------
 Center     Atomic      Atomic             Coordinates (Angstroms)
 Number     Number       Type             X           Y           Z
 ---------------------------------------------------------------------
      1          8           0       -3.651220   -1.377230   -0.346370
      2          7           0       -3.257810   -0.221650   -0.196850
      3          8           0       -4.007940    0.755200   -0.180010
      4          6           0       -1.750790    0.005570   -0.053640
      5          6           0       -1.356090    1.309900    0.266100
      6          7           0       -0.078970    1.738140    0.510590
      7          6           0        1.204070    0.983110    0.418760
      8          1           0        1.897760    1.484260    1.143040
      9          6           0        1.905220    1.044340   -0.961360
     10          6           0        3.329870    0.471040   -0.836990
     11          6           0        3.307660   -0.946450   -0.243230
     12          6           0        2.518480   -0.989470    1.083090
     13          6           0        1.067230   -0.467430    0.898390
     14          1           0        0.557720   -0.511420    1.889440
     15          7           0        0.377110   -1.347710   -0.046180
     16          6           0       -0.878840   -1.176520   -0.298490
     17          1           0       -2.139160    2.078880    0.372010
     18          1           0        0.157050    2.731430    0.448140
     19          1           0        1.326550    0.463440   -1.710720
     20          1           0        1.964500    2.095800   -1.314270
     21          1           0        3.820100    0.453520   -1.834950
     22          1           0        3.931550    1.129180   -0.171110
     23          1           0        2.833670   -1.638740   -0.975220
     24          1           0        4.347650   -1.301010   -0.073150
     25          1           0        2.486600   -2.036540    1.456350
     26          1           0        3.040680   -0.374210    1.845390
     27          1           0       -1.392650   -1.991430   -0.830750
 ---------------------------------------------------------------------
                    Distance matrix (angstroms):
                    1          2          3          4          5
     1  O    0.000000
     2  N    1.229834   0.000000
     3  O    2.168452   1.231753   0.000000
     4  C    2.368430   1.530767   2.381731   0.000000
     5  C    3.586559   2.485258   2.745727   1.399749   0.000000
     6  N    4.816729   3.800825   4.108516   2.472880   1.369014
     7  C    5.452565   4.662488   5.251240   3.148006   2.585443
     8  H    6.418539   5.593330   6.095841   4.114667   3.374458
     9  C    6.092310   5.370669   5.971564   3.907609   3.494757
    10  C    7.238261   6.654857   7.372640   5.161725   4.886585
    11  C    6.972964   6.605519   7.511166   5.150748   5.205871
    12  C    6.344991   5.966014   6.872660   4.528678   4.578959
    13  C    4.963964   4.468325   5.330584   3.011864   3.071021
    14  H    4.843929   4.358307   5.170319   3.061382   3.100824
    15  N    4.039607   3.808327   4.865060   2.521781   3.188164
    16  C    2.780048   2.565464   3.679245   1.489156   2.593996
    17  H    3.840194   2.620576   2.355673   2.151888   1.102609
    18  H    5.658202   4.560478   4.652655   3.364810   2.084101
    19  H    5.479755   4.876219   5.557426   3.524994   3.438149
    20  H    6.673461   5.821660   6.225255   4.445405   3.760522
    21  H    7.835058   7.296303   8.006750   5.865879   5.651614
    22  H    7.988192   7.315210   7.948298   5.793556   5.308762
    23  H    6.520555   6.302391   7.291840   4.956848   5.271569
    24  H    8.003898   7.682665   8.605539   6.236866   6.282085
    25  H    6.430966   6.247011   7.256069   4.940218   5.232745
    26  H    7.112762   6.623065   7.420300   5.168049   4.966082
    27  H    2.390189   2.648164   3.848010   2.172596   3.478965
                    6          7          8          9         10
     6  N    0.000000
     7  C    1.491541   0.000000
     8  H    2.090911   1.121133   0.000000
     9  C    2.566126   1.549223   2.149903   0.000000
    10  C    3.878364   2.521537   2.645387   1.540704   0.000000
    11  C    4.386859   2.930277   3.133355   2.538857   1.536985
    12  C    3.809772   2.461723   2.551123   2.948262   2.545221
    13  C    2.515691   1.533896   2.135118   2.538966   3.001968
    14  H    2.714244   2.194149   2.517054   3.516135   4.010419
    15  N    3.168670   2.516496   3.427342   2.982378   3.556968
    16  C    3.128841   3.084958   4.106978   3.622514   4.551667
    17  H    2.092771   3.518534   4.152684   4.382369   5.827274
    18  H    1.022854   2.038072   2.251309   2.808747   4.102159
    19  H    2.921398   2.195391   3.084202   1.110785   2.185578
    20  H    2.762934   2.195387   2.533142   1.110688   2.175288
    21  H    4.728060   3.493320   3.691374   2.186091   1.112006
    22  H    4.113371   2.794357   2.447320   2.176627   1.112908
    23  H    4.700470   3.387163   3.887941   2.839213   2.171749
    24  H    5.401125   3.916794   3.903692   3.500721   2.181625
    25  H    4.660989   3.440896   3.583424   3.959185   3.501210
    26  H    3.996990   2.692717   2.292045   3.343561   2.827232
    27  H    4.175481   4.141512   5.177168   4.484295   5.325973
                   11         12         13         14         15
    11  C    0.000000
    12  C    1.543950   0.000000
    13  C    2.559743   1.553308   0.000000
    14  H    3.507093   2.173318   1.115220   0.000000
    15  N    2.964450   2.447254   1.464026   2.116276   0.000000
    16  C    4.193181   3.672266   2.392179   2.700574   1.292431
    17  H    6.260910   5.622634   4.128160   4.035519   4.271770
    18  H    4.891946   4.452484   3.356167   3.571268   4.114871
    19  H    2.840090   3.367049   2.782305   3.808228   2.636739
    20  H    3.493779   3.946279   3.503014   4.363529   3.998202
    21  H    2.180845   3.505908   3.987178   5.044335   4.277652
    22  H    2.168566   2.838743   3.449250   4.280206   4.334125
    23  H    1.113437   2.181178   2.828903   3.828456   2.642442
    24  H    1.111854   2.186278   3.521349   4.340366   3.970906
    25  H    2.179681   1.112068   2.188158   2.496825   2.679931
    26  H    2.181988   1.110108   2.190891   2.487138   3.408863
    27  H    4.850781   4.468070   3.370981   3.659755   2.040092
                   16         17         18         19         20
    16  C    0.000000
    17  H    3.554660   0.000000
    18  H    4.111277   2.388346   0.000000
    19  H    3.089920   4.354142   3.342482   0.000000
    20  H    4.452468   4.436649   2.603265   1.796873   0.000000
    21  H    5.205553   6.559363   4.880503   2.496662   2.532083
    22  H    5.335947   6.168503   4.146990   3.098328   2.471933
    23  H    3.801887   6.353327   5.318706   2.689151   3.849312
    24  H    5.232827   7.328064   5.838959   3.862896   4.331062
    25  H    3.891694   6.285708   5.401558   4.198327   5.002515
    26  H    4.539004   5.917706   4.462357   4.035569   4.152417
    27  H    1.100627   4.309447   5.132498   3.767596   5.311280
                   21         22         23         24         25
    21  H    0.000000
    22  H    1.799250   0.000000
    23  H    2.467738   3.084366   0.000000
    24  H    2.541776   2.467501   1.794416   0.000000
    25  H    4.337197   3.841652   2.488219   2.518706   0.000000
    26  H    3.851952   2.668352   3.098020   2.499585   1.794909
    27  H    5.844567   6.206483   4.243471   5.831096   4.503492
                   26         27
    26  H    0.000000
    27  H    5.425084   0.000000
 Symmetry turned off by external request.
 Stoichiometry    C9H13N3O2
 Framework group  C1[X(C9H13N3O2)]
 Deg. of freedom    75
 Full point group                 C1      NOp   1
 Rotational constants (GHZ):           1.6537985           0.3997393           0.3558482
 Standard basis: 6-31G(d) (6D, 7F)
   236 basis functions,   444 primitive gaussians,   236 cartesian basis functions
    52 alpha electrons       52 beta electrons
       nuclear repulsion energy       916.9199179227 Hartrees.
 NAtoms=   27 NActive=   27 NUniq=   27 SFac= 1.00D+00 NAtFMM=   60 NAOKFM=F Big=F
 Integral buffers will be    131072 words long.
 Raffenetti 1 integral format.
 Two-electron integral symmetry is turned off.
 One-electron integrals computed using PRISM.
 NBasis=   236 RedAO= T EigKep=  1.27D-03  NBF=   236
 NBsUse=   236 1.00D-06 EigRej= -1.00D+00 NBFU=   236
 ExpMin= 1.61D-01 ExpMax= 5.48D+03 ExpMxC= 8.25D+02 IAcc=3 IRadAn=         5 AccDes= 0.00D+00
 Harris functional with IExCor=  205 and IRadAn=       5 diagonalized for initial guess.
 HarFok:  IExCor=  205 AccDes= 0.00D+00 IRadAn=         5 IDoV= 1 UseB2=F ITyADJ=14
 ICtDFT=  3500011 ScaDFX=  1.000000  1.000000  1.000000  1.000000
 FoFCou: FMM=F IPFlag=           0 FMFlag=      100000 FMFlg1=           0
         NFxFlg=           0 DoJE=T BraDBF=F KetDBF=T FulRan=T
         wScrn=  0.000000 ICntrl=       500 IOpCl=  0 I1Cent=   200000004 NGrid=           0
         NMat0=    1 NMatS0=      1 NMatT0=    0 NMatD0=    1 NMtDS0=    0 NMtDT0=    0
 Symmetry not used in FoFCou.
 Keep R1 ints in memory in canonical form, NReq=397720213.
 Requested convergence on RMS density matrix=1.00D-08 within 128 cycles.
 Requested convergence on MAX density matrix=1.00D-06.
 Requested convergence on             energy=1.00D-06.
 No special actions if energy rises.
 SCF Done:  E(RHF) =  -661.281411201     A.U. after   16 cycles
            NFock= 16  Conv=0.72D-08     -V/T= 2.0037
 ExpMin= 1.61D-01 ExpMax= 5.48D+03 ExpMxC= 8.25D+02 IAcc=3 IRadAn=         5 AccDes= 0.00D+00
 HarFok:  IExCor=  205 AccDes= 0.00D+00 IRadAn=         5 IDoV=-2 UseB2=F ITyADJ=14
 ICtDFT= 12500011 ScaDFX=  1.000000  1.000000  1.000000  1.000000
 Range of M.O.s used for correlation:    15   236
 NBasis=   236 NAE=    52 NBE=    52 NFC=    14 NFV=     0
 NROrb=    222 NOA=    38 NOB=    38 NVA=   184 NVB=   184
 Fully direct method using O(ONN) memory.
 JobTyp=1 Pass  1:  I=  15 to  52 NPSUse=  4 ParTrn=T ParDer=T DoDerP=T.
 Spin components of T(2) and E(2):
     alpha-alpha T2 =       0.9204650675D-01 E2=     -0.2718449897D+00
     alpha-beta  T2 =       0.4994627864D+00 E2=     -0.1493511159D+01
     beta-beta   T2 =       0.9204650675D-01 E2=     -0.2718449897D+00
 ANorm=    0.1297519094D+01
 E2 =    -0.2037201138D+01 EUMP2 =    -0.66331861233925D+03
          IDoAtm=111111111111111111111111111
          Differentiating once with respect to electric field.
                with respect to dipole field.
          Differentiating once with respect to nuclear coordinates.
 Keep R1 ints in memory in canonical form, NReq=397723379.
          There are     1 degrees of freedom in the 1st order CPHF.  IDoFFX=0 NUNeed=     1.
 LinEq1:  Iter=  0 NonCon=     1 RMS=4.64D-03 Max=1.18D-01 NDo=     1
 AX will form     1 AO Fock derivatives at one time.
 LinEq1:  Iter=  1 NonCon=     1 RMS=1.58D-03 Max=3.49D-02 NDo=     1
 LinEq1:  Iter=  2 NonCon=     1 RMS=6.47D-04 Max=1.92D-02 NDo=     1
 LinEq1:  Iter=  3 NonCon=     1 RMS=2.95D-04 Max=9.32D-03 NDo=     1
 LinEq1:  Iter=  4 NonCon=     1 RMS=9.18D-05 Max=2.31D-03 NDo=     1
 LinEq1:  Iter=  5 NonCon=     1 RMS=3.79D-05 Max=1.82D-03 NDo=     1
 LinEq1:  Iter=  6 NonCon=     1 RMS=1.56D-05 Max=5.73D-04 NDo=     1
 LinEq1:  Iter=  7 NonCon=     1 RMS=5.93D-06 Max=8.58D-05 NDo=     1
 LinEq1:  Iter=  8 NonCon=     1 RMS=2.35D-06 Max=5.31D-05 NDo=     1
 LinEq1:  Iter=  9 NonCon=     1 RMS=8.66D-07 Max=2.44D-05 NDo=     1
 LinEq1:  Iter= 10 NonCon=     1 RMS=4.20D-07 Max=1.42D-05 NDo=     1
 LinEq1:  Iter= 11 NonCon=     1 RMS=1.53D-07 Max=5.66D-06 NDo=     1
 LinEq1:  Iter= 12 NonCon=     1 RMS=5.42D-08 Max=7.98D-07 NDo=     1
 LinEq1:  Iter= 13 NonCon=     1 RMS=1.69D-08 Max=2.95D-07 NDo=     1
 LinEq1:  Iter= 14 NonCon=     1 RMS=5.23D-09 Max=1.19D-07 NDo=     1
 LinEq1:  Iter= 15 NonCon=     1 RMS=1.92D-09 Max=4.48D-08 NDo=     1
 LinEq1:  Iter= 16 NonCon=     1 RMS=7.16D-10 Max=1.27D-08 NDo=     1
 LinEq1:  Iter= 17 NonCon=     1 RMS=2.43D-10 Max=4.11D-09 NDo=     1
 LinEq1:  Iter= 18 NonCon=     1 RMS=8.52D-11 Max=1.15D-09 NDo=     1
 LinEq1:  Iter= 19 NonCon=     0 RMS=2.95D-11 Max=5.71D-10 NDo=     1
 Linear equations converged to 1.000D-10 1.000D-09 after    19 iterations.
 End of Minotr F.D. properties file   721 does not exist.
 End of Minotr F.D. properties file   722 does not exist.
 End of Minotr F.D. properties file   788 does not exist.

 **********************************************************************

            Population analysis using the SCF Density.

 **********************************************************************

 Alpha  occ. eigenvalues --  -20.59789 -20.59396 -15.85279 -15.63724 -15.56405
 Alpha  occ. eigenvalues --  -11.35994 -11.30452 -11.30121 -11.30070 -11.27608
 Alpha  occ. eigenvalues --  -11.24659 -11.23899 -11.23342 -11.22850  -1.58468
 Alpha  occ. eigenvalues --   -1.37953  -1.28856  -1.22563  -1.13301  -1.08402
 Alpha  occ. eigenvalues --   -1.01779  -1.00732  -0.93684  -0.88929  -0.84939
 Alpha  occ. eigenvalues --   -0.81531  -0.77998  -0.77041  -0.74421  -0.71200
 Alpha  occ. eigenvalues --   -0.70295  -0.69774  -0.67372  -0.64193  -0.63246
 Alpha  occ. eigenvalues --   -0.61780  -0.60069  -0.57448  -0.56520  -0.54848
 Alpha  occ. eigenvalues --   -0.53920  -0.50615  -0.49689  -0.48554  -0.47855
 Alpha  occ. eigenvalues --   -0.47726  -0.46283  -0.45552  -0.44023  -0.42148
 Alpha  occ. eigenvalues --   -0.39422  -0.33644
 Alpha virt. eigenvalues --    0.07433   0.11672   0.17633   0.21503   0.23677
 Alpha virt. eigenvalues --    0.24721   0.26221   0.28028   0.28561   0.28875
 Alpha virt. eigenvalues --    0.29705   0.31304   0.31808   0.32356   0.33265
 Alpha virt. eigenvalues --    0.33869   0.34427   0.35521   0.37685   0.38611
 Alpha virt. eigenvalues --    0.40484   0.41314   0.43966   0.45214   0.45440
 Alpha virt. eigenvalues --    0.46634   0.49812   0.53301   0.57587   0.59168
 Alpha virt. eigenvalues --    0.63359   0.68761   0.69291   0.72320   0.74106
 Alpha virt. eigenvalues --    0.74813   0.75587   0.75840   0.78093   0.78889
 Alpha virt. eigenvalues --    0.80766   0.83116   0.84727   0.85232   0.87935
 Alpha virt. eigenvalues --    0.88835   0.90553   0.91048   0.92094   0.93873
 Alpha virt. eigenvalues --    0.94950   0.97296   0.99289   1.00666   1.01959
 Alpha virt. eigenvalues --    1.02884   1.04987   1.06462   1.07138   1.08718
 Alpha virt. eigenvalues --    1.09728   1.10537   1.11777   1.12269   1.13230
 Alpha virt. eigenvalues --    1.13711   1.14154   1.15671   1.16074   1.16837
 Alpha virt. eigenvalues --    1.18072   1.20496   1.21548   1.22258   1.22944
 Alpha virt. eigenvalues --    1.23734   1.24410   1.25472   1.27140   1.27759
 Alpha virt. eigenvalues --    1.29023   1.31512   1.33581   1.36583   1.39096
 Alpha virt. eigenvalues --    1.42742   1.47636   1.48984   1.51827   1.52664
 Alpha virt. eigenvalues --    1.55174   1.57915   1.59711   1.61970   1.65492
 Alpha virt. eigenvalues --    1.67805   1.70072   1.72070   1.73353   1.76534
 Alpha virt. eigenvalues --    1.78307   1.81300   1.84301   1.88585   1.91514
 Alpha virt. eigenvalues --    1.93624   1.96003   1.97481   1.99407   2.01426
 Alpha virt. eigenvalues --    2.02818   2.03484   2.05793   2.09228   2.11863
 Alpha virt. eigenvalues --    2.12464   2.13338   2.17492   2.18413   2.20000
 Alpha virt. eigenvalues --    2.20124   2.22035   2.23768   2.24922   2.25889
 Alpha virt. eigenvalues --    2.29311   2.31877   2.32901   2.35288   2.36527
 Alpha virt. eigenvalues --    2.39621   2.40246   2.42067   2.43996   2.46113
 Alpha virt. eigenvalues --    2.48526   2.50376   2.50685   2.56628   2.56971
 Alpha virt. eigenvalues --    2.60498   2.64153   2.64979   2.68439   2.68558
 Alpha virt. eigenvalues --    2.69212   2.69732   2.74333   2.75885   2.81129
 Alpha virt. eigenvalues --    2.84893   2.87003   2.89817   2.91206   2.94729
 Alpha virt. eigenvalues --    2.97669   2.98204   3.02254   3.05076   3.06107
 Alpha virt. eigenvalues --    3.07348   3.13894   3.18618   3.22782   3.27177
 Alpha virt. eigenvalues --    3.31552   3.33365   3.37868   3.42919   3.60837
 Alpha virt. eigenvalues --    4.10386   4.23212   4.32105   4.36687   4.43920
 Alpha virt. eigenvalues --    4.52361   4.59361   4.60215   4.70829   4.77955
 Alpha virt. eigenvalues --    4.97171   4.99235   5.03815   5.09408
          Condensed to atoms (all electrons):
               1          2          3          4          5          6
     1  O    8.301251   0.311459  -0.090165  -0.078190   0.003538  -0.000011
     2  N    0.311459   5.680459   0.310710   0.264664  -0.047966   0.000775
     3  O   -0.090165   0.310710   8.330439  -0.088109   0.008131   0.000481
     4  C   -0.078190   0.264664  -0.088109   5.253052   0.564674  -0.048630
     5  C    0.003538  -0.047966   0.008131   0.564674   4.678762   0.311906
     6  N   -0.000011   0.000775   0.000481  -0.048630   0.311906   7.170256
     7  C    0.000002  -0.000096   0.000002   0.005295  -0.029154   0.201237
     8  H   -0.000000   0.000001  -0.000000  -0.000239   0.002661  -0.047549
     9  C   -0.000000  -0.000004   0.000000   0.000602   0.001154  -0.057782
    10  C   -0.000000   0.000000   0.000000  -0.000023  -0.000049   0.003364
    11  C   -0.000000  -0.000000  -0.000000  -0.000011   0.000014  -0.000153
    12  C   -0.000000   0.000001  -0.000000  -0.000198  -0.000151   0.003741
    13  C   -0.000013  -0.000001  -0.000001  -0.008725   0.000067  -0.048109
    14  H   -0.000001  -0.000042   0.000000   0.002312   0.003794  -0.005361
    15  N    0.000346   0.001552  -0.000011  -0.061470  -0.004243   0.002065
    16  C    0.002427  -0.023965   0.002030   0.314701  -0.043122  -0.000124
    17  H    0.000144  -0.004410   0.012674  -0.024681   0.375191  -0.032376
    18  H    0.000000  -0.000034   0.000008   0.001265  -0.025659   0.330109
    19  H    0.000000  -0.000001   0.000000  -0.000941   0.000978   0.000163
    20  H    0.000000  -0.000000   0.000000  -0.000036   0.000006  -0.001075
    21  H   -0.000000  -0.000000  -0.000000   0.000001   0.000001  -0.000061
    22  H   -0.000000   0.000000  -0.000000  -0.000000  -0.000002  -0.000095
    23  H    0.000000  -0.000000   0.000000   0.000025  -0.000000  -0.000024
    24  H    0.000000   0.000000   0.000000   0.000000  -0.000000   0.000005
    25  H    0.000000  -0.000000   0.000000   0.000021  -0.000001  -0.000073
    26  H    0.000000  -0.000000   0.000000   0.000004  -0.000001  -0.000072
    27  H    0.006191  -0.000171   0.000030  -0.067476   0.002054   0.000003
               7          8          9         10         11         12
     1  O    0.000002  -0.000000  -0.000000  -0.000000  -0.000000  -0.000000
     2  N   -0.000096   0.000001  -0.000004   0.000000  -0.000000   0.000001
     3  O    0.000002  -0.000000   0.000000   0.000000  -0.000000  -0.000000
     4  C    0.005295  -0.000239   0.000602  -0.000023  -0.000011  -0.000198
     5  C   -0.029154   0.002661   0.001154  -0.000049   0.000014  -0.000151
     6  N    0.201237  -0.047549  -0.057782   0.003364  -0.000153   0.003741
     7  C    5.027310   0.414873   0.341935  -0.049356  -0.007928  -0.064995
     8  H    0.414873   0.544518  -0.058842   0.001067  -0.000254  -0.003107
     9  C    0.341935  -0.058842   5.177496   0.318951  -0.053387  -0.005753
    10  C   -0.049356   0.001067   0.318951   5.126663   0.332700  -0.060558
    11  C   -0.007928  -0.000254  -0.053387   0.332700   5.124683   0.330501
    12  C   -0.064995  -0.003107  -0.005753  -0.060558   0.330501   5.139286
    13  C    0.322970  -0.038615  -0.053136  -0.001242  -0.047567   0.368978
    14  H   -0.041241  -0.000920   0.003835  -0.000387   0.003965  -0.040971
    15  N   -0.060916   0.004026  -0.012405   0.001357  -0.007617  -0.075194
    16  C   -0.001155  -0.000081  -0.000406  -0.000063   0.000005   0.002211
    17  H    0.001411  -0.000036  -0.000060   0.000001   0.000000   0.000001
    18  H   -0.029473  -0.003520   0.000973  -0.000118   0.000011  -0.000149
    19  H   -0.035083   0.004013   0.387303  -0.032982  -0.002167   0.000570
    20  H   -0.041885  -0.001808   0.397122  -0.037143   0.004128  -0.000375
    21  H    0.004071  -0.000074  -0.035886   0.400100  -0.035793   0.004228
    22  H   -0.004388   0.003522  -0.045634   0.395872  -0.045578  -0.001217
    23  H    0.000472   0.000033  -0.002012  -0.040136   0.396624  -0.036606
    24  H   -0.000143  -0.000103   0.004403  -0.038484   0.400338  -0.037827
    25  H    0.005095  -0.000011  -0.000379   0.004102  -0.033742   0.394996
    26  H   -0.004431   0.001503   0.001080  -0.002427  -0.042415   0.394368
    27  H   -0.000394   0.000008  -0.000050   0.000004   0.000006  -0.000021
              13         14         15         16         17         18
     1  O   -0.000013  -0.000001   0.000346   0.002427   0.000144   0.000000
     2  N   -0.000001  -0.000042   0.001552  -0.023965  -0.004410  -0.000034
     3  O   -0.000001   0.000000  -0.000011   0.002030   0.012674   0.000008
     4  C   -0.008725   0.002312  -0.061470   0.314701  -0.024681   0.001265
     5  C    0.000067   0.003794  -0.004243  -0.043122   0.375191  -0.025659
     6  N   -0.048109  -0.005361   0.002065  -0.000124  -0.032376   0.330109
     7  C    0.322970  -0.041241  -0.060916  -0.001155   0.001411  -0.029473
     8  H   -0.038615  -0.000920   0.004026  -0.000081  -0.000036  -0.003520
     9  C   -0.053136   0.003835  -0.012405  -0.000406  -0.000060   0.000973
    10  C   -0.001242  -0.000387   0.001357  -0.000063   0.000001  -0.000118
    11  C   -0.047567   0.003965  -0.007617   0.000005   0.000000   0.000011
    12  C    0.368978  -0.040971  -0.075194   0.002211   0.000001  -0.000149
    13  C    5.018834   0.405659   0.244409  -0.067832  -0.000057   0.003895
    14  H    0.405659   0.518140  -0.035058  -0.005843   0.000028   0.000003
    15  N    0.244409  -0.035058   6.951860   0.586057  -0.000050  -0.000120
    16  C   -0.067832  -0.005843   0.586057   4.698917   0.001504  -0.000186
    17  H   -0.000057   0.000028  -0.000050   0.001504   0.381531  -0.002287
    18  H    0.003895   0.000003  -0.000120  -0.000186  -0.002287   0.325718
    19  H   -0.006040   0.000062   0.006795   0.002170   0.000010  -0.000133
    20  H    0.003911  -0.000052   0.000086  -0.000035  -0.000005   0.002450
    21  H   -0.000397   0.000009  -0.000033   0.000003  -0.000000   0.000000
    22  H    0.000315  -0.000043   0.000006  -0.000001   0.000000   0.000002
    23  H   -0.006002   0.000006   0.006848   0.000096   0.000000   0.000000
    24  H    0.004158  -0.000060   0.000028   0.000005   0.000000  -0.000000
    25  H   -0.034322  -0.002691   0.001152  -0.000060  -0.000000   0.000003
    26  H   -0.045040  -0.000889   0.004231  -0.000034   0.000000  -0.000001
    27  H    0.004785  -0.000155  -0.040544   0.403648  -0.000062   0.000001
              19         20         21         22         23         24
     1  O    0.000000   0.000000  -0.000000  -0.000000   0.000000   0.000000
     2  N   -0.000001  -0.000000  -0.000000   0.000000  -0.000000   0.000000
     3  O    0.000000   0.000000  -0.000000  -0.000000   0.000000   0.000000
     4  C   -0.000941  -0.000036   0.000001  -0.000000   0.000025   0.000000
     5  C    0.000978   0.000006   0.000001  -0.000002  -0.000000  -0.000000
     6  N    0.000163  -0.001075  -0.000061  -0.000095  -0.000024   0.000005
     7  C   -0.035083  -0.041885   0.004071  -0.004388   0.000472  -0.000143
     8  H    0.004013  -0.001808  -0.000074   0.003522   0.000033  -0.000103
     9  C    0.387303   0.397122  -0.035886  -0.045634  -0.002012   0.004403
    10  C   -0.032982  -0.037143   0.400100   0.395872  -0.040136  -0.038484
    11  C   -0.002167   0.004128  -0.035793  -0.045578   0.396624   0.400338
    12  C    0.000570  -0.000375   0.004228  -0.001217  -0.036606  -0.037827
    13  C   -0.006040   0.003911  -0.000397   0.000315  -0.006002   0.004158
    14  H    0.000062  -0.000052   0.000009  -0.000043   0.000006  -0.000060
    15  N    0.006795   0.000086  -0.000033   0.000006   0.006848   0.000028
    16  C    0.002170  -0.000035   0.000003  -0.000001   0.000096   0.000005
    17  H    0.000010  -0.000005  -0.000000   0.000000   0.000000   0.000000
    18  H   -0.000133   0.002450   0.000000   0.000002   0.000000  -0.000000
    19  H    0.505880  -0.023828  -0.002570   0.003755   0.001653  -0.000072
    20  H   -0.023828   0.548575  -0.002644  -0.002939  -0.000049  -0.000090
    21  H   -0.002570  -0.002644   0.525720  -0.024677  -0.002812  -0.002066
    22  H    0.003755  -0.002939  -0.024677   0.569247   0.004061  -0.003579
    23  H    0.001653  -0.000049  -0.002812   0.004061   0.509500  -0.024941
    24  H   -0.000072  -0.000090  -0.002066  -0.003579  -0.024941   0.540845
    25  H   -0.000027   0.000011  -0.000086  -0.000083  -0.002067  -0.002398
    26  H    0.000022  -0.000035  -0.000073   0.002457   0.003827  -0.002756
    27  H    0.000068   0.000000  -0.000000   0.000000  -0.000022  -0.000000
              25         26         27
     1  O    0.000000   0.000000   0.006191
     2  N   -0.000000  -0.000000  -0.000171
     3  O    0.000000   0.000000   0.000030
     4  C    0.000021   0.000004  -0.067476
     5  C   -0.000001  -0.000001   0.002054
     6  N   -0.000073  -0.000072   0.000003
     7  C    0.005095  -0.004431  -0.000394
     8  H   -0.000011   0.001503   0.000008
     9  C   -0.000379   0.001080  -0.000050
    10  C    0.004102  -0.002427   0.000004
    11  C   -0.033742  -0.042415   0.000006
    12  C    0.394996   0.394368  -0.000021
    13  C   -0.034322  -0.045040   0.004785
    14  H   -0.002691  -0.000889  -0.000155
    15  N    0.001152   0.004231  -0.040544
    16  C   -0.000060  -0.000034   0.403648
    17  H   -0.000000   0.000000  -0.000062
    18  H    0.000003  -0.000001   0.000001
    19  H   -0.000027   0.000022   0.000068
    20  H    0.000011  -0.000035   0.000000
    21  H   -0.000086  -0.000073  -0.000000
    22  H   -0.000083   0.002457   0.000000
    23  H   -0.002067   0.003827  -0.000022
    24  H   -0.002398  -0.002756  -0.000000
    25  H    0.509803  -0.023153  -0.000014
    26  H   -0.023153   0.562905   0.000001
    27  H   -0.000014   0.000001   0.446367
 Mulliken charges:
               1
     1  O   -0.456979
     2  N    0.507069
     3  O   -0.486220
     4  C   -0.027887
     5  C    0.197414
     6  N   -0.782609
     7  C    0.045964
     8  H    0.178931
     9  C   -0.309118
    10  C   -0.321212
    11  C   -0.316362
    12  C   -0.311761
    13  C   -0.020883
    14  H    0.195899
    15  N   -0.513158
    16  C    0.129134
    17  H    0.291527
    18  H    0.397241
    19  H    0.190403
    20  H    0.155709
    21  H    0.173041
    22  H    0.148999
    23  H    0.191526
    24  H    0.162737
    25  H    0.183922
    26  H    0.150929
    27  H    0.245742
 Sum of Mulliken charges =  -0.00000
 Mulliken charges with hydrogens summed into heavy atoms:
               1
     1  O   -0.456979
     2  N    0.507069
     3  O   -0.486220
     4  C   -0.027887
     5  C    0.488942
     6  N   -0.385368
     7  C    0.224895
     9  C    0.036995
    10  C    0.000829
    11  C    0.037901
    12  C    0.023089
    13  C    0.175016
    15  N   -0.513158
    16  C    0.374876
 Electronic spatial extent (au):  <R**2>=           3127.8379
 Charge=              0.0000 electrons
 Dipole moment (field-independent basis, Debye):
    X=              5.4027    Y=              4.4880    Z=              1.0361  Tot=              7.0996
 Quadrupole moment (field-independent basis, Debye-Ang):
   XX=           -105.4606   YY=            -79.8878   ZZ=            -82.5890
   XY=             -1.1200   XZ=             -1.1531   YZ=              0.6318
 Traceless Quadrupole moment (field-independent basis, Debye-Ang):
   XX=            -16.1481   YY=              9.4246   ZZ=              6.7235
   XY=             -1.1200   XZ=             -1.1531   YZ=              0.6318
 Octapole moment (field-independent basis, Debye-Ang**2):
  XXX=            101.3237  YYY=             34.9615  ZZZ=             -1.7921  XYY=             -2.1901
  XXY=              9.0935  XXZ=             10.3452  XZZ=             -6.9957  YZZ=             -2.6497
  YYZ=              4.1339  XYZ=             -0.8481
 Hexadecapole moment (field-independent basis, Debye-Ang**3):
 XXXX=          -3550.0567 YYYY=           -617.1529 ZZZZ=           -308.5018 XXXY=            -19.6298
 XXXZ=            -54.2442 YYYX=             -2.9506 YYYZ=             17.8438 ZZZX=            -18.0180
 ZZZY=              7.1537 XXYY=           -655.2284 XXZZ=           -547.0546 YYZZ=           -166.4996
 XXYZ=              4.0115 YYXZ=             -4.6114 ZZXY=              5.6958
 N-N= 9.169199179227D+02 E-N=-3.379854719302D+03  KE= 6.588593139472D+02
 Calling FoFJK, ICntrl=  10002127 FMM=F ISym2X=0 I1Cent= 0 IOpClX= 0 NMat=1 NMatS=1 NMatT=0.
 -------------------------------------------------------------------
 Center     Atomic                   Forces (Hartrees/Bohr)
 Number     Number              X              Y              Z
 -------------------------------------------------------------------
      1        8           0.001516560   -0.019079181   -0.001225178
      2        7           0.039852626    0.011163084    0.001851120
      3        8          -0.004447301    0.016483502    0.002382202
      4        6          -0.003028056    0.004266957    0.010562222
      5        6           0.003436167   -0.014890905   -0.004690560
      6        7           0.015136781   -0.006024916   -0.008808167
      7        6          -0.004381447    0.005248629    0.003753436
      8        1          -0.011408077   -0.001597443   -0.007285876
      9        6          -0.003915260    0.000810881   -0.002116970
     10        6           0.002753157   -0.001123896    0.000780940
     11        6          -0.000951754   -0.004414832   -0.002109357
     12        6           0.000611031   -0.009162964   -0.002951201
     13        6           0.009854014   -0.000903606    0.001873071
     14        1           0.001170339    0.003909958   -0.010419503
     15        7           0.000022171   -0.004444201    0.011066023
     16        6          -0.021119933    0.012800118   -0.006276307
     17        1           0.007498819   -0.007318179   -0.002910411
     18        1          -0.018288387   -0.002164657    0.003268425
     19        1           0.003241817    0.005759203    0.007523965
     20        1          -0.003068280   -0.007563721    0.002748160
     21        1          -0.003939133    0.002383124    0.009785863
     22        1          -0.004297626   -0.003979318   -0.007184473
     23        1           0.004234703    0.006055666    0.009081956
     24        1          -0.009506825    0.002480883   -0.001762178
     25        1          -0.001028496    0.010618172   -0.002475936
     26        1          -0.004848721   -0.004745832   -0.004150031
     27        1           0.004901111    0.005433474   -0.000311234
 -------------------------------------------------------------------
 Cartesian Forces:  Max     0.039852626 RMS     0.008498583

 GradGradGradGradGradGradGradGradGradGradGradGradGradGradGradGradGradGrad
 Berny optimization.
 FormGI is forming the generalized inverse of G from B-inverse, IUseBI=4.
 Internal  Forces:  Max     0.037902244 RMS     0.006973113
 Search for a local minimum.
 Step number   1 out of a maximum of   20
 All quantities printed in internal units (Hartrees-Bohrs-Radians)
 Mixed Optimization -- RFO/linear search
 Second derivative matrix not updated -- first step.
 ITU=  0
     Eigenvalues ---    0.00232   0.00777   0.01113   0.01147   0.01240
     Eigenvalues ---    0.01538   0.01592   0.01829   0.02027   0.02098
     Eigenvalues ---    0.02700   0.03654   0.04512   0.04686   0.04837
     Eigenvalues ---    0.05073   0.05140   0.05305   0.05889   0.06256
     Eigenvalues ---    0.07137   0.07690   0.07710   0.07843   0.07990
     Eigenvalues ---    0.08034   0.08047   0.10448   0.11692   0.12152
     Eigenvalues ---    0.12738   0.14768   0.15272   0.15984   0.15994
     Eigenvalues ---    0.20099   0.22174   0.23383   0.24994   0.25000
     Eigenvalues ---    0.25000   0.25380   0.26315   0.26648   0.27977
     Eigenvalues ---    0.28080   0.28506   0.29353   0.31449   0.31995
     Eigenvalues ---    0.32054   0.32239   0.32294   0.32382   0.32389
     Eigenvalues ---    0.32405   0.32517   0.32527   0.32589   0.33345
     Eigenvalues ---    0.33395   0.33613   0.35471   0.43886   0.44320
     Eigenvalues ---    0.49791   0.67277   0.90360   0.911551000.00000
     Eigenvalues --- 1000.000001000.000001000.000001000.000001000.00000
     Eigenvalues --- 1000.000001000.000001000.000001000.000001000.00000
     Eigenvalues --- 1000.000001000.000001000.000001000.000001000.00000
     Eigenvalues --- 1000.000001000.000001000.000001000.000001000.00000
     Eigenvalues --- 1000.000001000.000001000.000001000.000001000.00000
     Eigenvalues --- 1000.000001000.000001000.000001000.000001000.00000
     Eigenvalues --- 1000.000001000.000001000.000001000.000001000.00000
     Eigenvalues --- 1000.000001000.000001000.000001000.000001000.00000
     Eigenvalues --- 1000.000001000.000001000.000001000.000001000.00000
     Eigenvalues --- 1000.000001000.000001000.000001000.000001000.00000
     Eigenvalues --- 1000.000001000.000001000.000001000.000001000.00000
     Eigenvalues --- 1000.000001000.000001000.000001000.000001000.00000
     Eigenvalues --- 1000.000001000.000001000.000001000.000001000.00000
     Eigenvalues --- 1000.000001000.000001000.000001000.000001000.00000
     Eigenvalues --- 1000.000001000.000001000.000001000.000001000.00000
     Eigenvalues --- 1000.000001000.000001000.000001000.000001000.00000
     Eigenvalues --- 1000.000001000.000001000.000001000.000001000.00000
     Eigenvalues --- 1000.000001000.000001000.000001000.000001000.00000
     Eigenvalues --- 1000.00000
 RFO step:  Lambda=-2.42831092D-02 EMin= 2.31645596D-03
 Linear search not attempted -- first point.
 Iteration  1 RMS(Cart)=  0.05806000 RMS(Int)=  0.00117813
 Iteration  2 RMS(Cart)=  0.00136912 RMS(Int)=  0.00025913
 Iteration  3 RMS(Cart)=  0.00000070 RMS(Int)=  0.00025913
 Iteration  1 RMS(Cart)=  0.00001908 RMS(Int)=  0.00002632
 Iteration  2 RMS(Cart)=  0.00001482 RMS(Int)=  0.00002844
 Iteration  3 RMS(Cart)=  0.00001219 RMS(Int)=  0.00003224
 Iteration  4 RMS(Cart)=  0.00001024 RMS(Int)=  0.00003604
 Iteration  5 RMS(Cart)=  0.00000866 RMS(Int)=  0.00003944
 Iteration  6 RMS(Cart)=  0.00000735 RMS(Int)=  0.00004238
 Iteration  7 RMS(Cart)=  0.00000624 RMS(Int)=  0.00004491
 Iteration  8 RMS(Cart)=  0.00000531 RMS(Int)=  0.00004708
 Iteration  9 RMS(Cart)=  0.00000451 RMS(Int)=  0.00004894
 Iteration 10 RMS(Cart)=  0.00000383 RMS(Int)=  0.00005053
 Iteration 11 RMS(Cart)=  0.00000325 RMS(Int)=  0.00005189
 Iteration 12 RMS(Cart)=  0.00000276 RMS(Int)=  0.00005306
 Iteration 13 RMS(Cart)=  0.00000235 RMS(Int)=  0.00005406
 Iteration 14 RMS(Cart)=  0.00000200 RMS(Int)=  0.00005491
 Iteration 15 RMS(Cart)=  0.00000170 RMS(Int)=  0.00005564
 Iteration 16 RMS(Cart)=  0.00000144 RMS(Int)=  0.00005627
 Iteration 17 RMS(Cart)=  0.00000122 RMS(Int)=  0.00005680
 Iteration 18 RMS(Cart)=  0.00000104 RMS(Int)=  0.00005725
 Iteration 19 RMS(Cart)=  0.00000088 RMS(Int)=  0.00005764
 Variable       Old X    -DE/DX   Delta X   Delta X   Delta X     New X
                                 (Linear)    (Quad)   (Total)
    R1        2.32405   0.01759   0.00000   0.01880   0.01880   2.34285
    R2        2.32768   0.01581   0.00000   0.01704   0.01704   2.34472
    R3        2.89273  -0.03790   0.00000  -0.11926  -0.11926   2.77347
    R4        2.64514  -0.03313   0.00000  -0.07131  -0.07105   2.57409
    R5        2.81410  -0.02472   0.00000  -0.07159  -0.07131   2.74279
    R6        2.58706  -0.02495   0.00000  -0.04729  -0.04723   2.53984
    R7        2.08363  -0.01071   0.00000  -0.02989  -0.02989   2.05373
    R8        2.81860  -0.01861   0.00000  -0.05025  -0.05044   2.76816
    R9        1.93291  -0.00652   0.00000  -0.01408  -0.01408   1.91883
   R10        2.11863  -0.01248   0.00000  -0.03684  -0.03684   2.08180
   R11        2.92761  -0.01286   0.00000  -0.04359  -0.04358   2.88402
   R12        2.89864  -0.00260   0.00000  -0.00344  -0.00348   2.89516
   R13        2.91151  -0.00445   0.00000  -0.01442  -0.01446   2.89705
   R14        2.09908  -0.00978   0.00000  -0.02798  -0.02798   2.07110
   R15        2.09890  -0.00820   0.00000  -0.02345  -0.02345   2.07545
   R16        2.90448  -0.00161   0.00000  -0.00696  -0.00700   2.89748
   R17        2.10139  -0.01056   0.00000  -0.03032  -0.03032   2.07107
   R18        2.10309  -0.00898   0.00000  -0.02585  -0.02585   2.07724
   R19        2.91764  -0.00919   0.00000  -0.02922  -0.02922   2.88842
   R20        2.10409  -0.01154   0.00000  -0.03328  -0.03328   2.07081
   R21        2.10110  -0.00995   0.00000  -0.02857  -0.02857   2.07253
   R22        2.93533  -0.01083   0.00000  -0.03648  -0.03644   2.89888
   R23        2.10150  -0.01080   0.00000  -0.03102  -0.03102   2.07048
   R24        2.09780  -0.00776   0.00000  -0.02216  -0.02216   2.07564
   R25        2.10746  -0.00995   0.00000  -0.02885  -0.02885   2.07861
   R26        2.76661  -0.00503   0.00000  -0.01031  -0.01064   2.75596
   R27        2.44234  -0.00349   0.00000  -0.00500  -0.00497   2.43737
   R28        2.07988  -0.00616   0.00000  -0.01709  -0.01709   2.06279
    A1        2.15559   0.01112   0.00000   0.04080   0.04052   2.19611
    A2        2.05530  -0.00658   0.00000  -0.02375  -0.02403   2.03128
    A3        2.07208  -0.00451   0.00000  -0.01621  -0.01649   2.05558
    A4        2.02338  -0.00899   0.00000  -0.02913  -0.02948   1.99390
    A5        2.03001  -0.00268   0.00000  -0.00619  -0.00654   2.02346
    A6        2.22956   0.01164   0.00000   0.03498   0.03557   2.26512
    A7        2.20847   0.00667   0.00000   0.02235   0.02278   2.23125
    A8        2.06185  -0.00376   0.00000  -0.01323  -0.01351   2.04834
    A9        2.01220  -0.00289   0.00000  -0.00851  -0.00880   2.00341
   A10        2.25638  -0.00690   0.00000  -0.02211  -0.02230   2.23408
   A11        2.10380  -0.01231   0.00000  -0.07179  -0.07232   2.03148
   A12        1.86432   0.01942   0.00000   0.10549   0.10575   1.97007
   A13        1.84024  -0.00224   0.00000  -0.01887  -0.01863   1.82161
   A14        2.00883  -0.00079   0.00000  -0.01390  -0.01410   1.99472
   A15        1.96352   0.00141   0.00000  -0.00201  -0.00246   1.96107
   A16        1.85231   0.00295   0.00000   0.02628   0.02614   1.87846
   A17        1.85033   0.00131   0.00000   0.02484   0.02451   1.87484
   A18        1.93511  -0.00230   0.00000  -0.01089  -0.01058   1.92453
   A19        1.90908   0.00024   0.00000  -0.00527  -0.00539   1.90370
   A20        1.92255  -0.00073   0.00000  -0.01400  -0.01399   1.90855
   A21        1.92264  -0.00176   0.00000  -0.00618  -0.00619   1.91645
   A22        1.91939  -0.00058   0.00000   0.00465   0.00457   1.92396
   A23        1.90557   0.00322   0.00000   0.02600   0.02600   1.93157
   A24        1.88444  -0.00036   0.00000  -0.00474  -0.00499   1.87945
   A25        1.94013  -0.00080   0.00000   0.00576   0.00568   1.94581
   A26        1.91884  -0.00074   0.00000  -0.00723  -0.00725   1.91160
   A27        1.90515   0.00027   0.00000  -0.00297  -0.00305   1.90210
   A28        1.91616   0.00065   0.00000   0.00682   0.00686   1.92301
   A29        1.89871   0.00184   0.00000   0.01152   0.01154   1.91025
   A30        1.88382  -0.00121   0.00000  -0.01437  -0.01445   1.86937
   A31        1.94437   0.00111   0.00000   0.00635   0.00643   1.95080
   A32        1.90245   0.00039   0.00000   0.00579   0.00579   1.90824
   A33        1.91737   0.00038   0.00000   0.00511   0.00506   1.92243
   A34        1.90692  -0.00135   0.00000  -0.01513  -0.01517   1.89175
   A35        1.91539  -0.00057   0.00000   0.00029   0.00021   1.91560
   A36        1.87599  -0.00000   0.00000  -0.00285  -0.00289   1.87310
   A37        1.94556  -0.00345   0.00000  -0.01952  -0.01952   1.92603
   A38        1.90628   0.00255   0.00000   0.01616   0.01602   1.92230
   A39        1.91135   0.00160   0.00000   0.01393   0.01387   1.92522
   A40        1.90664   0.00046   0.00000  -0.00306  -0.00294   1.90370
   A41        1.91228  -0.00018   0.00000  -0.00383  -0.00374   1.90854
   A42        1.88057  -0.00090   0.00000  -0.00312  -0.00331   1.87726
   A43        1.84590   0.00515   0.00000   0.02272   0.02273   1.86863
   A44        1.93471  -0.00447   0.00000  -0.02725  -0.02767   1.90704
   A45        1.99206   0.00053   0.00000   0.01305   0.01348   2.00554
   A46        1.88381   0.00206   0.00000   0.02734   0.02760   1.91140
   A47        1.89131  -0.00428   0.00000  -0.03170  -0.03180   1.85951
   A48        1.91163   0.00123   0.00000  -0.00233  -0.00223   1.90940
   A49        2.09947  -0.00568   0.00000  -0.01235  -0.01294   2.08654
   A50        2.26797  -0.00622   0.00000  -0.02818  -0.02833   2.23963
   A51        1.97567   0.00437   0.00000   0.01931   0.01854   1.99421
   A52        2.03756   0.00180   0.00000   0.00528   0.00453   2.04208
    D1       -3.01926  -0.00010   0.00000  -0.01485  -0.01445  -3.03371
    D2        0.14414   0.00111   0.00000   0.00000  -0.00000   0.14414
    D3        0.14379  -0.00193   0.00000  -0.05730  -0.05710   0.08669
    D4       -2.97600  -0.00072   0.00000  -0.04245  -0.04265  -3.01865
    D5        3.07987   0.00105   0.00000   0.02040   0.02057   3.10044
    D6       -0.02082   0.00050   0.00000   0.00169   0.00158  -0.01923
    D7       -0.08644  -0.00058   0.00000   0.00282   0.00286  -0.08358
    D8        3.09606  -0.00113   0.00000  -0.01589  -0.01613   3.07993
    D9       -2.92189   0.00050   0.00000  -0.01791  -0.01822  -2.94011
   D10        0.29084   0.00108   0.00000   0.04523   0.04511   0.33595
   D11        0.24450   0.00222   0.00000   0.00000   0.00000   0.24450
   D12       -2.82595   0.00279   0.00000   0.06314   0.06333  -2.76262
   D13        0.07628  -0.00142   0.00000  -0.01660  -0.01629   0.06000
   D14        2.80642   0.00335   0.00000   0.04419   0.04286   2.84928
   D15       -3.10520  -0.00091   0.00000   0.00152   0.00217  -3.10303
   D16       -0.37507   0.00386   0.00000   0.06231   0.06131  -0.31375
   D17       -2.66763  -0.00023   0.00000   0.00420   0.00448  -2.66315
   D18        1.58068  -0.00195   0.00000  -0.00809  -0.00786   1.57282
   D19       -0.65873   0.00073   0.00000   0.02174   0.02150  -0.63723
   D20        0.84208   0.00063   0.00000  -0.02090  -0.02152   0.82056
   D21       -1.19280  -0.00110   0.00000  -0.03319  -0.03385  -1.22665
   D22        2.85098   0.00158   0.00000  -0.00336  -0.00449   2.84648
   D23        2.94639   0.00242   0.00000   0.03210   0.03192   2.97831
   D24       -1.22518   0.00139   0.00000   0.02565   0.02549  -1.19969
   D25        0.85179  -0.00060   0.00000   0.00721   0.00712   0.85891
   D26        0.91839   0.00366   0.00000   0.04563   0.04562   0.96400
   D27        3.03000   0.00263   0.00000   0.03918   0.03919   3.06919
   D28       -1.17622   0.00064   0.00000   0.02074   0.02082  -1.15540
   D29       -1.08328   0.00161   0.00000   0.00720   0.00726  -1.07602
   D30        1.02833   0.00059   0.00000   0.00075   0.00084   1.02917
   D31        3.10530  -0.00141   0.00000  -0.01769  -0.01753   3.08776
   D32       -2.89641  -0.00071   0.00000  -0.01651  -0.01627  -2.91267
   D33       -0.85897   0.00239   0.00000   0.01495   0.01486  -0.84411
   D34        1.30939   0.00084   0.00000   0.00000  -0.00001   1.30938
   D35       -0.89362  -0.00190   0.00000  -0.02546  -0.02541  -0.91903
   D36        1.14381   0.00119   0.00000   0.00600   0.00571   1.14953
   D37       -2.97101  -0.00035   0.00000  -0.00895  -0.00915  -2.98017
   D38        1.10929   0.00118   0.00000   0.01385   0.01395   1.12324
   D39       -3.13646   0.00427   0.00000   0.04532   0.04507  -3.09139
   D40       -0.96810   0.00273   0.00000   0.03037   0.03020  -0.93790
   D41        0.95665   0.00086   0.00000   0.00000   0.00000   0.95665
   D42        3.08206   0.00064   0.00000   0.00753   0.00749   3.08955
   D43       -1.13783  -0.00110   0.00000  -0.01597  -0.01595  -1.15378
   D44       -1.15687   0.00197   0.00000   0.01775   0.01781  -1.13906
   D45        0.96854   0.00175   0.00000   0.02528   0.02530   0.99384
   D46        3.03183   0.00001   0.00000   0.00178   0.00187   3.03370
   D47        3.06170   0.00082   0.00000   0.00518   0.00514   3.06684
   D48       -1.09608   0.00061   0.00000   0.01271   0.01263  -1.08345
   D49        0.96721  -0.00114   0.00000  -0.01079  -0.01080   0.95641
   D50       -0.92192  -0.00077   0.00000   0.00000   0.00000  -0.92192
   D51        1.18367  -0.00149   0.00000  -0.01102  -0.01102   1.17265
   D52       -3.04818  -0.00104   0.00000  -0.00812  -0.00815  -3.05633
   D53       -3.04890   0.00026   0.00000   0.00066   0.00067  -3.04823
   D54       -0.94330  -0.00046   0.00000  -0.01036  -0.01036  -0.95366
   D55        1.10803  -0.00002   0.00000  -0.00746  -0.00748   1.10055
   D56        1.17638   0.00026   0.00000   0.00733   0.00736   1.18374
   D57       -3.00121  -0.00046   0.00000  -0.00369  -0.00367  -3.00487
   D58       -0.94988  -0.00002   0.00000  -0.00079  -0.00079  -0.95067
   D59        0.98919  -0.00111   0.00000  -0.01085  -0.01085   0.97834
   D60        3.09773  -0.00105   0.00000  -0.01642  -0.01654   3.08119
   D61       -1.12982   0.00029   0.00000  -0.00268  -0.00261  -1.13244
   D62       -1.11377  -0.00141   0.00000  -0.01213  -0.01209  -1.12587
   D63        0.99477  -0.00135   0.00000  -0.01770  -0.01779   0.97698
   D64        3.05039  -0.00002   0.00000  -0.00395  -0.00386   3.04654
   D65        3.11660  -0.00029   0.00000   0.00004   0.00006   3.11666
   D66       -1.05804  -0.00022   0.00000  -0.00553  -0.00564  -1.06368
   D67        0.99758   0.00111   0.00000   0.00822   0.00829   1.00588
   D68       -1.05723   0.00002   0.00000  -0.00199  -0.00196  -1.05919
   D69       -3.12877   0.00151   0.00000   0.00417   0.00386  -3.12492
   D70        1.08565   0.00126   0.00000   0.00920   0.00924   1.09489
   D71        3.11763  -0.00126   0.00000  -0.00767  -0.00759   3.11004
   D72        1.04609   0.00022   0.00000  -0.00150  -0.00177   1.04431
   D73       -1.02267  -0.00002   0.00000   0.00353   0.00361  -1.01906
   D74        1.06125  -0.00034   0.00000   0.00014   0.00026   1.06151
   D75       -1.01029   0.00114   0.00000   0.00631   0.00608  -1.00421
   D76       -3.07905   0.00090   0.00000   0.01133   0.01146  -3.06759
   D77       -1.17217   0.00560   0.00000   0.00000  -0.00001  -1.17218
   D78        3.05953   0.00173   0.00000  -0.01490  -0.01478   3.04475
   D79        1.00849   0.00104   0.00000  -0.02823  -0.02844   0.98005
   D80        0.30618  -0.00288   0.00000  -0.00034  -0.00040   0.30578
   D81       -2.90864  -0.00340   0.00000  -0.06493  -0.06479  -2.97343
         Item               Value     Threshold  Converged?
 Maximum Force            0.037902     0.000450     NO 
 RMS     Force            0.007030     0.000300     NO 
 Maximum Displacement     0.308960     0.001800     NO 
 RMS     Displacement     0.058121     0.001200     NO 
 Predicted change in Energy=-1.353104D-02
 GradGradGradGradGradGradGradGradGradGradGradGradGradGradGradGradGradGrad

                          Input orientation:                          
 ---------------------------------------------------------------------
 Center     Atomic      Atomic             Coordinates (Angstroms)
 Number     Number       Type             X           Y           Z
 ---------------------------------------------------------------------
      1          8           0       -3.509014   -1.365295   -0.364780
      2          7           0       -3.119739   -0.199691   -0.200793
      3          8           0       -3.844445    0.805016   -0.130961
      4          6           0       -1.672128   -0.010646   -0.050122
      5          6           0       -1.303709    1.263751    0.259131
      6          7           0       -0.065893    1.728805    0.499830
      7          6           0        1.202274    0.999666    0.423097
      8          1           0        1.861104    1.521267    1.135477
      9          6           0        1.872518    1.048391   -0.947145
     10          6           0        3.282967    0.457982   -0.836217
     11          6           0        3.255422   -0.953884   -0.238873
     12          6           0        2.492449   -0.994617    1.084942
     13          6           0        1.070238   -0.450919    0.898029
     14          1           0        0.539792   -0.470519    1.861429
     15          7           0        0.403431   -1.346225   -0.040432
     16          6           0       -0.850108   -1.181411   -0.295505
     17          1           0       -2.093621    2.005284    0.344457
     18          1           0        0.054546    2.736041    0.454973
     19          1           0        1.275898    0.472710   -1.663950
     20          1           0        1.913604    2.086059   -1.304597
     21          1           0        3.751647    0.440350   -1.826752
     22          1           0        3.895599    1.112590   -0.200234
     23          1           0        2.764240   -1.635824   -0.942100
     24          1           0        4.278084   -1.320569   -0.088776
     25          1           0        2.436365   -2.023811    1.456515
     26          1           0        3.014022   -0.396198    1.844083
     27          1           0       -1.345542   -1.964306   -0.872714
 ---------------------------------------------------------------------
                    Distance matrix (angstroms):
                    1          2          3          4          5
     1  O    0.000000
     2  N    1.239781   0.000000
     3  O    2.208492   1.240771   0.000000
     4  C    2.303960   1.467657   2.321810   0.000000
     5  C    3.487767   2.377217   2.611121   1.362152   0.000000
     6  N    4.709148   3.679122   3.940652   2.430663   1.344023
     7  C    5.330105   4.528520   5.080772   3.083319   2.525188
     8  H    6.278628   5.436553   5.888138   4.029408   3.293985
     9  C    5.926712   5.199748   5.780057   3.806669   3.404394
    10  C    7.048233   6.467684   7.170622   5.038901   4.783999
    11  C    6.778105   6.419730   7.315292   5.020566   5.094270
    12  C    6.185197   5.812201   6.698756   4.427220   4.493663
    13  C    4.837387   4.338944   5.175935   2.934860   2.997317
    14  H    4.706321   4.209308   4.981781   2.959409   2.995588
    15  N    3.925913   3.708501   4.762403   2.468160   3.133056
    16  C    2.666157   2.474666   3.597086   1.451421   2.547978
    17  H    3.723863   2.492415   2.175328   2.096979   1.086790
    18  H    5.494716   4.373172   4.390251   3.283414   2.012671
    19  H    5.287862   4.681300   5.355221   3.395428   3.313360
    20  H    6.496144   5.637161   6.014451   4.339050   3.670495
    21  H    7.623314   7.090088   7.791618   5.725133   5.530418
    22  H    7.809947   7.137019   7.746462   5.681882   5.221749
    23  H    6.305569   6.101903   7.091570   4.808138   5.137966
    24  H    7.792116   7.483094   8.396152   6.092817   6.160858
    25  H    6.252862   6.078188   7.069011   4.816898   5.121518
    26  H    6.954726   6.468628   7.237561   5.069188   4.889816
    27  H    2.301613   2.590968   3.803138   2.144786   3.420991
                    6          7          8          9         10
     6  N    0.000000
     7  C    1.464848   0.000000
     8  H    2.039715   1.101639   0.000000
     9  C    2.512795   1.526160   2.135662   0.000000
    10  C    3.822941   2.491701   2.653271   1.533054   0.000000
    11  C    4.332856   2.910323   3.155841   2.534400   1.533280
    12  C    3.782129   2.465716   2.594383   2.947469   2.534919
    13  C    2.490091   1.532055   2.138076   2.509233   2.954637
    14  H    2.656657   2.160815   2.498015   3.459961   3.957830
    15  N    3.157207   2.521153   3.424920   2.952038   3.490009
    16  C    3.117195   3.079895   4.086911   3.579015   4.479094
    17  H    2.052379   3.446792   4.061998   4.279502   5.718026
    18  H    1.015403   2.081657   2.280880   2.849407   4.156853
    19  H    2.839035   2.153803   3.046100   1.095981   2.171102
    20  H    2.702221   2.161289   2.505136   1.098278   2.178341
    21  H    4.652603   3.445861   3.676593   2.162070   1.095961
    22  H    4.069795   2.766820   2.467855   2.157511   1.099229
    23  H    4.627044   3.353998   3.885769   2.828463   2.159702
    24  H    5.339970   3.886658   3.926401   3.483607   2.170754
    25  H    4.610712   3.425251   3.605768   3.941310   3.483195
    26  H    3.975994   2.692595   2.346916   3.343773   2.825944
    27  H    4.142517   4.117721   5.144378   4.408832   5.224166
                   11         12         13         14         15
    11  C    0.000000
    12  C    1.528487   0.000000
    13  C    2.514070   1.534024   0.000000
    14  H    3.466923   2.165752   1.099953   0.000000
    15  N    2.885682   2.398769   1.458394   2.098221   0.000000
    16  C    4.112220   3.621217   2.376104   2.662621   1.289801
    17  H    6.140782   5.529897   4.043436   3.919906   4.197144
    18  H    4.933820   4.500893   3.374114   3.534912   4.126989
    19  H    2.825691   3.345064   2.731139   3.722878   2.589504
    20  H    3.489628   3.941513   3.463970   4.295017   3.957185
    21  H    2.170596   3.481762   3.925398   4.974773   4.194441
    22  H    2.163709   2.839160   3.410778   4.244776   4.273938
    23  H    1.095824   2.143342   2.767619   3.763758   2.543677
    24  H    1.096733   2.161562   3.467038   4.301246   3.875039
    25  H    2.165626   1.095651   2.156895   2.484685   2.613961
    26  H    2.169791   1.098379   2.162477   2.475407   3.356953
    27  H    4.753060   4.416208   3.355870   3.641624   2.033132
                   16         17         18         19         20
    16  C    0.000000
    17  H    3.480071   0.000000
    18  H    4.089993   2.271748   0.000000
    19  H    3.021367   4.211429   3.332297   0.000000
    20  H    4.396900   4.334023   2.640958   1.771638   0.000000
    21  H    5.113802   6.428866   4.913759   2.481307   2.521787
    22  H    5.271930   6.079830   4.221206   3.068345   2.468920
    23  H    3.699741   6.205779   5.329864   2.679952   3.835023
    24  H    5.134243   7.200528   5.881329   3.835380   4.321355
    25  H    3.818391   6.163687   5.415933   4.161321   4.978760
    26  H    4.486189   5.839863   4.527587   4.010282   4.157728
    27  H    1.091582   4.218859   5.080971   3.665658   5.216706
                   21         22         23         24         25
    21  H    0.000000
    22  H    1.765840   0.000000
    23  H    2.463347   3.063351   0.000000
    24  H    2.529532   2.465560   1.766146   0.000000
    25  H    4.310672   3.835517   2.451813   2.504876   0.000000
    26  H    3.836525   2.689396   3.059718   2.487621   1.770034
    27  H    5.716109   6.114661   4.123473   5.714379   4.442034
                   26         27
    26  H    0.000000
    27  H    5.370824   0.000000
 Symmetry turned off by external request.
 Stoichiometry    C9H13N3O2
 Framework group  C1[X(C9H13N3O2)]
 Deg. of freedom    75
 Full point group                 C1      NOp   1
 Rotational constants (GHZ):           1.6643309           0.4222311           0.3736540
 Standard basis: 6-31G(d) (6D, 7F)
   236 basis functions,   444 primitive gaussians,   236 cartesian basis functions
    52 alpha electrons       52 beta electrons
       nuclear repulsion energy       931.8977075665 Hartrees.
 NAtoms=   27 NActive=   27 NUniq=   27 SFac= 1.00D+00 NAtFMM=   60 NAOKFM=F Big=F
 Integral buffers will be    131072 words long.
 Raffenetti 1 integral format.
 Two-electron integral symmetry is turned off.
 One-electron integrals computed using PRISM.
 NBasis=   236 RedAO= T EigKep=  9.98D-04  NBF=   236
 NBsUse=   236 1.00D-06 EigRej= -1.00D+00 NBFU=   236
 Initial guess from the checkpoint file:  "/home/alexey/tmp/Gau-1486969.chk"
 B after Tr=     0.058510    0.004214    0.005146
         Rot=    0.999999   -0.000955   -0.000115    0.000852 Ang=  -0.15 deg.
 ExpMin= 1.61D-01 ExpMax= 5.48D+03 ExpMxC= 8.25D+02 IAcc=3 IRadAn=         5 AccDes= 0.00D+00
 Harris functional with IExCor=  205 and IRadAn=       5 diagonalized for initial guess.
 HarFok:  IExCor=  205 AccDes= 0.00D+00 IRadAn=         5 IDoV= 1 UseB2=F ITyADJ=14
 ICtDFT=  3500011 ScaDFX=  1.000000  1.000000  1.000000  1.000000
 FoFCou: FMM=F IPFlag=           0 FMFlag=      100000 FMFlg1=           0
         NFxFlg=           0 DoJE=T BraDBF=F KetDBF=T FulRan=T
         wScrn=  0.000000 ICntrl=       500 IOpCl=  0 I1Cent=   200000004 NGrid=           0
         NMat0=    1 NMatS0=      1 NMatT0=    0 NMatD0=    1 NMtDS0=    0 NMtDT0=    0
 Symmetry not used in FoFCou.
 Keep R1 ints in memory in canonical form, NReq=397720213.
 Requested convergence on RMS density matrix=1.00D-08 within 128 cycles.
 Requested convergence on MAX density matrix=1.00D-06.
 Requested convergence on             energy=1.00D-06.
 No special actions if energy rises.
 SCF Done:  E(RHF) =  -661.298256458     A.U. after   15 cycles
            NFock= 15  Conv=0.41D-08     -V/T= 2.0024
 ExpMin= 1.61D-01 ExpMax= 5.48D+03 ExpMxC= 8.25D+02 IAcc=3 IRadAn=         5 AccDes= 0.00D+00
 HarFok:  IExCor=  205 AccDes= 0.00D+00 IRadAn=         5 IDoV=-2 UseB2=F ITyADJ=14
 ICtDFT= 12500011 ScaDFX=  1.000000  1.000000  1.000000  1.000000
 Range of M.O.s used for correlation:    15   236
 NBasis=   236 NAE=    52 NBE=    52 NFC=    14 NFV=     0
 NROrb=    222 NOA=    38 NOB=    38 NVA=   184 NVB=   184
 Fully direct method using O(ONN) memory.
 JobTyp=1 Pass  1:  I=  15 to  52 NPSUse=  4 ParTrn=T ParDer=T DoDerP=T.
 Spin components of T(2) and E(2):
     alpha-alpha T2 =       0.9134259266D-01 E2=     -0.2724470611D+00
     alpha-beta  T2 =       0.4912333624D+00 E2=     -0.1487946826D+01
     beta-beta   T2 =       0.9134259266D-01 E2=     -0.2724470611D+00
 ANorm=    0.1293800042D+01
 E2 =    -0.2032840948D+01 EUMP2 =    -0.66333109740622D+03
          IDoAtm=111111111111111111111111111
          Differentiating once with respect to electric field.
                with respect to dipole field.
          Differentiating once with respect to nuclear coordinates.
 Keep R1 ints in memory in canonical form, NReq=397723379.
          There are     1 degrees of freedom in the 1st order CPHF.  IDoFFX=0 NUNeed=     1.
 LinEq1:  Iter=  0 NonCon=     1 RMS=4.60D-03 Max=1.06D-01 NDo=     1
 AX will form     1 AO Fock derivatives at one time.
 LinEq1:  Iter=  1 NonCon=     1 RMS=1.54D-03 Max=3.01D-02 NDo=     1
[...]
    21  H    5.097742   6.472102   5.112211   2.499649   2.521262
    22  H    5.257708   6.088303   4.329485   3.070339   2.462553
    23  H    3.683284   6.209953   5.427439   2.702946   3.842927
    24  H    5.128164   7.192769   5.940935   3.848700   4.317796
    25  H    3.817144   6.106799   5.352631   4.170193   4.985106
    26  H    4.500592   5.804861   4.466297   4.032416   4.179943
    27  H    1.089800   4.233133   5.121046   3.615634   5.186792
                   21         22         23         24         25
    21  H    0.000000
    22  H    1.758907   0.000000
    23  H    2.470046   3.062710   0.000000
    24  H    2.517427   2.460465   1.764462   0.000000
    25  H    4.311962   3.838897   2.444316   2.519379   0.000000
    26  H    3.845507   2.702586   3.060438   2.493510   1.768529
    27  H    5.666818   6.075316   4.076977   5.681554   4.429916
                   26         27
    26  H    0.000000
    27  H    5.371946   0.000000
 Symmetry turned off by external request.
 Stoichiometry    C9H13N3O2
 Framework group  C1[X(C9H13N3O2)]
 Deg. of freedom    75
 Full point group                 C1      NOp   1
 Rotational constants (GHZ):           1.6634949           0.4205375           0.3732281

 **********************************************************************

            Population analysis using the SCF Density.

 **********************************************************************

 Alpha  occ. eigenvalues --  -20.59277 -20.58952 -15.84738 -15.64160 -15.55990
 Alpha  occ. eigenvalues --  -11.35020 -11.29585 -11.29576 -11.28706 -11.27110
 Alpha  occ. eigenvalues --  -11.23735 -11.23200 -11.22642 -11.22072  -1.57148
 Alpha  occ. eigenvalues --   -1.36743  -1.30983  -1.22943  -1.14704  -1.09814
 Alpha  occ. eigenvalues --   -1.02787  -1.01299  -0.94512  -0.89702  -0.85518
 Alpha  occ. eigenvalues --   -0.82482  -0.78668  -0.77403  -0.75221  -0.72051
 Alpha  occ. eigenvalues --   -0.69825  -0.69373  -0.67785  -0.64814  -0.63852
 Alpha  occ. eigenvalues --   -0.62289  -0.60265  -0.57752  -0.56912  -0.55109
 Alpha  occ. eigenvalues --   -0.54565  -0.50658  -0.50248  -0.48723  -0.48119
 Alpha  occ. eigenvalues --   -0.47395  -0.46136  -0.45983  -0.43699  -0.41824
 Alpha  occ. eigenvalues --   -0.39553  -0.33746
 Alpha virt. eigenvalues --    0.07429   0.11575   0.17238   0.21875   0.24281
 Alpha virt. eigenvalues --    0.26029   0.26972   0.28768   0.29151   0.29565
 Alpha virt. eigenvalues --    0.30667   0.31882   0.32028   0.32804   0.33977
 Alpha virt. eigenvalues --    0.34414   0.35924   0.37415   0.38609   0.40384
 Alpha virt. eigenvalues --    0.41242   0.42199   0.44743   0.46059   0.46662
 Alpha virt. eigenvalues --    0.47245   0.49046   0.54050   0.57724   0.59811
 Alpha virt. eigenvalues --    0.63835   0.69611   0.69789   0.72917   0.74197
 Alpha virt. eigenvalues --    0.74824   0.75726   0.76557   0.78669   0.79561
 Alpha virt. eigenvalues --    0.81538   0.84123   0.85586   0.85867   0.88667
 Alpha virt. eigenvalues --    0.89266   0.91499   0.92022   0.92989   0.94564
 Alpha virt. eigenvalues --    0.95382   0.97968   1.00106   1.01874   1.02369
 Alpha virt. eigenvalues --    1.03284   1.05906   1.07103   1.08174   1.09170
 Alpha virt. eigenvalues --    1.10504   1.11260   1.11956   1.12399   1.13943
 Alpha virt. eigenvalues --    1.14541   1.15093   1.15642   1.17125   1.18738
 Alpha virt. eigenvalues --    1.18827   1.21491   1.22920   1.23617   1.24139
 Alpha virt. eigenvalues --    1.25125   1.26289   1.27448   1.27667   1.29673
 Alpha virt. eigenvalues --    1.29867   1.33363   1.35674   1.37244   1.40511
 Alpha virt. eigenvalues --    1.42810   1.48601   1.49321   1.52046   1.54637
 Alpha virt. eigenvalues --    1.57303   1.58735   1.60220   1.62782   1.64589
 Alpha virt. eigenvalues --    1.67518   1.67694   1.72738   1.75674   1.78302
 Alpha virt. eigenvalues --    1.81355   1.84521   1.88027   1.90226   1.92766
 Alpha virt. eigenvalues --    1.95447   1.96083   1.99797   2.01245   2.03149
 Alpha virt. eigenvalues --    2.04689   2.06137   2.08305   2.09533   2.12511
 Alpha virt. eigenvalues --    2.12805   2.15749   2.18525   2.19985   2.22311
 Alpha virt. eigenvalues --    2.22855   2.24179   2.25220   2.28278   2.29157
 Alpha virt. eigenvalues --    2.31719   2.33551   2.34996   2.36580   2.38183
 Alpha virt. eigenvalues --    2.39962   2.42730   2.44576   2.45471   2.46736
 Alpha virt. eigenvalues --    2.50524   2.52283   2.53533   2.55634   2.60416
 Alpha virt. eigenvalues --    2.62457   2.65771   2.67295   2.69595   2.70432
 Alpha virt. eigenvalues --    2.71725   2.72412   2.76871   2.78044   2.83489
 Alpha virt. eigenvalues --    2.88501   2.89200   2.92780   2.93206   2.95952
 Alpha virt. eigenvalues --    2.99458   3.01276   3.04396   3.06171   3.07977
 Alpha virt. eigenvalues --    3.09581   3.15434   3.21128   3.24757   3.27544
 Alpha virt. eigenvalues --    3.33072   3.37158   3.38674   3.52100   3.66761
 Alpha virt. eigenvalues --    4.13315   4.27422   4.34933   4.39330   4.46362
 Alpha virt. eigenvalues --    4.55843   4.61565   4.62264   4.73608   4.79519
 Alpha virt. eigenvalues --    4.99772   5.00879   5.06473   5.10385
          Condensed to atoms (all electrons):
               1          2          3          4          5          6
     1  O    8.316948   0.306004  -0.083078  -0.084754   0.004457  -0.000016
     2  N    0.306004   5.721400   0.302470   0.263220  -0.055322   0.000959
     3  O   -0.083078   0.302470   8.352499  -0.093243   0.003802   0.000778
     4  C   -0.084754   0.263220  -0.093243   5.224783   0.561880  -0.048568
     5  C    0.004457  -0.055322   0.003802   0.561880   4.714790   0.320242
     6  N   -0.000016   0.000959   0.000778  -0.048568   0.320242   7.191320
     7  C    0.000003  -0.000153   0.000001   0.004817  -0.030843   0.169707
     8  H   -0.000000   0.000002  -0.000000  -0.000228   0.002966  -0.049590
     9  C   -0.000000  -0.000005   0.000000   0.000752   0.000807  -0.062137
    10  C   -0.000000   0.000000   0.000000  -0.000034  -0.000058   0.003743
    11  C   -0.000000  -0.000000  -0.000000  -0.000032   0.000026  -0.000193
    12  C   -0.000000   0.000002  -0.000000  -0.000172  -0.000185   0.004019
    13  C   -0.000021  -0.000017  -0.000002  -0.010465  -0.000825  -0.049861
    14  H   -0.000003  -0.000073   0.000001   0.002407   0.005668  -0.006710
    15  N    0.000463   0.002397  -0.000016  -0.062219  -0.007865   0.001858
    16  C    0.001127  -0.026433   0.002546   0.328816  -0.051694  -0.000453
    17  H    0.000231  -0.007107   0.017566  -0.022723   0.373920  -0.033313
    18  H    0.000001  -0.000051   0.000012   0.001490  -0.031322   0.338820
    19  H    0.000001  -0.000004   0.000000  -0.001211   0.001286  -0.000614
    20  H    0.000000  -0.000000   0.000000  -0.000099   0.000149  -0.000204
    21  H   -0.000000   0.000000  -0.000000   0.000001   0.000001  -0.000078
    22  H   -0.000000   0.000000  -0.000000  -0.000000  -0.000003  -0.000115
    23  H    0.000000  -0.000000   0.000000   0.000042   0.000001  -0.000031
    24  H    0.000000   0.000000   0.000000   0.000000  -0.000000   0.000006
    25  H    0.000000  -0.000000   0.000000   0.000029  -0.000001  -0.000092
    26  H    0.000000  -0.000000   0.000000   0.000004  -0.000000  -0.000064
    27  H    0.005818  -0.000882   0.000009  -0.064324   0.002396  -0.000001
               7          8          9         10         11         12
     1  O    0.000003  -0.000000  -0.000000  -0.000000  -0.000000  -0.000000
     2  N   -0.000153   0.000002  -0.000005   0.000000  -0.000000   0.000002
     3  O    0.000001  -0.000000   0.000000   0.000000  -0.000000  -0.000000
     4  C    0.004817  -0.000228   0.000752  -0.000034  -0.000032  -0.000172
     5  C   -0.030843   0.002966   0.000807  -0.000058   0.000026  -0.000185
     6  N    0.169707  -0.049590  -0.062137   0.003743  -0.000193   0.004019
     7  C    5.025341   0.417623   0.351133  -0.054703  -0.009097  -0.061885
     8  H    0.417623   0.535605  -0.053493   0.000504  -0.000260  -0.002319
     9  C    0.351133  -0.053493   5.155353   0.325645  -0.050672  -0.005101
    10  C   -0.054703   0.000504   0.325645   5.118848   0.336986  -0.061270
    11  C   -0.009097  -0.000260  -0.050672   0.336986   5.120827   0.335963
    12  C   -0.061885  -0.002319  -0.005101  -0.061270   0.335963   5.120940
    13  C    0.334116  -0.037164  -0.061294  -0.000143  -0.050454   0.372564
    14  H   -0.047041  -0.000711   0.004399  -0.000399   0.004215  -0.036649
    15  N   -0.059225   0.003846  -0.014018   0.001541  -0.013411  -0.083413
    16  C   -0.000795  -0.000094  -0.000756  -0.000065   0.000053   0.002360
    17  H    0.001577  -0.000060  -0.000053   0.000001   0.000000   0.000000
    18  H   -0.021334  -0.004627   0.001491  -0.000083   0.000003  -0.000116
    19  H   -0.036792   0.004304   0.391017  -0.032433  -0.002164   0.000671
    20  H   -0.042247  -0.002026   0.399312  -0.035084   0.003915  -0.000424
    21  H    0.004612  -0.000073  -0.036456   0.402465  -0.034890   0.004360
    22  H   -0.004902   0.003547  -0.046933   0.397669  -0.045317  -0.001029
    23  H    0.000622   0.000035  -0.001992  -0.039022   0.399160  -0.037981
    24  H   -0.000131  -0.000103   0.004389  -0.038398   0.402367  -0.038587
    25  H    0.005191  -0.000027  -0.000427   0.004196  -0.033298   0.397977
    26  H   -0.003823   0.001659   0.000967  -0.002248  -0.041533   0.396419
    27  H   -0.000398   0.000008  -0.000045   0.000005   0.000014  -0.000037
              13         14         15         16         17         18
     1  O   -0.000021  -0.000003   0.000463   0.001127   0.000231   0.000001
     2  N   -0.000017  -0.000073   0.002397  -0.026433  -0.007107  -0.000051
     3  O   -0.000002   0.000001  -0.000016   0.002546   0.017566   0.000012
     4  C   -0.010465   0.002407  -0.062219   0.328816  -0.022723   0.001490
     5  C   -0.000825   0.005668  -0.007865  -0.051694   0.373920  -0.031322
     6  N   -0.049861  -0.006710   0.001858  -0.000453  -0.033313   0.338820
     7  C    0.334116  -0.047041  -0.059225  -0.000795   0.001577  -0.021334
     8  H   -0.037164  -0.000711   0.003846  -0.000094  -0.000060  -0.004627
     9  C   -0.061294   0.004399  -0.014018  -0.000756  -0.000053   0.001491
    10  C   -0.000143  -0.000399   0.001541  -0.000065   0.000001  -0.000083
    11  C   -0.050454   0.004215  -0.013411   0.000053   0.000000   0.000003
    12  C    0.372564  -0.036649  -0.083413   0.002360   0.000000  -0.000116
    13  C    5.039956   0.404733   0.245872  -0.068862  -0.000024   0.002950
    14  H    0.404733   0.527085  -0.036726  -0.005510   0.000053  -0.000099
    15  N    0.245872  -0.036726   6.973658   0.583726  -0.000077  -0.000129
    16  C   -0.068862  -0.005510   0.583726   4.702007   0.001762  -0.000174
    17  H   -0.000024   0.000053  -0.000077   0.001762   0.374452  -0.002790
    18  H    0.002950  -0.000099  -0.000129  -0.000174  -0.002790   0.310292
    19  H   -0.007695   0.000106   0.007628   0.002555   0.000012  -0.000145
    20  H    0.004374  -0.000068   0.000132  -0.000038  -0.000000   0.000683
    21  H   -0.000439   0.000010  -0.000043   0.000004  -0.000000   0.000001
    22  H    0.000030  -0.000054   0.000023  -0.000001   0.000000   0.000001
    23  H   -0.007714   0.000002   0.008734   0.000153   0.000000   0.000000
    24  H    0.004703  -0.000058   0.000124   0.000006   0.000000  -0.000000
    25  H   -0.035465  -0.002842   0.000711  -0.000032  -0.000000   0.000002
    26  H   -0.047581  -0.001041   0.004971  -0.000042   0.000000   0.000000
    27  H    0.005002  -0.000159  -0.041042   0.404943  -0.000079   0.000001
              19         20         21         22         23         24
     1  O    0.000001   0.000000  -0.000000  -0.000000   0.000000   0.000000
     2  N   -0.000004  -0.000000   0.000000   0.000000  -0.000000   0.000000
     3  O    0.000000   0.000000  -0.000000  -0.000000   0.000000   0.000000
     4  C   -0.001211  -0.000099   0.000001  -0.000000   0.000042   0.000000
     5  C    0.001286   0.000149   0.000001  -0.000003   0.000001  -0.000000
     6  N   -0.000614  -0.000204  -0.000078  -0.000115  -0.000031   0.000006
     7  C   -0.036792  -0.042247   0.004612  -0.004902   0.000622  -0.000131
     8  H    0.004304  -0.002026  -0.000073   0.003547   0.000035  -0.000103
     9  C    0.391017   0.399312  -0.036456  -0.046933  -0.001992   0.004389
    10  C   -0.032433  -0.035084   0.402465   0.397669  -0.039022  -0.038398
    11  C   -0.002164   0.003915  -0.034890  -0.045317   0.399160   0.402367
    12  C    0.000671  -0.000424   0.004360  -0.001029  -0.037981  -0.038587
    13  C   -0.007695   0.004374  -0.000439   0.000030  -0.007714   0.004703
    14  H    0.000106  -0.000068   0.000010  -0.000054   0.000002  -0.000058
    15  N    0.007628   0.000132  -0.000043   0.000023   0.008734   0.000124
    16  C    0.002555  -0.000038   0.000004  -0.000001   0.000153   0.000006
    17  H    0.000012  -0.000000  -0.000000   0.000000   0.000000   0.000000
    18  H   -0.000145   0.000683   0.000001   0.000001   0.000000  -0.000000
    19  H    0.505136  -0.024641  -0.002767   0.003966   0.001527  -0.000068
    20  H   -0.024641   0.539372  -0.002703  -0.002967  -0.000045  -0.000083
    21  H   -0.002767  -0.002703   0.523951  -0.027394  -0.002896  -0.002249
    22  H    0.003966  -0.002967  -0.027394   0.571322   0.004133  -0.003637
    23  H    0.001527  -0.000045  -0.002896   0.004133   0.498892  -0.025425
    24  H   -0.000068  -0.000083  -0.002249  -0.003637  -0.025425   0.537841
    25  H   -0.000029   0.000013  -0.000087  -0.000081  -0.002285  -0.002309
    26  H    0.000020  -0.000030  -0.000081   0.002383   0.004075  -0.003010
    27  H    0.000069   0.000000  -0.000000   0.000000  -0.000036  -0.000000
              25         26         27
     1  O    0.000000   0.000000   0.005818
     2  N   -0.000000  -0.000000  -0.000882
     3  O    0.000000   0.000000   0.000009
     4  C    0.000029   0.000004  -0.064324
     5  C   -0.000001  -0.000000   0.002396
     6  N   -0.000092  -0.000064  -0.000001
     7  C    0.005191  -0.003823  -0.000398
     8  H   -0.000027   0.001659   0.000008
     9  C   -0.000427   0.000967  -0.000045
    10  C    0.004196  -0.002248   0.000005
    11  C   -0.033298  -0.041533   0.000014
    12  C    0.397977   0.396419  -0.000037
    13  C   -0.035465  -0.047581   0.005002
    14  H   -0.002842  -0.001041  -0.000159
    15  N    0.000711   0.004971  -0.041042
    16  C   -0.000032  -0.000042   0.404943
    17  H   -0.000000   0.000000  -0.000079
    18  H    0.000002   0.000000   0.000001
    19  H   -0.000029   0.000020   0.000069
    20  H    0.000013  -0.000030   0.000000
    21  H   -0.000087  -0.000081  -0.000000
    22  H   -0.000081   0.002383   0.000000
    23  H   -0.002285   0.004075  -0.000036
    24  H   -0.002309  -0.003010  -0.000000
    25  H    0.505698  -0.024033  -0.000016
    26  H   -0.024033   0.563447   0.000001
    27  H   -0.000016   0.000001   0.440273
 Mulliken charges:
               1
     1  O   -0.467180
     2  N    0.493592
     3  O   -0.503344
     4  C   -0.000168
     5  C    0.185729
     6  N   -0.779411
     7  C    0.058628
     8  H    0.180674
     9  C   -0.301882
    10  C   -0.327662
    11  C   -0.322207
    12  C   -0.306106
    13  C   -0.036272
    14  H    0.189464
    15  N   -0.517501
    16  C    0.124892
    17  H    0.296651
    18  H    0.405123
    19  H    0.190266
    20  H    0.162706
    21  H    0.174748
    22  H    0.149360
    23  H    0.200048
    24  H    0.164621
    25  H    0.187208
    26  H    0.149542
    27  H    0.248480
 Sum of Mulliken charges =  -0.00000
 Mulliken charges with hydrogens summed into heavy atoms:
               1
     1  O   -0.467180
     2  N    0.493592
     3  O   -0.503344
     4  C   -0.000168
     5  C    0.482379
     6  N   -0.374288
     7  C    0.239302
     9  C    0.051090
    10  C   -0.003554
    11  C    0.042462
    12  C    0.030644
    13  C    0.153192
    15  N   -0.517501
    16  C    0.373372
 Electronic spatial extent (au):  <R**2>=           3000.9098
 Charge=             -0.0000 electrons
 Dipole moment (field-independent basis, Debye):
    X=              5.3752    Y=              4.7070    Z=              1.6391  Tot=              7.3305
 Quadrupole moment (field-independent basis, Debye-Ang):
   XX=           -105.8814   YY=            -79.4445   ZZ=            -81.3751
   XY=             -1.3290   XZ=             -1.4151   YZ=              2.5732
 Traceless Quadrupole moment (field-independent basis, Debye-Ang):
   XX=            -16.9811   YY=              9.4558   ZZ=              7.5252
   XY=             -1.3290   XZ=             -1.4151   YZ=              2.5732
 Octapole moment (field-independent basis, Debye-Ang**2):
  XXX=             90.3853  YYY=             34.2271  ZZZ=              1.2926  XYY=             -4.6367
  XXY=              8.0793  XXZ=             10.7302  XZZ=             -9.7175  YZZ=             -0.0453
  YYZ=              9.7398  XYZ=             -0.8774
 Hexadecapole moment (field-independent basis, Debye-Ang**3):
 XXXX=          -3359.8437 YYYY=           -606.2085 ZZZZ=           -308.6823 XXXY=            -10.7050
 XXXZ=            -54.0909 YYYX=             -0.6343 YYYZ=             29.6098 ZZZX=            -18.5810
 ZZZY=              8.4361 XXYY=           -627.0797 XXZZ=           -523.0346 YYZZ=           -157.5948
 XXYZ=              1.2191 YYXZ=             -6.2763 ZZXY=              6.4220
 N-N= 9.311417434323D+02 E-N=-3.409001200883D+03  KE= 6.596266265144D+02
 Unable to Open any file for archive entry.
 1\1\GINC-LOTUS\FOpt\RMP2-FC\6-31G(d)\C9H13N3O2\ALEXEY\02-Jul-2023\0\\#
 MP2/6-31G* SCF=Tight Opt=(ModRedun, MaxCycle=20 ) NoSymm\\MolName:\\0,
 1\O,-3.5146767606,-1.3681403259,-0.3926021561\N,-3.1115371999,-0.20269
 84514,-0.2121539311\O,-3.8683828751,0.7860461286,-0.155643779\C,-1.676
 1521764,-0.0134893101,-0.0626802863\C,-1.2937175339,1.2561215811,0.288
 3341726\N,-0.0534088718,1.7427384787,0.4455645308\C,1.2112137922,1.023
 9945048,0.3894784199\H,1.8718469289,1.5530864753,1.0920229551\C,1.8817
 862652,1.0374842881,-0.9829508926\C,3.2842682892,0.4320559541,-0.85295
 09994\C,3.2524334983,-0.964745036,-0.2269618412\C,2.4887532132,-0.9769
 862845,1.0989057489\C,1.0723644136,-0.4270574202,0.8919246514\H,0.5153
 804938,-0.4100811916,1.841235388\N,0.4111602775,-1.3300130011,-0.04448
 46006\C,-0.8440150119,-1.169870071,-0.322111095\H,-2.0902627656,1.9836
 563582,0.4176884226\H,-0.0027507973,2.7157175713,0.7234346001\H,1.2705
 67026,0.4588075569,-1.6840521624\H,1.9364970708,2.0654164727,-1.362004
 6867\H,3.7647068931,0.3955617172,-1.837393667\H,3.8983539275,1.0983997
 189,-0.2305609232\H,2.7584021968,-1.66147146,-0.9116017636\H,4.2757559
 202,-1.3279734119,-0.0750952132\H,2.4145864632,-1.9988869483,1.4847749
 836\H,3.0146866501,-0.3768490182,1.8543237926\H,-1.3078593272,-1.95682
 48757,-0.9164296682\\Version=ES64L-G16RevC.02\HF=-661.2992053\MP2=-663
 .3338279\RMSD=6.449e-09\RMSF=1.669e-03\Dipole=1.9730093,1.6671987,0.58
 32569\PG=C01 [X(C9H13N3O2)]\\@
 The archive entry for this job was punched.


 SATCHEL PAIGE'S GUIDE TO LONGEVITY

    1.  AVOID FRIED MEATS, WHICH ANGRY UP THE BLOOD.

    2.  IF YOUR STOMACH DISPUTES YOU, LIE DOWN AND PACIFY IT WITH COOL
        THOUGHTS.

    3.  KEEP THE JUICES FLOWING BY JANGLING AROUND GENTLY AS YOU MOVE.

    4.  GO VERY LIGHT ON THE VICES, SUCH AS CARRYING ON IN SOCIETY.
        THE SOCIAL RUMBLE AIN'T RESTFUL.

    5.  AVOID RUNNING AT ALL TIMES.

    6.  DON'T LOOK BACK.  SOMETHING MAY BE GAINING ON YOU.
 Job cpu time:       0 days  1 hours 25 minutes 35.3 seconds.
 Elapsed time:       0 days  0 hours 25 minutes 59.5 seconds.
 File lengths (MBytes):  RWF=     36 Int=      0 D2E=      0 Chk=      7 Scr=      1
 Normal termination of Gaussian 16 at Sun Jul  2 10:12:41 2023.
