 Entering Gaussian System, Link 0=g16
 Initial command:
 /home/alexey/programs//g16/l1.exe "/home/alexey/tmp/Gau-1478798.inp" -scrdir="/home/alexey/tmp/"
 Entering Link 1 = /home/alexey/programs//g16/l1.exe PID=   1478800.
  
 Copyright (c) 1988-2021, Gaussian, Inc.  All Rights Reserved.
  
 This is part of the Gaussian(R) 16 program.  It is based on
 the Gaussian(R) 09 system (copyright 2009, Gaussian, Inc.),
 the Gaussian(R) 03 system (copyright 2003, Gaussian, Inc.),
 the Gaussian(R) 98 system (copyright 1998, Gaussian, Inc.),
 the Gaussian(R) 94 system (copyright 1995, Gaussian, Inc.),
 the Gaussian 92(TM) system (copyright 1992, Gaussian, Inc.),
 the Gaussian 90(TM) system (copyright 1990, Gaussian, Inc.),
 the Gaussian 88(TM) system (copyright 1988, Gaussian, Inc.),
 the Gaussian 86(TM) system (copyright 1986, Carnegie Mellon
 University), and the Gaussian 82(TM) system (copyright 1983,
 Carnegie Mellon University). Gaussian is a federally registered
 trademark of Gaussian, Inc.
  
 This software contains proprietary and confidential information,
 including trade secrets, belonging to Gaussian, Inc.
  
 This software is provided under written license and may be
 used, copied, transmitted, or stored only in accord with that
 written license.
  
 The following legend is applicable only to US Government
 contracts under FAR:
  
                    RESTRICTED RIGHTS LEGEND
  
 Use, reproduction and disclosure by the US Government is
 subject to restrictions as set forth in subparagraphs (a)
 and (c) of the Commercial Computer Software - Restricted
 Rights clause in FAR 52.227-19.
  
 Gaussian, Inc.
 340 Quinnipiac St., Bldg. 40, Wallingford CT 06492
  
  
 ---------------------------------------------------------------
 Warning -- This program may not be used in any manner that
 competes with the business of Gaussian, Inc. or will provide
 assistance to any competitor of Gaussian, Inc.  The licensee
 of this program is prohibited from giving any competitor of
 Gaussian, Inc. access to this program.  By using this program,
 the user acknowledges that Gaussian, Inc. is engaged in the
 business of creating and licensing software in the field of
 computational chemistry and represents and warrants to the
 licensee that it is not a competitor of Gaussian, Inc. and that
 it will not use this program in any manner prohibited above.
 ---------------------------------------------------------------
  

 Cite this work as:
 Gaussian 16, Revision C.02,
 M. J. Frisch, G. W. Trucks, H. B. Schlegel, G. E. Scuseria, 
 M. A. Robb, J. R. Cheeseman, G. Scalmani, V. Barone, 
 G. A. Petersson, H. Nakatsuji, X. Li, M. Caricato, A. V. Marenich, 
 J. Bloino, B. G. Janesko, R. Gomperts, B. Mennucci, H. P. Hratchian, 
 J. V. Ortiz, A. F. Izmaylov, J. L. Sonnenberg, D. Williams-Young, 
 F. Ding, F. Lipparini, F. Egidi, J. Goings, B. Peng, A. Petrone, 
 T. Henderson, D. Ranasinghe, V. G. Zakrzewski, J. Gao, N. Rega, 
 G. Zheng, W. Liang, M. Hada, M. Ehara, K. Toyota, R. Fukuda, 
 J. Hasegawa, M. Ishida, T. Nakajima, Y. Honda, O. Kitao, H. Nakai, 
 T. Vreven, K. Throssell, J. A. Montgomery, Jr., J. E. Peralta, 
 F. Ogliaro, M. J. Bearpark, J. J. Heyd, E. N. Brothers, K. N. Kudin, 
 V. N. Staroverov, T. A. Keith, R. Kobayashi, J. Normand, 
 K. Raghavachari, A. P. Rendell, J. C. Burant, S. S. Iyengar, 
 J. Tomasi, M. Cossi, J. M. Millam, M. Klene, C. Adamo, R. Cammi, 
 J. W. Ochterski, R. L. Martin, K. Morokuma, O. Farkas, 
 J. B. Foresman, and D. J. Fox, Gaussian, Inc., Wallingford CT, 2019.
 
 ******************************************
 Gaussian 16:  ES64L-G16RevC.02  7-Dec-2021
                 2-Jul-2023 
 ******************************************
 %mem=8GB
 %NPROCS=4
 Will use up to    4 processors via shared memory.
 %NoSave
 ---------------------------------------------------------
 #MP2/6-31G* SCF=Tight Opt=(ModRedun, MaxCycle=20 ) NoSymm
 ---------------------------------------------------------
 1/6=20,18=120,19=15,38=1/1,3;
 2/9=110,12=2,15=1,17=6,18=5,40=1/2;
 3/5=1,6=6,7=1,11=9,25=1,30=1,71=1/1,2,3;
 4//1;
 5/5=2,32=2,38=5/2;
 8/6=4,10=2/1;
 9/15=2,16=-3/6;
 10/5=1,31=1/2;
 6/7=2,8=2,9=2,10=2/1;
 7/12=2,30=1/1,2,3,16;
 1/6=20,18=20,19=15/3(2);
 2/9=110,15=1/2;
 99//99;
 2/9=110,15=1/2;
 3/5=1,6=6,7=1,11=9,25=1,30=1,71=1/1,2,3;
 4/5=5,16=3,69=1/1;
 5/5=2,32=2,38=5/2;
 8/6=4,10=2/1;
 9/15=2,16=-3/6;
 10/5=1,31=1/2;
 7/12=2,30=1/1,2,3,16;
 1/6=20,18=20,19=15/3(-8);
 2/9=110,15=1/2;
 6/7=2,8=2,9=2,10=2/1;
 99/9=10/99;
 --------
 MolName:
 --------
 Symbolic Z-matrix:
 Charge =  0 Multiplicity = 1
 8                    0    -3.62181  -1.44072  -0.19582 
 7                    0    -3.25908  -0.27665  -0.03507 
 8                    0    -4.03715   0.66648   0.11308 
 6                    0    -1.75753   0.0063   -0.04201 
 6                    0    -1.36878   1.31333   0.27364 
 7                    0    -0.08103   1.7665    0.39761 
 6                    0     1.19829   0.99488   0.36451 
 1                    0     1.86364   1.49201   1.11743 
 6                    0     1.95974   1.04799  -0.98353 
 6                    0     3.37226   0.46151  -0.79793 
 6                    0     3.31176  -0.95525  -0.20531 
 6                    0     2.46621  -0.99065   1.08605 
 6                    0     1.02874  -0.45466   0.84285 
 1                    0     0.48161  -0.49481   1.81387 
 7                    0     0.37079  -1.32337  -0.1358 
 6                    0    -0.87136  -1.12239  -0.43149 
 1                    0    -2.15642   2.05446   0.48854 
 1                    0     0.15142   2.74979   0.23833 
 1                    0     1.40868   0.47234  -1.75737 
 1                    0     2.04511   2.09848  -1.33401 
 1                    0     3.90488   0.43891  -1.77383 
 1                    0     3.95074   1.1145   -0.10683 
 1                    0     2.86303  -1.6436   -0.95669 
 1                    0     4.34022  -1.31927   0.00909 
 1                    0     2.40864  -2.03744   1.45704 
 1                    0     2.96189  -0.38052   1.86997 
 1                    0    -1.37348  -1.87515  -1.0583 
 
 The following ModRedundant input section has been read:
 D       5       4      16      15 F                                           
 D       1       2       4      16 F                                           
 D       7      13      15      16 F                                           
 D       7       9      10      11 F                                           
 D       9      10      11      12 F                                           
 D       6       7      13      15 F                                           
 

 GradGradGradGradGradGradGradGradGradGradGradGradGradGradGradGradGradGrad
 Berny optimization.
 Initialization pass.
                           ----------------------------
                           !    Initial Parameters    !
                           ! (Angstroms and Degrees)  !
 --------------------------                            --------------------------
 ! Name  Definition              Value          Derivative Info.                !
 --------------------------------------------------------------------------------
 ! R1    R(1,2)                  1.2298         estimate D2E/DX2                !
 ! R2    R(2,3)                  1.2316         estimate D2E/DX2                !
 ! R3    R(2,4)                  1.528          estimate D2E/DX2                !
 ! R4    R(4,5)                  1.3997         estimate D2E/DX2                !
 ! R5    R(4,16)                 1.4869         estimate D2E/DX2                !
 ! R6    R(5,6)                  1.3708         estimate D2E/DX2                !
 ! R7    R(5,17)                 1.1026         estimate D2E/DX2                !
 ! R8    R(6,7)                  1.4944         estimate D2E/DX2                !
 ! R9    R(6,18)                 1.0229         estimate D2E/DX2                !
 ! R10   R(7,8)                  1.121          estimate D2E/DX2                !
 ! R11   R(7,9)                  1.5491         estimate D2E/DX2                !
 ! R12   R(7,13)                 1.5358         estimate D2E/DX2                !
 ! R13   R(9,10)                 1.5407         estimate D2E/DX2                !
 ! R14   R(9,19)                 1.1108         estimate D2E/DX2                !
 ! R15   R(9,20)                 1.1107         estimate D2E/DX2                !
 ! R16   R(10,11)                1.5369         estimate D2E/DX2                !
 ! R17   R(10,21)                1.112          estimate D2E/DX2                !
 ! R18   R(10,22)                1.1129         estimate D2E/DX2                !
 ! R19   R(11,12)                1.544          estimate D2E/DX2                !
 ! R20   R(11,23)                1.1134         estimate D2E/DX2                !
 ! R21   R(11,24)                1.1118         estimate D2E/DX2                !
 ! R22   R(12,13)                1.5533         estimate D2E/DX2                !
 ! R23   R(12,25)                1.1121         estimate D2E/DX2                !
 ! R24   R(12,26)                1.1102         estimate D2E/DX2                !
 ! R25   R(13,14)                1.1153         estimate D2E/DX2                !
 ! R26   R(13,15)                1.4647         estimate D2E/DX2                !
 ! R27   R(15,16)                1.2926         estimate D2E/DX2                !
 ! R28   R(16,27)                1.1008         estimate D2E/DX2                !
 ! A1    A(1,2,3)              123.6572         estimate D2E/DX2                !
 ! A2    A(1,2,4)              117.6793         estimate D2E/DX2                !
 ! A3    A(3,2,4)              118.657          estimate D2E/DX2                !
 ! A4    A(2,4,5)              116.4127         estimate D2E/DX2                !
 ! A5    A(2,4,16)             116.5058         estimate D2E/DX2                !
 ! A6    A(5,4,16)             127.0404         estimate D2E/DX2                !
 ! A7    A(4,5,6)              126.1589         estimate D2E/DX2                !
 ! A8    A(4,5,17)             118.2424         estimate D2E/DX2                !
 ! A9    A(6,5,17)             115.5451         estimate D2E/DX2                !
 ! A10   A(5,6,7)              129.1633         estimate D2E/DX2                !
 ! A11   A(5,6,18)             121.145          estimate D2E/DX2                !
 ! A12   A(7,6,18)             107.3598         estimate D2E/DX2                !
 ! A13   A(6,7,8)              105.3222         estimate D2E/DX2                !
 ! A14   A(6,7,9)              114.9841         estimate D2E/DX2                !
 ! A15   A(6,7,13)             112.7018         estimate D2E/DX2                !
 ! A16   A(8,7,9)              106.1116         estimate D2E/DX2                !
 ! A17   A(8,7,13)             105.9551         estimate D2E/DX2                !
 ! A18   A(9,7,13)             110.9557         estimate D2E/DX2                !
 ! A19   A(7,9,10)             109.437          estimate D2E/DX2                !
 ! A20   A(7,9,19)             110.1577         estimate D2E/DX2                !
 ! A21   A(7,9,20)             110.169          estimate D2E/DX2                !
 ! A22   A(10,9,19)            109.9673         estimate D2E/DX2                !
 ! A23   A(10,9,20)            109.1219         estimate D2E/DX2                !
 ! A24   A(19,9,20)            107.9653         estimate D2E/DX2                !
 ! A25   A(9,10,11)            111.1784         estimate D2E/DX2                !
 ! A26   A(9,10,21)            109.9468         estimate D2E/DX2                !
 ! A27   A(9,10,22)            109.1476         estimate D2E/DX2                !
 ! A28   A(11,10,21)           109.7865         estimate D2E/DX2                !
 ! A29   A(11,10,22)           108.7765         estimate D2E/DX2                !
 ! A30   A(21,10,22)           107.9342         estimate D2E/DX2                !
 ! A31   A(10,11,12)           111.42           estimate D2E/DX2                !
 ! A32   A(10,11,23)           108.9987         estimate D2E/DX2                !
 ! A33   A(10,11,24)           109.8616         estimate D2E/DX2                !
 ! A34   A(12,11,23)           109.2406         estimate D2E/DX2                !
 ! A35   A(12,11,24)           109.742          estimate D2E/DX2                !
 ! A36   A(23,11,24)           107.4881         estimate D2E/DX2                !
 ! A37   A(11,12,13)           111.5889         estimate D2E/DX2                !
 ! A38   A(11,12,25)           109.2053         estimate D2E/DX2                !
 ! A39   A(11,12,26)           109.48           estimate D2E/DX2                !
 ! A40   A(13,12,25)           109.216          estimate D2E/DX2                !
 ! A41   A(13,12,26)           109.5184         estimate D2E/DX2                !
 ! A42   A(25,12,26)           107.7501         estimate D2E/DX2                !
 ! A43   A(7,13,12)            105.8            estimate D2E/DX2                !
 ! A44   A(7,13,14)            111.0577         estimate D2E/DX2                !
 ! A45   A(7,13,15)            113.6578         estimate D2E/DX2                !
 ! A46   A(12,13,14)           107.7734         estimate D2E/DX2                !
 ! A47   A(12,13,15)           108.401          estimate D2E/DX2                !
 ! A48   A(14,13,15)           109.8778         estimate D2E/DX2                !
 ! A49   A(13,15,16)           119.4926         estimate D2E/DX2                !
 ! A50   A(4,16,15)            129.1115         estimate D2E/DX2                !
 ! A51   A(4,16,27)            113.3532         estimate D2E/DX2                !
 ! A52   A(15,16,27)           117.5353         estimate D2E/DX2                !
 ! D1    D(1,2,4,5)           -173.9082         estimate D2E/DX2                !
 ! D2    D(1,2,4,16)             8.2583         Frozen                          !
 ! D3    D(3,2,4,5)              6.9823         estimate D2E/DX2                !
 ! D4    D(3,2,4,16)          -170.8512         estimate D2E/DX2                !
 ! D5    D(2,4,5,6)            176.2039         estimate D2E/DX2                !
 ! D6    D(2,4,5,17)            -1.0052         estimate D2E/DX2                !
 ! D7    D(16,4,5,6)            -6.2251         estimate D2E/DX2                !
 ! D8    D(16,4,5,17)          176.5657         estimate D2E/DX2                !
 ! D9    D(2,4,16,15)         -155.7294         estimate D2E/DX2                !
 ! D10   D(2,4,16,27)           24.2266         estimate D2E/DX2                !
 ! D11   D(5,4,16,15)           26.7017         Frozen                          !
 ! D12   D(5,4,16,27)         -153.3423         estimate D2E/DX2                !
 ! D13   D(4,5,6,7)             -6.4712         estimate D2E/DX2                !
 ! D14   D(4,5,6,18)           153.8938         estimate D2E/DX2                !
 ! D15   D(17,5,6,7)           170.8039         estimate D2E/DX2                !
 ! D16   D(17,5,6,18)          -28.8311         estimate D2E/DX2                !
 ! D17   D(5,6,7,8)           -143.1043         estimate D2E/DX2                !
 ! D18   D(5,6,7,9)            100.4653         estimate D2E/DX2                !
 ! D19   D(5,6,7,13)           -28.044          estimate D2E/DX2                !
 ! D20   D(18,6,7,8)            54.4325         estimate D2E/DX2                !
 ! D21   D(18,6,7,9)           -61.9979         estimate D2E/DX2                !
 ! D22   D(18,6,7,13)          169.4928         estimate D2E/DX2                !
 ! D23   D(6,7,9,10)           168.7115         estimate D2E/DX2                !
 ! D24   D(6,7,9,19)           -70.2716         estimate D2E/DX2                !
 ! D25   D(6,7,9,20)            48.7322         estimate D2E/DX2                !
 ! D26   D(8,7,9,10)            52.7325         estimate D2E/DX2                !
 ! D27   D(8,7,9,19)           173.7493         estimate D2E/DX2                !
 ! D28   D(8,7,9,20)           -67.2468         estimate D2E/DX2                !
 ! D29   D(13,7,9,10)          -61.9137         estimate D2E/DX2                !
 ! D30   D(13,7,9,19)           59.1032         estimate D2E/DX2                !
 ! D31   D(13,7,9,20)          178.107          estimate D2E/DX2                !
 ! D32   D(6,7,13,12)         -166.1531         estimate D2E/DX2                !
 ! D33   D(6,7,13,14)          -49.4805         estimate D2E/DX2                !
 ! D34   D(6,7,13,15)           75.0225         Frozen                          !
 ! D35   D(8,7,13,12)          -51.475          estimate D2E/DX2                !
 ! D36   D(8,7,13,14)           65.1976         estimate D2E/DX2                !
 ! D37   D(8,7,13,15)         -170.2994         estimate D2E/DX2                !
 ! D38   D(9,7,13,12)           63.2689         estimate D2E/DX2                !
 ! D39   D(9,7,13,14)          179.9415         estimate D2E/DX2                !
 ! D40   D(9,7,13,15)          -55.5555         estimate D2E/DX2                !
 ! D41   D(7,9,10,11)           54.8124         Frozen                          !
 ! D42   D(7,9,10,21)          176.6028         estimate D2E/DX2                !
 ! D43   D(7,9,10,22)          -65.183          estimate D2E/DX2                !
 ! D44   D(19,9,10,11)         -66.3198         estimate D2E/DX2                !
 ! D45   D(19,9,10,21)          55.4706         estimate D2E/DX2                !
 ! D46   D(19,9,10,22)         173.6848         estimate D2E/DX2                !
 ! D47   D(20,9,10,11)         175.4315         estimate D2E/DX2                !
 ! D48   D(20,9,10,21)         -62.7782         estimate D2E/DX2                !
 ! D49   D(20,9,10,22)          55.4361         estimate D2E/DX2                !
 ! D50   D(9,10,11,12)         -52.8225         Frozen                          !
 ! D51   D(9,10,11,23)          67.8047         estimate D2E/DX2                !
 ! D52   D(9,10,11,24)        -174.6599         estimate D2E/DX2                !
 ! D53   D(21,10,11,12)       -174.7062         estimate D2E/DX2                !
 ! D54   D(21,10,11,23)        -54.079          estimate D2E/DX2                !
 ! D55   D(21,10,11,24)         63.4565         estimate D2E/DX2                !
 ! D56   D(22,10,11,12)         67.3928         estimate D2E/DX2                !
 ! D57   D(22,10,11,23)       -171.98           estimate D2E/DX2                !
 ! D58   D(22,10,11,24)        -54.4446         estimate D2E/DX2                !
 ! D59   D(10,11,12,13)         56.608          estimate D2E/DX2                !
 ! D60   D(10,11,12,25)        177.4493         estimate D2E/DX2                !
 ! D61   D(10,11,12,26)        -64.7983         estimate D2E/DX2                !
 ! D62   D(23,11,12,13)        -63.8772         estimate D2E/DX2                !
 ! D63   D(23,11,12,25)         56.9642         estimate D2E/DX2                !
 ! D64   D(23,11,12,26)        174.7166         estimate D2E/DX2                !
 ! D65   D(24,11,12,13)        178.5146         estimate D2E/DX2                !
 ! D66   D(24,11,12,25)        -60.6441         estimate D2E/DX2                !
 ! D67   D(24,11,12,26)         57.1083         estimate D2E/DX2                !
 ! D68   D(11,12,13,7)         -60.3376         estimate D2E/DX2                !
 ! D69   D(11,12,13,14)       -179.2087         estimate D2E/DX2                !
 ! D70   D(11,12,13,15)         61.9139         estimate D2E/DX2                !
 ! D71   D(25,12,13,7)         178.8273         estimate D2E/DX2                !
 ! D72   D(25,12,13,14)         59.9562         estimate D2E/DX2                !
 ! D73   D(25,12,13,15)        -58.9211         estimate D2E/DX2                !
 ! D74   D(26,12,13,7)          61.0463         estimate D2E/DX2                !
 ! D75   D(26,12,13,14)        -57.8247         estimate D2E/DX2                !
 ! D76   D(26,12,13,15)       -176.7021         estimate D2E/DX2                !
 ! D77   D(7,13,15,16)         -67.1603         Frozen                          !
 ! D78   D(12,13,15,16)        175.5156         estimate D2E/DX2                !
 ! D79   D(14,13,15,16)         57.9758         estimate D2E/DX2                !
 ! D80   D(13,15,16,4)           8.4316         estimate D2E/DX2                !
 ! D81   D(13,15,16,27)       -171.5228         estimate D2E/DX2                !
 --------------------------------------------------------------------------------
 Trust Radius=3.00D-01 FncErr=1.00D-07 GrdErr=1.00D-07 EigMax=2.50D+02 EigMin=1.00D-04
 Number of steps in this run=     20 maximum allowed number of steps=    162.
 GradGradGradGradGradGradGradGradGradGradGradGradGradGradGradGradGradGrad

                          Input orientation:                          
 ---------------------------------------------------------------------
 Center     Atomic      Atomic             Coordinates (Angstroms)
 Number     Number       Type             X           Y           Z
 ---------------------------------------------------------------------
      1          8           0       -3.621810   -1.440720   -0.195820
      2          7           0       -3.259080   -0.276650   -0.035070
      3          8           0       -4.037150    0.666480    0.113080
      4          6           0       -1.757530    0.006300   -0.042010
      5          6           0       -1.368780    1.313330    0.273640
      6          7           0       -0.081030    1.766500    0.397610
      7          6           0        1.198290    0.994880    0.364510
      8          1           0        1.863640    1.492010    1.117430
      9          6           0        1.959740    1.047990   -0.983530
     10          6           0        3.372260    0.461510   -0.797930
     11          6           0        3.311760   -0.955250   -0.205310
     12          6           0        2.466210   -0.990650    1.086050
     13          6           0        1.028740   -0.454660    0.842850
     14          1           0        0.481610   -0.494810    1.813870
     15          7           0        0.370790   -1.323370   -0.135800
     16          6           0       -0.871360   -1.122390   -0.431490
     17          1           0       -2.156420    2.054460    0.488540
     18          1           0        0.151420    2.749790    0.238330
     19          1           0        1.408680    0.472340   -1.757370
     20          1           0        2.045110    2.098480   -1.334010
     21          1           0        3.904880    0.438910   -1.773830
     22          1           0        3.950740    1.114500   -0.106830
     23          1           0        2.863030   -1.643600   -0.956690
     24          1           0        4.340220   -1.319270    0.009090
     25          1           0        2.408640   -2.037440    1.457040
     26          1           0        2.961890   -0.380520    1.869970
     27          1           0       -1.373480   -1.875150   -1.058300
 ---------------------------------------------------------------------
                    Distance matrix (angstroms):
                    1          2          3          4          5
     1  O    0.000000
     2  N    1.229826   0.000000
     3  O    2.169843   1.231599   0.000000
     4  C    2.364966   1.527993   2.378352   0.000000
     5  C    3.589057   2.489292   2.750344   1.399675   0.000000
     6  N    4.814098   3.802851   4.116052   2.470268   1.370778
     7  C    5.429501   4.652376   5.251752   3.143155   2.588342
     8  H    6.357334   5.540638   6.042313   4.082218   3.345511
     9  C    6.161807   5.467205   6.108256   3.973622   3.567902
    10  C    7.273103   6.715765   7.468019   5.205130   4.934706
    11  C    6.950551   6.607981   7.532454   5.162262   5.223342
    12  C    6.237767   5.877555   6.781330   4.484017   4.547030
    13  C    4.866083   4.380392   5.239538   2.959521   3.032802
    14  H    4.666011   4.178389   4.965931   2.951127   3.010917
    15  N    3.994775   3.779117   4.842662   2.511287   3.185268
    16  C    2.778822   2.563909   3.676797   1.486921   2.584060
    17  H    3.851234   2.631369   2.367404   2.153034   1.102648
    18  H    5.655628   4.567888   4.679742   3.354015   2.091811
    19  H    5.603933   5.031430   5.761366   3.631052   3.542111
    20  H    6.777566   5.955075   6.413936   4.528416   3.854302
    21  H    7.916703   7.406594   8.166276   5.937107   5.724354
    22  H    7.992533   7.343157   8.003466   5.815209   5.336814
    23  H    6.532475   6.340202   7.354819   4.990830   5.307105
    24  H    7.965592   7.670617   8.610130   6.240377   6.292317
    25  H    6.281270   6.119626   7.117979   4.876576   5.186231
    26  H    6.981162   6.506953   7.291737   5.106684   4.916513
    27  H    2.446955   2.675386   3.863567   2.172601   3.455502
                    6          7          8          9         10
     6  N    0.000000
     7  C    1.494374   0.000000
     8  H    2.091704   1.121034   0.000000
     9  C    2.566816   1.549141   2.149517   0.000000
    10  C    3.880403   2.522280   2.646973   1.540655   0.000000
    11  C    4.391180   2.931630   3.136204   2.539007   1.536902
    12  C    3.816315   2.463853   2.554932   2.948852   2.545403
    13  C    2.522574   1.535813   2.135878   2.541728   3.003933
    14  H    2.726881   2.198511   2.518430   3.520021   4.011472
    15  N    3.167959   2.511842   3.424259   2.977710   3.554298
    16  C    3.107686   3.065926   4.088333   3.609768   4.544373
    17  H    2.097244   3.520252   4.107643   4.485838   5.895659
    18  H    1.022870   2.047332   2.299244   2.767505   4.084589
    19  H    2.921990   2.195378   3.084022   1.110796   2.185472
    20  H    2.762099   2.195451   2.531856   1.110700   2.174484
    21  H    4.729178   3.493885   3.692569   2.186120   1.112014
    22  H    4.115183   2.795076   2.448941   2.176490   1.112948
    23  H    4.704296   3.387994   3.890091   2.839245   2.171637
    24  H    5.405587   3.918334   3.907066   3.500843   2.181606
    25  H    4.668063   3.442896   3.587391   3.959517   3.501172
    26  H    4.004610   2.696001   2.297572   3.344758   2.827562
    27  H    4.129372   4.107975   5.152719   4.434038   5.296208
                   11         12         13         14         15
    11  C    0.000000
    12  C    1.543962   0.000000
    13  C    2.561525   1.553303   0.000000
    14  H    3.506970   2.171225   1.115277   0.000000
    15  N    2.964734   2.448347   1.464688   2.121322   0.000000
    16  C    4.192563   3.668740   2.383314   2.695557   1.292580
    17  H    6.280189   5.567623   4.070192   3.900574   4.264543
    18  H    4.889978   4.479707   3.376927   3.621986   4.096185
    19  H    2.840531   3.368048   2.786544   3.814262   2.632732
    20  H    3.493370   3.946738   3.505745   4.367932   3.993509
    21  H    2.180763   3.506041   3.989695   5.046009   4.275344
    22  H    2.168377   2.838741   3.449962   4.279466   4.331292
    23  H    1.113443   2.180962   2.831350   3.829737   2.643420
    24  H    1.111849   2.186263   3.522585   4.338875   3.972076
    25  H    2.179488   1.112078   2.187818   2.494089   2.683257
    26  H    2.181630   1.110175   2.190329   2.483546   3.409674
    27  H    4.850287   4.485955   3.376807   3.687283   2.048889
                   16         17         18         19         20
    16  C    0.000000
    17  H    3.548269   0.000000
    18  H    4.060605   2.423265   0.000000
    19  H    3.082159   4.500795   3.278765   0.000000
    20  H    4.437831   4.580009   2.546079   1.796833   0.000000
    21  H    5.201154   6.668409   4.845350   2.496478   2.531079
    22  H    5.325573   6.207688   4.150680   3.098180   2.470954
    23  H    3.806989   6.399939   5.299319   2.689503   3.848964
    24  H    5.233874   7.336093   5.844300   3.863182   4.330411
    25  H    3.893875   6.206562   5.431194   4.198970   5.002794
    26  H    4.532206   5.833916   4.512187   4.037007   4.153482
    27  H    1.100756   4.295060   5.039508   3.706727   5.249048
                   21         22         23         24         25
    21  H    0.000000
    22  H    1.799282   0.000000
    23  H    2.467796   3.084233   0.000000
    24  H    2.541559   2.467462   1.794439   0.000000
    25  H    4.336999   3.841678   2.487503   2.518597   0.000000
    26  H    3.852009   2.668454   3.097604   2.498784   1.794988
    27  H    5.807576   6.179856   4.244050   5.839066   4.545075
                   26         27
    26  H    0.000000
    27  H    5.440967   0.000000
 Symmetry turned off by external request.
 Stoichiometry    C9H13N3O2
 Framework group  C1[X(C9H13N3O2)]
 Deg. of freedom    75
 Full point group                 C1      NOp   1
 Rotational constants (GHZ):           1.6748463           0.3999520           0.3550430
 Standard basis: 6-31G(d) (6D, 7F)
   236 basis functions,   444 primitive gaussians,   236 cartesian basis functions
    52 alpha electrons       52 beta electrons
       nuclear repulsion energy       917.3604974933 Hartrees.
 NAtoms=   27 NActive=   27 NUniq=   27 SFac= 1.00D+00 NAtFMM=   60 NAOKFM=F Big=F
 Integral buffers will be    131072 words long.
 Raffenetti 1 integral format.
 Two-electron integral symmetry is turned off.
 One-electron integrals computed using PRISM.
 NBasis=   236 RedAO= T EigKep=  1.27D-03  NBF=   236
 NBsUse=   236 1.00D-06 EigRej= -1.00D+00 NBFU=   236
 ExpMin= 1.61D-01 ExpMax= 5.48D+03 ExpMxC= 8.25D+02 IAcc=3 IRadAn=         5 AccDes= 0.00D+00
 Harris functional with IExCor=  205 and IRadAn=       5 diagonalized for initial guess.
 HarFok:  IExCor=  205 AccDes= 0.00D+00 IRadAn=         5 IDoV= 1 UseB2=F ITyADJ=14
 ICtDFT=  3500011 ScaDFX=  1.000000  1.000000  1.000000  1.000000
 FoFCou: FMM=F IPFlag=           0 FMFlag=      100000 FMFlg1=           0
         NFxFlg=           0 DoJE=T BraDBF=F KetDBF=T FulRan=T
         wScrn=  0.000000 ICntrl=       500 IOpCl=  0 I1Cent=   200000004 NGrid=           0
         NMat0=    1 NMatS0=      1 NMatT0=    0 NMatD0=    1 NMtDS0=    0 NMtDT0=    0
 Symmetry not used in FoFCou.
 Keep R1 ints in memory in canonical form, NReq=397720213.
 Requested convergence on RMS density matrix=1.00D-08 within 128 cycles.
 Requested convergence on MAX density matrix=1.00D-06.
 Requested convergence on             energy=1.00D-06.
 No special actions if energy rises.
 SCF Done:  E(RHF) =  -661.281173694     A.U. after   16 cycles
            NFock= 16  Conv=0.80D-08     -V/T= 2.0037
 ExpMin= 1.61D-01 ExpMax= 5.48D+03 ExpMxC= 8.25D+02 IAcc=3 IRadAn=         5 AccDes= 0.00D+00
 HarFok:  IExCor=  205 AccDes= 0.00D+00 IRadAn=         5 IDoV=-2 UseB2=F ITyADJ=14
 ICtDFT= 12500011 ScaDFX=  1.000000  1.000000  1.000000  1.000000
 Range of M.O.s used for correlation:    15   236
 NBasis=   236 NAE=    52 NBE=    52 NFC=    14 NFV=     0
 NROrb=    222 NOA=    38 NOB=    38 NVA=   184 NVB=   184
 Fully direct method using O(ONN) memory.
 JobTyp=1 Pass  1:  I=  15 to  52 NPSUse=  4 ParTrn=T ParDer=T DoDerP=T.
 Spin components of T(2) and E(2):
     alpha-alpha T2 =       0.9197700843D-01 E2=     -0.2717651042D+00
     alpha-beta  T2 =       0.4996588203D+00 E2=     -0.1493724120D+01
     beta-beta   T2 =       0.9197700843D-01 E2=     -0.2717651042D+00
 ANorm=    0.1297541073D+01
 E2 =    -0.2037254328D+01 EUMP2 =    -0.66331842802238D+03
          IDoAtm=111111111111111111111111111
          Differentiating once with respect to electric field.
                with respect to dipole field.
          Differentiating once with respect to nuclear coordinates.
 Keep R1 ints in memory in canonical form, NReq=397723379.
          There are     1 degrees of freedom in the 1st order CPHF.  IDoFFX=0 NUNeed=     1.
 LinEq1:  Iter=  0 NonCon=     1 RMS=4.61D-03 Max=1.12D-01 NDo=     1
 AX will form     1 AO Fock derivatives at one time.
 LinEq1:  Iter=  1 NonCon=     1 RMS=1.57D-03 Max=2.87D-02 NDo=     1
 LinEq1:  Iter=  2 NonCon=     1 RMS=6.41D-04 Max=1.79D-02 NDo=     1
 LinEq1:  Iter=  3 NonCon=     1 RMS=2.94D-04 Max=9.11D-03 NDo=     1
 LinEq1:  Iter=  4 NonCon=     1 RMS=9.04D-05 Max=2.11D-03 NDo=     1
 LinEq1:  Iter=  5 NonCon=     1 RMS=3.75D-05 Max=1.88D-03 NDo=     1
 LinEq1:  Iter=  6 NonCon=     1 RMS=1.54D-05 Max=5.84D-04 NDo=     1
 LinEq1:  Iter=  7 NonCon=     1 RMS=5.93D-06 Max=1.01D-04 NDo=     1
 LinEq1:  Iter=  8 NonCon=     1 RMS=2.36D-06 Max=5.95D-05 NDo=     1
 LinEq1:  Iter=  9 NonCon=     1 RMS=8.81D-07 Max=2.52D-05 NDo=     1
 LinEq1:  Iter= 10 NonCon=     1 RMS=4.32D-07 Max=1.50D-05 NDo=     1
 LinEq1:  Iter= 11 NonCon=     1 RMS=1.54D-07 Max=5.72D-06 NDo=     1
 LinEq1:  Iter= 12 NonCon=     1 RMS=5.41D-08 Max=7.65D-07 NDo=     1
 LinEq1:  Iter= 13 NonCon=     1 RMS=1.71D-08 Max=3.38D-07 NDo=     1
 LinEq1:  Iter= 14 NonCon=     1 RMS=5.40D-09 Max=1.43D-07 NDo=     1
 LinEq1:  Iter= 15 NonCon=     1 RMS=2.00D-09 Max=4.81D-08 NDo=     1
 LinEq1:  Iter= 16 NonCon=     1 RMS=7.53D-10 Max=1.29D-08 NDo=     1
 LinEq1:  Iter= 17 NonCon=     1 RMS=2.52D-10 Max=3.75D-09 NDo=     1
 LinEq1:  Iter= 18 NonCon=     1 RMS=8.73D-11 Max=1.05D-09 NDo=     1
 LinEq1:  Iter= 19 NonCon=     0 RMS=2.92D-11 Max=3.73D-10 NDo=     1
 Linear equations converged to 1.000D-10 1.000D-09 after    19 iterations.
 End of Minotr F.D. properties file   721 does not exist.
 End of Minotr F.D. properties file   722 does not exist.
 End of Minotr F.D. properties file   788 does not exist.

 **********************************************************************

            Population analysis using the SCF Density.

 **********************************************************************

 Alpha  occ. eigenvalues --  -20.59831 -20.59396 -15.85284 -15.63378 -15.56807
 Alpha  occ. eigenvalues --  -11.35884 -11.30470 -11.30089 -11.30082 -11.27687
 Alpha  occ. eigenvalues --  -11.24633 -11.23882 -11.23399 -11.22854  -1.58487
 Alpha  occ. eigenvalues --   -1.37988  -1.28609  -1.22718  -1.13281  -1.08376
 Alpha  occ. eigenvalues --   -1.01811  -1.00679  -0.93601  -0.88963  -0.84938
 Alpha  occ. eigenvalues --   -0.81541  -0.78024  -0.76969  -0.74334  -0.71126
 Alpha  occ. eigenvalues --   -0.70331  -0.69780  -0.67400  -0.64353  -0.63260
 Alpha  occ. eigenvalues --   -0.61653  -0.60351  -0.57431  -0.56479  -0.54885
 Alpha  occ. eigenvalues --   -0.53622  -0.50722  -0.49391  -0.48491  -0.47794
 Alpha  occ. eigenvalues --   -0.47692  -0.46159  -0.45686  -0.44013  -0.42102
 Alpha  occ. eigenvalues --   -0.39917  -0.33768
 Alpha virt. eigenvalues --    0.07367   0.11776   0.18122   0.21401   0.23443
 Alpha virt. eigenvalues --    0.24275   0.26285   0.27822   0.28557   0.28871
 Alpha virt. eigenvalues --    0.29904   0.31095   0.31846   0.32282   0.33336
 Alpha virt. eigenvalues --    0.33791   0.34242   0.35470   0.37589   0.38581
 Alpha virt. eigenvalues --    0.40616   0.41702   0.44396   0.45258   0.45643
 Alpha virt. eigenvalues --    0.46113   0.49722   0.53192   0.57585   0.59017
 Alpha virt. eigenvalues --    0.63305   0.69133   0.69214   0.72207   0.74031
 Alpha virt. eigenvalues --    0.74909   0.75674   0.75857   0.77797   0.79247
 Alpha virt. eigenvalues --    0.80554   0.83610   0.84979   0.85351   0.87979
 Alpha virt. eigenvalues --    0.89079   0.90201   0.90783   0.91862   0.93904
 Alpha virt. eigenvalues --    0.95152   0.97207   0.98897   1.00397   1.01956
 Alpha virt. eigenvalues --    1.02760   1.05081   1.06489   1.07020   1.08684
 Alpha virt. eigenvalues --    1.09584   1.10471   1.11383   1.11964   1.13255
 Alpha virt. eigenvalues --    1.13835   1.14166   1.15442   1.16348   1.17227
 Alpha virt. eigenvalues --    1.17999   1.20026   1.21266   1.22356   1.22977
 Alpha virt. eigenvalues --    1.23729   1.24303   1.25599   1.27058   1.27526
 Alpha virt. eigenvalues --    1.29387   1.31242   1.33050   1.36087   1.39630
 Alpha virt. eigenvalues --    1.42914   1.46258   1.47361   1.49517   1.52702
 Alpha virt. eigenvalues --    1.54873   1.55381   1.60374   1.61506   1.65924
 Alpha virt. eigenvalues --    1.68562   1.70310   1.72759   1.73490   1.76907
 Alpha virt. eigenvalues --    1.77760   1.80072   1.84364   1.89109   1.92558
 Alpha virt. eigenvalues --    1.93670   1.96099   1.97481   1.99039   2.00921
 Alpha virt. eigenvalues --    2.02934   2.03794   2.05958   2.08884   2.11903
 Alpha virt. eigenvalues --    2.12934   2.13631   2.17732   2.18827   2.19482
 Alpha virt. eigenvalues --    2.20689   2.22051   2.24064   2.25112   2.26323
 Alpha virt. eigenvalues --    2.29213   2.32220   2.33373   2.35520   2.36023
 Alpha virt. eigenvalues --    2.38627   2.39846   2.41642   2.43248   2.46314
 Alpha virt. eigenvalues --    2.48648   2.50379   2.50748   2.56770   2.57169
 Alpha virt. eigenvalues --    2.60731   2.62927   2.65877   2.68536   2.68839
 Alpha virt. eigenvalues --    2.69659   2.70071   2.74678   2.77026   2.80949
 Alpha virt. eigenvalues --    2.84723   2.86786   2.89977   2.91349   2.95208
 Alpha virt. eigenvalues --    2.97616   2.98418   3.02221   3.03672   3.05710
 Alpha virt. eigenvalues --    3.07036   3.12797   3.19165   3.22708   3.27195
 Alpha virt. eigenvalues --    3.30779   3.33779   3.37290   3.43358   3.59965
 Alpha virt. eigenvalues --    4.10020   4.23259   4.32049   4.36401   4.43190
 Alpha virt. eigenvalues --    4.52608   4.59617   4.60161   4.70845   4.77606
 Alpha virt. eigenvalues --    4.96492   4.99236   5.02881   5.09888
          Condensed to atoms (all electrons):
               1          2          3          4          5          6
     1  O    8.299901   0.313038  -0.089723  -0.079139   0.003513  -0.000013
     2  N    0.313038   5.682548   0.309166   0.265292  -0.046301   0.000848
     3  O   -0.089723   0.309166   8.330909  -0.087513   0.008019   0.000465
     4  C   -0.079139   0.265292  -0.087513   5.245633   0.566981  -0.047950
     5  C    0.003513  -0.046301   0.008019   0.566981   4.671590   0.307937
     6  N   -0.000013   0.000848   0.000465  -0.047950   0.307937   7.188194
     7  C    0.000003  -0.000094   0.000002   0.004253  -0.029265   0.198554
     8  H   -0.000000   0.000002  -0.000000  -0.000187   0.002328  -0.049772
     9  C   -0.000000  -0.000003   0.000000   0.000484   0.001628  -0.056345
    10  C   -0.000000   0.000000  -0.000000  -0.000019  -0.000062   0.003338
    11  C   -0.000000  -0.000000  -0.000000  -0.000014   0.000015  -0.000154
    12  C   -0.000000   0.000002  -0.000000  -0.000110  -0.000130   0.003610
    13  C   -0.000018  -0.000023  -0.000002  -0.010317   0.000454  -0.044617
    14  H   -0.000003  -0.000054   0.000000   0.002911   0.004744  -0.005559
    15  N    0.000195   0.001634  -0.000013  -0.061287  -0.003736   0.001892
    16  C    0.003354  -0.026580   0.001951   0.318106  -0.041363  -0.001191
    17  H    0.000127  -0.004133   0.012022  -0.026918   0.377111  -0.033752
    18  H    0.000000  -0.000035   0.000008   0.000964  -0.024472   0.328495
    19  H    0.000000   0.000000   0.000000  -0.000784   0.000682   0.000605
    20  H    0.000000  -0.000000   0.000000  -0.000027   0.000028  -0.001661
    21  H   -0.000000  -0.000000   0.000000   0.000000   0.000001  -0.000059
    22  H   -0.000000   0.000000  -0.000000  -0.000000  -0.000002  -0.000098
    23  H    0.000000  -0.000000   0.000000   0.000025  -0.000000  -0.000024
    24  H    0.000000   0.000000   0.000000   0.000000  -0.000000   0.000004
    25  H    0.000000  -0.000000   0.000000   0.000019  -0.000001  -0.000071
    26  H    0.000000  -0.000000   0.000000   0.000006  -0.000001  -0.000067
    27  H    0.005401  -0.000242   0.000004  -0.066256   0.002136   0.000040
               7          8          9         10         11         12
     1  O    0.000003  -0.000000  -0.000000  -0.000000  -0.000000  -0.000000
     2  N   -0.000094   0.000002  -0.000003   0.000000  -0.000000   0.000002
     3  O    0.000002  -0.000000   0.000000  -0.000000  -0.000000  -0.000000
     4  C    0.004253  -0.000187   0.000484  -0.000019  -0.000014  -0.000110
     5  C   -0.029265   0.002328   0.001628  -0.000062   0.000015  -0.000130
     6  N    0.198554  -0.049772  -0.056345   0.003338  -0.000154   0.003610
     7  C    5.005398   0.416599   0.340843  -0.049340  -0.007724  -0.064219
     8  H    0.416599   0.547112  -0.060435   0.001441  -0.000324  -0.002866
     9  C    0.340843  -0.060435   5.181019   0.318000  -0.053074  -0.006179
    10  C   -0.049340   0.001441   0.318000   5.126760   0.332753  -0.060189
    11  C   -0.007724  -0.000324  -0.053074   0.332753   5.124024   0.330641
    12  C   -0.064219  -0.002866  -0.006179  -0.060189   0.330641   5.137127
    13  C    0.331580  -0.040201  -0.050650  -0.001687  -0.047880   0.368366
    14  H   -0.040334  -0.000942   0.003865  -0.000391   0.003956  -0.040747
    15  N   -0.058413   0.004045  -0.012864   0.001455  -0.007737  -0.074253
    16  C   -0.002219   0.000013  -0.000850  -0.000029   0.000004   0.002468
    17  H    0.001424  -0.000020  -0.000065   0.000001   0.000000   0.000001
    18  H   -0.028543  -0.002740   0.000852  -0.000121   0.000011  -0.000137
    19  H   -0.034996   0.004089   0.386066  -0.032594  -0.002255   0.000624
    20  H   -0.041671  -0.001846   0.397226  -0.037352   0.004138  -0.000363
    21  H    0.004045  -0.000080  -0.035838   0.400139  -0.035837   0.004212
    22  H   -0.004233   0.003511  -0.045686   0.395966  -0.045619  -0.001227
    23  H    0.000432   0.000033  -0.002003  -0.040092   0.396693  -0.036617
    24  H   -0.000141  -0.000099   0.004396  -0.038482   0.400301  -0.037870
    25  H    0.004989  -0.000005  -0.000370   0.004097  -0.033905   0.395399
    26  H   -0.004452   0.001595   0.001045  -0.002405  -0.042320   0.394664
    27  H   -0.000401   0.000009  -0.000058   0.000005   0.000005  -0.000019
              13         14         15         16         17         18
     1  O   -0.000018  -0.000003   0.000195   0.003354   0.000127   0.000000
     2  N   -0.000023  -0.000054   0.001634  -0.026580  -0.004133  -0.000035
     3  O   -0.000002   0.000000  -0.000013   0.001951   0.012022   0.000008
     4  C   -0.010317   0.002911  -0.061287   0.318106  -0.026918   0.000964
     5  C    0.000454   0.004744  -0.003736  -0.041363   0.377111  -0.024472
     6  N   -0.044617  -0.005559   0.001892  -0.001191  -0.033752   0.328495
     7  C    0.331580  -0.040334  -0.058413  -0.002219   0.001424  -0.028543
     8  H   -0.040201  -0.000942   0.004045   0.000013  -0.000020  -0.002740
     9  C   -0.050650   0.003865  -0.012864  -0.000850  -0.000065   0.000852
    10  C   -0.001687  -0.000391   0.001455  -0.000029   0.000001  -0.000121
    11  C   -0.047880   0.003956  -0.007737   0.000004   0.000000   0.000011
    12  C    0.368366  -0.040747  -0.074253   0.002468   0.000001  -0.000137
    13  C    5.023542   0.402564   0.240133  -0.069587  -0.000042   0.003699
    14  H    0.402564   0.519245  -0.035790  -0.004888   0.000060   0.000009
    15  N    0.240133  -0.035790   6.937585   0.587698  -0.000058  -0.000119
    16  C   -0.069587  -0.004888   0.587698   4.699349   0.001639  -0.000210
    17  H   -0.000042   0.000060  -0.000058   0.001639   0.385630  -0.001905
    18  H    0.003699   0.000009  -0.000119  -0.000210  -0.001905   0.324545
    19  H   -0.006257   0.000065   0.006951   0.002507   0.000011  -0.000128
    20  H    0.003867  -0.000049   0.000080  -0.000031  -0.000002   0.002839
    21  H   -0.000378   0.000009  -0.000030   0.000002  -0.000000  -0.000000
    22  H    0.000318  -0.000044   0.000003  -0.000001   0.000000   0.000002
    23  H   -0.005877   0.000008   0.006776   0.000066   0.000000   0.000000
    24  H    0.004144  -0.000058   0.000043   0.000005   0.000000  -0.000000
    25  H   -0.034452  -0.002660   0.000797  -0.000061  -0.000000   0.000002
    26  H   -0.044835  -0.000903   0.004191  -0.000053   0.000000  -0.000001
    27  H    0.004871  -0.000172  -0.039847   0.402463  -0.000059   0.000002
              19         20         21         22         23         24
     1  O    0.000000   0.000000  -0.000000  -0.000000   0.000000   0.000000
     2  N    0.000000  -0.000000  -0.000000   0.000000  -0.000000   0.000000
     3  O    0.000000   0.000000   0.000000  -0.000000   0.000000   0.000000
     4  C   -0.000784  -0.000027   0.000000  -0.000000   0.000025   0.000000
     5  C    0.000682   0.000028   0.000001  -0.000002  -0.000000  -0.000000
     6  N    0.000605  -0.001661  -0.000059  -0.000098  -0.000024   0.000004
     7  C   -0.034996  -0.041671   0.004045  -0.004233   0.000432  -0.000141
     8  H    0.004089  -0.001846  -0.000080   0.003511   0.000033  -0.000099
     9  C    0.386066   0.397226  -0.035838  -0.045686  -0.002003   0.004396
    10  C   -0.032594  -0.037352   0.400139   0.395966  -0.040092  -0.038482
    11  C   -0.002255   0.004138  -0.035837  -0.045619   0.396693   0.400301
    12  C    0.000624  -0.000363   0.004212  -0.001227  -0.036617  -0.037870
    13  C   -0.006257   0.003867  -0.000378   0.000318  -0.005877   0.004144
    14  H    0.000065  -0.000049   0.000009  -0.000044   0.000008  -0.000058
    15  N    0.006951   0.000080  -0.000030   0.000003   0.006776   0.000043
    16  C    0.002507  -0.000031   0.000002  -0.000001   0.000066   0.000005
    17  H    0.000011  -0.000002  -0.000000   0.000000   0.000000   0.000000
    18  H   -0.000128   0.002839  -0.000000   0.000002   0.000000  -0.000000
    19  H    0.506723  -0.024005  -0.002591   0.003756   0.001641  -0.000070
    20  H   -0.024005   0.550042  -0.002617  -0.002964  -0.000049  -0.000090
    21  H   -0.002591  -0.002617   0.526045  -0.024691  -0.002812  -0.002060
    22  H    0.003756  -0.002964  -0.024691   0.568878   0.004061  -0.003595
    23  H    0.001641  -0.000049  -0.002812   0.004061   0.509575  -0.024986
    24  H   -0.000070  -0.000090  -0.002060  -0.003595  -0.024986   0.541017
    25  H   -0.000027   0.000011  -0.000086  -0.000082  -0.002090  -0.002381
    26  H    0.000023  -0.000035  -0.000074   0.002464   0.003821  -0.002765
    27  H    0.000075   0.000000  -0.000000   0.000000  -0.000022  -0.000000
              25         26         27
     1  O    0.000000   0.000000   0.005401
     2  N   -0.000000  -0.000000  -0.000242
     3  O    0.000000   0.000000   0.000004
     4  C    0.000019   0.000006  -0.066256
     5  C   -0.000001  -0.000001   0.002136
     6  N   -0.000071  -0.000067   0.000040
     7  C    0.004989  -0.004452  -0.000401
     8  H   -0.000005   0.001595   0.000009
     9  C   -0.000370   0.001045  -0.000058
    10  C    0.004097  -0.002405   0.000005
    11  C   -0.033905  -0.042320   0.000005
    12  C    0.395399   0.394664  -0.000019
    13  C   -0.034452  -0.044835   0.004871
    14  H   -0.002660  -0.000903  -0.000172
    15  N    0.000797   0.004191  -0.039847
    16  C   -0.000061  -0.000053   0.402463
    17  H   -0.000000   0.000000  -0.000059
    18  H    0.000002  -0.000001   0.000002
    19  H   -0.000027   0.000023   0.000075
    20  H    0.000011  -0.000035   0.000000
    21  H   -0.000086  -0.000074  -0.000000
    22  H   -0.000082   0.002464   0.000000
    23  H   -0.002090   0.003821  -0.000022
    24  H   -0.002381  -0.002765  -0.000000
    25  H    0.510301  -0.023103  -0.000010
    26  H   -0.023103   0.561097   0.000001
    27  H   -0.000010   0.000001   0.451816
 Mulliken charges:
               1
     1  O   -0.456635
     2  N    0.504935
     3  O   -0.485294
     4  C   -0.024151
     5  C    0.198167
     6  N   -0.792650
     7  C    0.057922
     8  H    0.178740
     9  C   -0.311004
    10  C   -0.321193
    11  C   -0.315698
    12  C   -0.312187
    13  C   -0.026715
    14  H    0.195157
    15  N   -0.499329
    16  C    0.127438
    17  H    0.288928
    18  H    0.396981
    19  H    0.189890
    20  H    0.154532
    21  H    0.172699
    22  H    0.149283
    23  H    0.191442
    24  H    0.162687
    25  H    0.183687
    26  H    0.152108
    27  H    0.240259
 Sum of Mulliken charges =  -0.00000
 Mulliken charges with hydrogens summed into heavy atoms:
               1
     1  O   -0.456635
     2  N    0.504935
     3  O   -0.485294
     4  C   -0.024151
     5  C    0.487095
     6  N   -0.395669
     7  C    0.236662
     9  C    0.033418
    10  C    0.000789
    11  C    0.038431
    12  C    0.023609
    13  C    0.168442
    15  N   -0.499329
    16  C    0.367696
 Electronic spatial extent (au):  <R**2>=           3127.1504
 Charge=             -0.0000 electrons
 Dipole moment (field-independent basis, Debye):
    X=              5.3658    Y=              4.5012    Z=              0.5436  Tot=              7.0248
 Quadrupole moment (field-independent basis, Debye-Ang):
   XX=           -105.4805   YY=            -80.2172   ZZ=            -82.2805
   XY=             -1.8075   XZ=              0.7622   YZ=              0.0919
 Traceless Quadrupole moment (field-independent basis, Debye-Ang):
   XX=            -16.1544   YY=              9.1088   ZZ=              7.0456
   XY=             -1.8075   XZ=              0.7622   YZ=              0.0919
 Octapole moment (field-independent basis, Debye-Ang**2):
  XXX=            101.6371  YYY=             36.6596  ZZZ=             -5.0356  XYY=             -1.4428
  XXY=             11.5452  XXZ=              0.3580  XZZ=             -8.2277  YZZ=             -2.8690
  YYZ=              1.0055  XYZ=             -1.3784
 Hexadecapole moment (field-independent basis, Debye-Ang**3):
 XXXX=          -3562.6385 YYYY=           -619.4597 ZZZZ=           -299.3021 XXXY=            -39.6136
 XXXZ=             20.7219 YYYX=            -19.4647 YYYZ=             11.7751 ZZZX=             18.5874
 ZZZY=              8.5341 XXYY=           -657.1212 XXZZ=           -543.8116 YYZZ=           -164.6321
 XXYZ=              2.3857 YYXZ=              9.2014 ZZXY=              2.5866
 N-N= 9.173604974933D+02 E-N=-3.380730575723D+03  KE= 6.588552251752D+02
 Calling FoFJK, ICntrl=  10002127 FMM=F ISym2X=0 I1Cent= 0 IOpClX= 0 NMat=1 NMatS=1 NMatT=0.
 -------------------------------------------------------------------
 Center     Atomic                   Forces (Hartrees/Bohr)
 Number     Number              X              Y              Z
 -------------------------------------------------------------------
      1        8           0.002324099   -0.019239526   -0.002965042
      2        7           0.039341094    0.013587993   -0.001524958
      3        8          -0.005199075    0.015868967    0.003545620
      4        6          -0.003001966    0.008190655    0.009564931
      5        6           0.003234867   -0.016405421   -0.005148159
      6        7           0.014730820   -0.009851410   -0.006623096
      7        6          -0.004629772    0.005208919    0.002893444
      8        1          -0.010212342   -0.001699277   -0.007635203
      9        6          -0.003924015    0.000229727   -0.002116570
     10        6           0.002833068   -0.000893466    0.000957103
     11        6          -0.001024842   -0.004592355   -0.002387175
     12        6           0.000788815   -0.008784746   -0.002885230
     13        6           0.008879288   -0.001870450    0.004496076
     14        1           0.000916401    0.004421117   -0.009872820
     15        7           0.000109952    0.000509873    0.002082021
     16        6          -0.021068334    0.007966365    0.002842897
     17        1           0.007211933   -0.006083510   -0.006055451
     18        1          -0.017662698   -0.001728185    0.005998465
     19        1           0.003117740    0.005873933    0.007687197
     20        1          -0.003232774   -0.007360302    0.002613581
     21        1          -0.004327613    0.002402500    0.009634086
     22        1          -0.004012763   -0.003978610   -0.007388572
     23        1           0.004000663    0.006125977    0.009283659
     24        1          -0.009388796    0.002610007   -0.002103415
     25        1          -0.000797616    0.010593717   -0.002416672
     26        1          -0.004783527   -0.004801922   -0.004354157
     27        1           0.005777392    0.003699432    0.001877443
 -------------------------------------------------------------------
 Cartesian Forces:  Max     0.039341094 RMS     0.008371825

 GradGradGradGradGradGradGradGradGradGradGradGradGradGradGradGradGradGrad
 Berny optimization.
 FormGI is forming the generalized inverse of G from B-inverse, IUseBI=4.
 Internal  Forces:  Max     0.037731385 RMS     0.006892960
 Search for a local minimum.
 Step number   1 out of a maximum of   20
 All quantities printed in internal units (Hartrees-Bohrs-Radians)
 Mixed Optimization -- RFO/linear search
 Second derivative matrix not updated -- first step.
 ITU=  0
     Eigenvalues ---    0.00231   0.00771   0.01110   0.01146   0.01207
     Eigenvalues ---    0.01530   0.01600   0.01840   0.02013   0.02088
     Eigenvalues ---    0.02687   0.03641   0.04506   0.04684   0.04836
     Eigenvalues ---    0.05069   0.05138   0.05302   0.05891   0.06263
     Eigenvalues ---    0.07174   0.07699   0.07723   0.07867   0.07993
     Eigenvalues ---    0.08050   0.08053   0.10457   0.11729   0.12234
     Eigenvalues ---    0.13094   0.15120   0.15542   0.15990   0.16000
     Eigenvalues ---    0.20085   0.21972   0.23183   0.24982   0.25000
     Eigenvalues ---    0.25000   0.25355   0.26207   0.26650   0.27979
     Eigenvalues ---    0.28082   0.28463   0.29610   0.31459   0.31630
     Eigenvalues ---    0.32048   0.32238   0.32290   0.32381   0.32388
     Eigenvalues ---    0.32405   0.32516   0.32526   0.32582   0.33336
     Eigenvalues ---    0.33391   0.33599   0.35350   0.43883   0.44241
     Eigenvalues ---    0.49183   0.66915   0.90423   0.911591000.00000
     Eigenvalues --- 1000.000001000.000001000.000001000.000001000.00000
     Eigenvalues --- 1000.000001000.000001000.000001000.000001000.00000
     Eigenvalues --- 1000.000001000.000001000.000001000.000001000.00000
     Eigenvalues --- 1000.000001000.000001000.000001000.000001000.00000
     Eigenvalues --- 1000.000001000.000001000.000001000.000001000.00000
     Eigenvalues --- 1000.000001000.000001000.000001000.000001000.00000
     Eigenvalues --- 1000.000001000.000001000.000001000.000001000.00000
     Eigenvalues --- 1000.000001000.000001000.000001000.000001000.00000
     Eigenvalues --- 1000.000001000.000001000.000001000.000001000.00000
     Eigenvalues --- 1000.000001000.000001000.000001000.000001000.00000
     Eigenvalues --- 1000.000001000.000001000.000001000.000001000.00000
     Eigenvalues --- 1000.000001000.000001000.000001000.000001000.00000
     Eigenvalues --- 1000.000001000.000001000.000001000.000001000.00000
     Eigenvalues --- 1000.000001000.000001000.000001000.000001000.00000
     Eigenvalues --- 1000.000001000.000001000.000001000.000001000.00000
     Eigenvalues --- 1000.000001000.000001000.000001000.000001000.00000
     Eigenvalues --- 1000.000001000.000001000.000001000.000001000.00000
     Eigenvalues --- 1000.000001000.000001000.000001000.000001000.00000
     Eigenvalues --- 1000.00000
 RFO step:  Lambda=-2.38488518D-02 EMin= 2.30869066D-03
 Linear search not attempted -- first point.
 Iteration  1 RMS(Cart)=  0.05556588 RMS(Int)=  0.00106068
 Iteration  2 RMS(Cart)=  0.00113226 RMS(Int)=  0.00023516
 Iteration  3 RMS(Cart)=  0.00000090 RMS(Int)=  0.00023516
 Iteration  1 RMS(Cart)=  0.00002801 RMS(Int)=  0.00002375
 Iteration  2 RMS(Cart)=  0.00001307 RMS(Int)=  0.00002631
 Iteration  3 RMS(Cart)=  0.00000689 RMS(Int)=  0.00002940
 Iteration  4 RMS(Cart)=  0.00000437 RMS(Int)=  0.00003158
 Iteration  5 RMS(Cart)=  0.00000328 RMS(Int)=  0.00003307
 Iteration  6 RMS(Cart)=  0.00000268 RMS(Int)=  0.00003411
 Iteration  7 RMS(Cart)=  0.00000227 RMS(Int)=  0.00003487
 Iteration  8 RMS(Cart)=  0.00000194 RMS(Int)=  0.00003544
 Iteration  9 RMS(Cart)=  0.00000166 RMS(Int)=  0.00003590
 Iteration 10 RMS(Cart)=  0.00000142 RMS(Int)=  0.00003626
 Iteration 11 RMS(Cart)=  0.00000121 RMS(Int)=  0.00003656
 Iteration 12 RMS(Cart)=  0.00000104 RMS(Int)=  0.00003681
 Iteration 13 RMS(Cart)=  0.00000089 RMS(Int)=  0.00003702
 Variable       Old X    -DE/DX   Delta X   Delta X   Delta X     New X
                                 (Linear)    (Quad)   (Total)
    R1        2.32403   0.01791   0.00000   0.01915   0.01915   2.34318
    R2        2.32738   0.01586   0.00000   0.01709   0.01709   2.34448
    R3        2.88749  -0.03773   0.00000  -0.11793  -0.11793   2.76956
    R4        2.64500  -0.03459   0.00000  -0.07475  -0.07449   2.57051
    R5        2.80987  -0.02209   0.00000  -0.06351  -0.06326   2.74661
    R6        2.59039  -0.02461   0.00000  -0.04755  -0.04745   2.54294
    R7        2.08370  -0.01042   0.00000  -0.02913  -0.02913   2.05457
    R8        2.82396  -0.01937   0.00000  -0.05349  -0.05360   2.77036
    R9        1.93294  -0.00661   0.00000  -0.01428  -0.01428   1.91866
   R10        2.11845  -0.01194   0.00000  -0.03529  -0.03529   2.08316
   R11        2.92745  -0.01297   0.00000  -0.04415  -0.04418   2.88327
   R12        2.90227  -0.00428   0.00000  -0.00813  -0.00817   2.89409
   R13        2.91142  -0.00462   0.00000  -0.01435  -0.01438   2.89704
   R14        2.09910  -0.00995   0.00000  -0.02850  -0.02850   2.07060
   R15        2.09892  -0.00803   0.00000  -0.02301  -0.02301   2.07590
   R16        2.90432  -0.00181   0.00000  -0.00713  -0.00717   2.89715
   R17        2.10140  -0.01058   0.00000  -0.03042  -0.03042   2.07099
   R18        2.10317  -0.00901   0.00000  -0.02598  -0.02598   2.07719
   R19        2.91767  -0.00909   0.00000  -0.02880  -0.02877   2.88890
   R20        2.10410  -0.01166   0.00000  -0.03369  -0.03369   2.07041
   R21        2.10109  -0.00994   0.00000  -0.02859  -0.02859   2.07250
   R22        2.93532  -0.01059   0.00000  -0.03641  -0.03639   2.89893
   R23        2.10152  -0.01074   0.00000  -0.03088  -0.03088   2.07064
   R24        2.09793  -0.00785   0.00000  -0.02245  -0.02245   2.07548
   R25        2.10757  -0.00920   0.00000  -0.02673  -0.02673   2.08084
   R26        2.76786  -0.00523   0.00000  -0.01095  -0.01128   2.75658
   R27        2.44262  -0.00557   0.00000  -0.00766  -0.00770   2.43492
   R28        2.08013  -0.00623   0.00000  -0.01733  -0.01733   2.06280
    A1        2.15823   0.01097   0.00000   0.04019   0.04004   2.19827
    A2        2.05389  -0.00755   0.00000  -0.02744  -0.02758   2.02632
    A3        2.07096  -0.00341   0.00000  -0.01232  -0.01246   2.05849
    A4        2.03178  -0.00761   0.00000  -0.02510  -0.02549   2.00630
    A5        2.03341  -0.00302   0.00000  -0.00831  -0.00874   2.02467
    A6        2.21727   0.01058   0.00000   0.03210   0.03233   2.24960
    A7        2.20189   0.00619   0.00000   0.01911   0.01946   2.22135
    A8        2.06372  -0.00333   0.00000  -0.01063  -0.01087   2.05285
    A9        2.01664  -0.00281   0.00000  -0.00772  -0.00798   2.00866
   A10        2.25432  -0.00567   0.00000  -0.01946  -0.01951   2.23481
   A11        2.11438  -0.01249   0.00000  -0.07154  -0.07195   2.04243
   A12        1.87378   0.01836   0.00000   0.09898   0.09914   1.97292
   A13        1.83822  -0.00167   0.00000  -0.01788  -0.01768   1.82054
   A14        2.00685  -0.00106   0.00000  -0.01261  -0.01264   1.99421
   A15        1.96702   0.00104   0.00000   0.00135   0.00086   1.96788
   A16        1.85200   0.00270   0.00000   0.02403   0.02387   1.87587
   A17        1.84927   0.00087   0.00000   0.01891   0.01871   1.86797
   A18        1.93654  -0.00156   0.00000  -0.00944  -0.00912   1.92743
   A19        1.91004   0.00016   0.00000  -0.00474  -0.00489   1.90515
   A20        1.92261  -0.00074   0.00000  -0.01308  -0.01305   1.90956
   A21        1.92281  -0.00166   0.00000  -0.00697  -0.00696   1.91585
   A22        1.91929  -0.00042   0.00000   0.00556   0.00552   1.92481
   A23        1.90454   0.00306   0.00000   0.02459   0.02460   1.92914
   A24        1.88435  -0.00038   0.00000  -0.00493  -0.00518   1.87917
   A25        1.94043  -0.00086   0.00000   0.00559   0.00548   1.94591
   A26        1.91893  -0.00070   0.00000  -0.00686  -0.00688   1.91206
   A27        1.90499   0.00030   0.00000  -0.00294  -0.00301   1.90198
   A28        1.91614   0.00078   0.00000   0.00707   0.00711   1.92325
   A29        1.89851   0.00172   0.00000   0.01118   0.01121   1.90971
   A30        1.88381  -0.00122   0.00000  -0.01451  -0.01460   1.86921
   A31        1.94465   0.00068   0.00000   0.00522   0.00533   1.94997
   A32        1.90239   0.00061   0.00000   0.00587   0.00584   1.90822
   A33        1.91745   0.00038   0.00000   0.00525   0.00522   1.92267
   A34        1.90661  -0.00115   0.00000  -0.01424  -0.01428   1.89233
   A35        1.91536  -0.00048   0.00000   0.00014   0.00006   1.91542
   A36        1.87602  -0.00006   0.00000  -0.00262  -0.00265   1.87337
   A37        1.94759  -0.00299   0.00000  -0.01815  -0.01816   1.92943
   A38        1.90599   0.00254   0.00000   0.01681   0.01667   1.92267
   A39        1.91079   0.00140   0.00000   0.01326   0.01322   1.92400
   A40        1.90618   0.00020   0.00000  -0.00296  -0.00281   1.90337
   A41        1.91146  -0.00021   0.00000  -0.00467  -0.00461   1.90684
   A42        1.88059  -0.00087   0.00000  -0.00380  -0.00399   1.87661
   A43        1.84656   0.00458   0.00000   0.02345   0.02348   1.87003
   A44        1.93832  -0.00433   0.00000  -0.03079  -0.03121   1.90712
   A45        1.98370   0.00082   0.00000   0.01129   0.01154   1.99524
   A46        1.88100   0.00221   0.00000   0.02981   0.03011   1.91111
   A47        1.89195  -0.00393   0.00000  -0.02857  -0.02863   1.86333
   A48        1.91773   0.00086   0.00000  -0.00293  -0.00282   1.91491
   A49        2.08554  -0.00622   0.00000  -0.01460  -0.01498   2.07056
   A50        2.25342  -0.00514   0.00000  -0.02219  -0.02217   2.23125
   A51        1.97839   0.00553   0.00000   0.02722   0.02677   2.00516
   A52        2.05138  -0.00039   0.00000  -0.00500  -0.00544   2.04594
    D1       -3.03527  -0.00069   0.00000  -0.03351  -0.03279  -3.06806
    D2        0.14414   0.00045   0.00000   0.00000  -0.00000   0.14413
    D3        0.12186  -0.00179   0.00000  -0.06349  -0.06313   0.05873
    D4       -2.98192  -0.00065   0.00000  -0.02998  -0.03034  -3.01225
    D5        3.07534   0.00061   0.00000   0.01475   0.01478   3.09012
    D6       -0.01754  -0.00036   0.00000  -0.00475  -0.00485  -0.02239
    D7       -0.10865  -0.00107   0.00000  -0.02402  -0.02438  -0.13303
    D8        3.08165  -0.00204   0.00000  -0.04353  -0.04401   3.03765
    D9       -2.71799  -0.00178   0.00000  -0.03916  -0.03984  -2.75783
   D10        0.42283   0.00048   0.00000   0.00664   0.00637   0.42920
   D11        0.46603  -0.00000   0.00000   0.00000   0.00000   0.46603
   D12       -2.67633   0.00225   0.00000   0.04580   0.04621  -2.63012
   D13       -0.11294  -0.00022   0.00000   0.01916   0.01934  -0.09360
   D14        2.68595   0.00378   0.00000   0.06879   0.06772   2.75368
   D15        2.98109   0.00071   0.00000   0.03810   0.03844   3.01953
   D16       -0.50320   0.00471   0.00000   0.08774   0.08683  -0.41637
   D17       -2.49764  -0.00067   0.00000  -0.01461  -0.01425  -2.51189
   D18        1.75345  -0.00232   0.00000  -0.02558  -0.02527   1.72818
   D19       -0.48946  -0.00010   0.00000  -0.00194  -0.00197  -0.49143
   D20        0.95003  -0.00002   0.00000  -0.03514  -0.03568   0.91435
   D21       -1.08207  -0.00167   0.00000  -0.04611  -0.04671  -1.12878
   D22        2.95821   0.00055   0.00000  -0.02246  -0.02341   2.93480
   D23        2.94457   0.00234   0.00000   0.02602   0.02591   2.97049
   D24       -1.22647   0.00146   0.00000   0.02159   0.02151  -1.20497
   D25        0.85054  -0.00051   0.00000   0.00301   0.00300   0.85353
   D26        0.92036   0.00320   0.00000   0.03912   0.03911   0.95947
   D27        3.03250   0.00232   0.00000   0.03470   0.03470   3.06720
   D28       -1.17368   0.00036   0.00000   0.01611   0.01619  -1.15748
   D29       -1.08060   0.00145   0.00000   0.00818   0.00817  -1.07243
   D30        1.03154   0.00057   0.00000   0.00376   0.00376   1.03531
   D31        3.10855  -0.00139   0.00000  -0.01483  -0.01475   3.09381
   D32       -2.89992  -0.00098   0.00000  -0.01336  -0.01313  -2.91305
   D33       -0.86360   0.00206   0.00000   0.01975   0.01960  -0.84400
   D34        1.30939   0.00039   0.00000   0.00000  -0.00001   1.30938
   D35       -0.89841  -0.00194   0.00000  -0.02288  -0.02279  -0.92120
   D36        1.13791   0.00111   0.00000   0.01023   0.00994   1.14785
   D37       -2.97229  -0.00057   0.00000  -0.00952  -0.00967  -2.98195
   D38        1.10425   0.00096   0.00000   0.01125   0.01135   1.11560
   D39        3.14057   0.00400   0.00000   0.04436   0.04408  -3.09853
   D40       -0.96963   0.00232   0.00000   0.02461   0.02447  -0.94516
   D41        0.95666   0.00067   0.00000   0.00000   0.00000   0.95666
   D42        3.08230   0.00060   0.00000   0.00799   0.00794   3.09024
   D43       -1.13766  -0.00112   0.00000  -0.01546  -0.01543  -1.15309
   D44       -1.15750   0.00174   0.00000   0.01570   0.01577  -1.14173
   D45        0.96814   0.00167   0.00000   0.02368   0.02371   0.99185
   D46        3.03137  -0.00005   0.00000   0.00024   0.00033   3.03170
   D47        3.06186   0.00062   0.00000   0.00370   0.00366   3.06552
   D48       -1.09569   0.00055   0.00000   0.01168   0.01160  -1.08409
   D49        0.96754  -0.00117   0.00000  -0.01176  -0.01178   0.95577
   D50       -0.92193  -0.00079   0.00000   0.00000   0.00000  -0.92192
   D51        1.18341  -0.00141   0.00000  -0.01058  -0.01059   1.17283
   D52       -3.04839  -0.00090   0.00000  -0.00727  -0.00730  -3.05569
   D53       -3.04920   0.00014   0.00000   0.00013   0.00015  -3.04905
   D54       -0.94386  -0.00047   0.00000  -0.01044  -0.01044  -0.95430
   D55        1.10752   0.00003   0.00000  -0.00713  -0.00715   1.10037
   D56        1.17623   0.00016   0.00000   0.00704   0.00707   1.18330
   D57       -3.00162  -0.00046   0.00000  -0.00353  -0.00352  -3.00513
   D58       -0.95024   0.00005   0.00000  -0.00022  -0.00023  -0.95047
   D59        0.98800  -0.00085   0.00000  -0.01167  -0.01171   0.97629
   D60        3.09707  -0.00081   0.00000  -0.01578  -0.01592   3.08115
   D61       -1.13094   0.00043   0.00000  -0.00289  -0.00286  -1.13380
   D62       -1.11487  -0.00127   0.00000  -0.01291  -0.01290  -1.12777
   D63        0.99421  -0.00124   0.00000  -0.01702  -0.01712   0.97710
   D64        3.04938   0.00000   0.00000  -0.00413  -0.00405   3.04533
   D65        3.11567  -0.00024   0.00000  -0.00146  -0.00146   3.11421
   D66       -1.05844  -0.00021   0.00000  -0.00557  -0.00568  -1.06412
   D67        0.99673   0.00103   0.00000   0.00732   0.00739   1.00412
   D68       -1.05309   0.00004   0.00000  -0.00027  -0.00018  -1.05327
   D69       -3.12778   0.00158   0.00000   0.00840   0.00805  -3.11973
   D70        1.08060   0.00150   0.00000   0.01099   0.01093   1.09153
   D71        3.12112  -0.00135   0.00000  -0.00769  -0.00755   3.11357
   D72        1.04643   0.00019   0.00000   0.00097   0.00068   1.04712
   D73       -1.02837   0.00010   0.00000   0.00356   0.00356  -1.02481
   D74        1.06546  -0.00030   0.00000   0.00135   0.00153   1.06699
   D75       -1.00923   0.00124   0.00000   0.01001   0.00976  -0.99947
   D76       -3.08403   0.00115   0.00000   0.01260   0.01264  -3.07139
   D77       -1.17217   0.00389   0.00000   0.00000  -0.00001  -1.17218
   D78        3.06333   0.00030   0.00000  -0.01701  -0.01689   3.04644
   D79        1.01187  -0.00056   0.00000  -0.03463  -0.03488   0.97699
   D80        0.14716   0.00147   0.00000   0.01429   0.01416   0.16132
   D81       -2.99364  -0.00087   0.00000  -0.03314  -0.03299  -3.02663
         Item               Value     Threshold  Converged?
 Maximum Force            0.037731     0.000450     NO 
 RMS     Force            0.006989     0.000300     NO 
 Maximum Displacement     0.293884     0.001800     NO 
 RMS     Displacement     0.055722     0.001200     NO 
 Predicted change in Energy=-1.333149D-02
 GradGradGradGradGradGradGradGradGradGradGradGradGradGradGradGradGradGrad

                          Input orientation:                          
 ---------------------------------------------------------------------
 Center     Atomic      Atomic             Coordinates (Angstroms)
 Number     Number       Type             X           Y           Z
 ---------------------------------------------------------------------
      1          8           0       -3.483219   -1.420962   -0.233372
      2          7           0       -3.128293   -0.247198   -0.049510
      3          8           0       -3.881633    0.721357    0.133728
      4          6           0       -1.682804   -0.005990   -0.031531
      5          6           0       -1.317773    1.271381    0.260643
      6          7           0       -0.067834    1.750874    0.396885
      7          6           0        1.193809    1.004670    0.371977
      8          1           0        1.828782    1.518259    1.112405
      9          6           0        1.922977    1.050590   -0.967483
     10          6           0        3.324081    0.451814   -0.798341
     11          6           0        3.263459   -0.960614   -0.205223
     12          6           0        2.444933   -0.997737    1.085388
     13          6           0        1.034955   -0.443282    0.844900
     14          1           0        0.468589   -0.457109    1.789108
     15          7           0        0.395863   -1.325426   -0.125277
     16          6           0       -0.844392   -1.129735   -0.414623
     17          1           0       -2.110506    1.995661    0.431147
     18          1           0        0.059092    2.750344    0.271166
     19          1           0        1.354102    0.481820   -1.711442
     20          1           0        1.987752    2.089037   -1.319875
     21          1           0        3.834568    0.433378   -1.767929
     22          1           0        3.912820    1.101585   -0.135448
     23          1           0        2.798680   -1.638561   -0.929613
     24          1           0        4.276684   -1.333338   -0.012220
     25          1           0        2.366682   -2.026821    1.453488
     26          1           0        2.939300   -0.404027    1.866005
     27          1           0       -1.329661   -1.866971   -1.056932
 ---------------------------------------------------------------------
                    Distance matrix (angstroms):
                    1          2          3          4          5
     1  O    0.000000
     2  N    1.239960   0.000000
     3  O    2.209758   1.240644   0.000000
     4  C    2.298778   1.465586   2.321894   0.000000
     5  C    3.490260   2.383330   2.625264   1.360254   0.000000
     6  N    4.703469   3.682115   3.959069   2.424508   1.345669
     7  C    5.303275   4.519446   5.088923   3.075574   2.528156
     8  H    6.218319   5.388830   5.848223   3.995393   3.269137
     9  C    5.989528   5.295494   5.917310   3.872212   3.472679
    10  C    7.082782   6.533184   7.270744   5.085910   4.831143
    11  C    6.762423   6.433327   7.348214   5.040535   5.117276
    12  C    6.087794   5.736912   6.624680   4.389680   4.470689
    13  C    4.746833   4.262751   5.102449   2.888870   2.969302
    14  H    4.542711   4.045014   4.801406   2.854247   2.918042
    15  N    3.881763   3.686189   4.749040   2.463850   3.135106
    16  C    2.661028   2.475557   3.598897   1.453443   2.538786
    17  H    3.741556   2.509450   2.202091   2.098477   1.087234
    18  H    5.495664   4.387199   4.434523   3.274630   2.020693
    19  H    5.404160   4.835840   5.556523   3.504691   3.413421
    20  H    6.590304   5.765912   6.199452   4.418366   3.754078
    21  H    7.703469   7.203997   7.952295   5.800820   5.600354
    22  H    7.814999   7.169649   7.808363   5.705132   5.248316
    23  H    6.324108   6.151380   7.164251   4.853405   5.179735
    24  H    7.763548   7.484302   8.414346   6.105549   6.177133
    25  H    6.118324   5.968317   6.952388   4.763127   5.086868
    26  H    6.833029   6.364706   7.126879   5.012277   4.848387
    27  H    2.348400   2.621763   3.824875   2.153928   3.403733
                    6          7          8          9         10
     6  N    0.000000
     7  C    1.466009   0.000000
     8  H    2.040400   1.102361   0.000000
     9  C    2.513011   1.525761   2.133898   0.000000
    10  C    3.823768   2.492660   2.650315   1.533047   0.000000
    11  C    4.337304   2.911864   3.152658   2.534339   1.533106
    12  C    3.787202   2.466557   2.590484   2.946585   2.534271
    13  C    2.496233   1.531488   2.132924   2.510970   2.956608
    14  H    2.664812   2.161250   2.492014   3.462252   3.959149
    15  N    3.154567   2.512634   3.416382   2.947345   3.490853
    16  C    3.091844   3.054290   4.060733   3.566203   4.474897
    17  H    2.057572   3.450226   4.026166   4.372448   5.781854
    18  H    1.015311   2.084496   2.314632   2.810246   4.133671
    19  H    2.842084   2.153996   3.045265   1.095716   2.171513
    20  H    2.699454   2.160686   2.503407   1.098521   2.176757
    21  H    4.653058   3.446618   3.673753   2.162370   1.095919
    22  H    4.068238   2.767651   2.464542   2.157396   1.099201
    23  H    4.633008   3.355058   3.882789   2.828396   2.159385
    24  H    5.343648   3.888189   3.922832   3.483616   2.170762
    25  H    4.616737   3.425673   3.601843   3.940614   3.482955
    26  H    3.980549   2.695049   2.344429   3.343274   2.824758
    27  H    4.098121   4.081177   5.112883   4.370334   5.205856
                   11         12         13         14         15
    11  C    0.000000
    12  C    1.528737   0.000000
    13  C    2.517264   1.534045   0.000000
    14  H    3.470183   2.166434   1.101131   0.000000
    15  N    2.891814   2.402453   1.458719   2.103363   0.000000
    16  C    4.116660   3.617613   2.364226   2.651938   1.288507
    17  H    6.166362   5.490035   4.001694   3.809444   4.197751
    18  H    4.926066   4.517002   3.388322   3.572057   4.108830
    19  H    2.827535   3.346828   2.737252   3.730893   2.588490
    20  H    3.488588   3.939858   3.465071   4.296102   3.952182
    21  H    2.170582   3.481464   3.928516   4.977478   4.197188
    22  H    2.163146   2.837654   3.410249   4.242189   4.273110
    23  H    1.095616   2.143834   2.772781   3.770490   2.553143
    24  H    1.096722   2.161639   3.469246   4.302807   3.882476
    25  H    2.166178   1.095735   2.156728   2.485839   2.620798
    26  H    2.169067   1.098296   2.161187   2.472477   3.359056
    27  H    4.758534   4.426361   3.351905   3.649844   2.034376
                   16         17         18         19         20
    16  C    0.000000
    17  H    3.476560   0.000000
    18  H    4.042475   2.302671   0.000000
    19  H    3.018646   4.345792   3.279327   0.000000
    20  H    4.381897   4.457636   2.586208   1.771435   0.000000
    21  H    5.115411   6.528442   4.876521   2.481582   2.520454
    22  H    5.261919   6.115623   4.211290   3.068371   2.466539
    23  H    3.714309   6.257742   5.311280   2.682177   3.834696
    24  H    5.140896   7.216301   5.877487   3.837140   4.319933
    25  H    3.821727   6.104978   5.435455   4.163578   4.977492
    26  H    4.477080   5.772162   4.559514   4.011945   4.155797
    27  H    1.091587   4.212365   5.001207   3.625987   5.169562
                   21         22         23         24         25
    21  H    0.000000
    22  H    1.765678   0.000000
    23  H    2.463486   3.062744   0.000000
    24  H    2.529677   2.465042   1.766145   0.000000
    25  H    4.311008   3.834343   2.452864   2.505459   0.000000
    26  H    3.835131   2.687084   3.059303   2.485950   1.769611
    27  H    5.697928   6.094675   4.136614   5.727765   4.471098
                   26         27
    26  H    0.000000
    27  H    5.376597   0.000000
 Symmetry turned off by external request.
 Stoichiometry    C9H13N3O2
 Framework group  C1[X(C9H13N3O2)]
 Deg. of freedom    75
 Full point group                 C1      NOp   1
 Rotational constants (GHZ):           1.6864382           0.4215888           0.3722239
 Standard basis: 6-31G(d) (6D, 7F)
   236 basis functions,   444 primitive gaussians,   236 cartesian basis functions
    52 alpha electrons       52 beta electrons
       nuclear repulsion energy       932.1010547904 Hartrees.
 NAtoms=   27 NActive=   27 NUniq=   27 SFac= 1.00D+00 NAtFMM=   60 NAOKFM=F Big=F
 Integral buffers will be    131072 words long.
 Raffenetti 1 integral format.
 Two-electron integral symmetry is turned off.
 One-electron integrals computed using PRISM.
 NBasis=   236 RedAO= T EigKep=  1.01D-03  NBF=   236
 NBsUse=   236 1.00D-06 EigRej= -1.00D+00 NBFU=   236
 Initial guess from the checkpoint file:  "/home/alexey/tmp/Gau-1478800.chk"
 B after Tr=     0.055879    0.005262    0.000953
         Rot=    0.999999   -0.001047    0.000445    0.001091 Ang=  -0.18 deg.
 ExpMin= 1.61D-01 ExpMax= 5.48D+03 ExpMxC= 8.25D+02 IAcc=3 IRadAn=         5 AccDes= 0.00D+00
 Harris functional with IExCor=  205 and IRadAn=       5 diagonalized for initial guess.
 HarFok:  IExCor=  205 AccDes= 0.00D+00 IRadAn=         5 IDoV= 1 UseB2=F ITyADJ=14
 ICtDFT=  3500011 ScaDFX=  1.000000  1.000000  1.000000  1.000000
 FoFCou: FMM=F IPFlag=           0 FMFlag=      100000 FMFlg1=           0
         NFxFlg=           0 DoJE=T BraDBF=F KetDBF=T FulRan=T
         wScrn=  0.000000 ICntrl=       500 IOpCl=  0 I1Cent=   200000004 NGrid=           0
         NMat0=    1 NMatS0=      1 NMatT0=    0 NMatD0=    1 NMtDS0=    0 NMtDT0=    0
 Symmetry not used in FoFCou.
 Keep R1 ints in memory in canonical form, NReq=397720213.
 Requested convergence on RMS density matrix=1.00D-08 within 128 cycles.
 Requested convergence on MAX density matrix=1.00D-06.
 Requested convergence on             energy=1.00D-06.
 No special actions if energy rises.
 SCF Done:  E(RHF) =  -661.298389982     A.U. after   15 cycles
            NFock= 15  Conv=0.38D-08     -V/T= 2.0024
 ExpMin= 1.61D-01 ExpMax= 5.48D+03 ExpMxC= 8.25D+02 IAcc=3 IRadAn=         5 AccDes= 0.00D+00
 HarFok:  IExCor=  205 AccDes= 0.00D+00 IRadAn=         5 IDoV=-2 UseB2=F ITyADJ=14
 ICtDFT= 12500011 ScaDFX=  1.000000  1.000000  1.000000  1.000000
 Range of M.O.s used for correlation:    15   236
 NBasis=   236 NAE=    52 NBE=    52 NFC=    14 NFV=     0
 NROrb=    222 NOA=    38 NOB=    38 NVA=   184 NVB=   184
 Fully direct method using O(ONN) memory.
 JobTyp=1 Pass  1:  I=  15 to  52 NPSUse=  4 ParTrn=T ParDer=T DoDerP=T.
 Spin components of T(2) and E(2):
     alpha-alpha T2 =       0.9124991827D-01 E2=     -0.2723333561D+00
     alpha-beta  T2 =       0.4912475724D+00 E2=     -0.1488001731D+01
     beta-beta   T2 =       0.9124991827D-01 E2=     -0.2723333561D+00
 ANorm=    0.1293733902D+01
 E2 =    -0.2032668443D+01 EUMP2 =    -0.66333105842456D+03
          IDoAtm=111111111111111111111111111
          Differentiating once with respect to electric field.
                with respect to dipole field.
          Differentiating once with respect to nuclear coordinates.
 Keep R1 ints in memory in canonical form, NReq=397723379.
          There are     1 degrees of freedom in the 1st order CPHF.  IDoFFX=0 NUNeed=     1.
 LinEq1:  Iter=  0 NonCon=     1 RMS=4.57D-03 Max=1.05D-01 NDo=     1
 AX will form     1 AO Fock derivatives at one time.
 LinEq1:  Iter=  1 NonCon=     1 RMS=1.53D-03 Max=2.75D-02 NDo=     1
 LinEq1:  Iter=  2 NonCon=     1 RMS=6.42D-04 Max=1.78D-02 NDo=     1
 LinEq1:  Iter=  3 NonCon=     1 RMS=2.80D-04 Max=8.21D-03 NDo=     1
 LinEq1:  Iter=  4 NonCon=     1 RMS=8.71D-05 Max=1.95D-03 NDo=     1
 LinEq1:  Iter=  5 NonCon=     1 RMS=3.64D-05 Max=1.78D-03 NDo=     1
 LinEq1:  Iter=  6 NonCon=     1 RMS=1.41D-05 Max=5.33D-04 NDo=     1
[...]
    16  C    0.000000
    17  H    3.463936   0.000000
    18  H    4.088396   2.235854   0.000000
    19  H    2.990834   4.303428   3.511819   0.000000
    20  H    4.375282   4.449309   2.881912   1.768537   0.000000
    21  H    5.096729   6.511311   5.086471   2.499228   2.521043
    22  H    5.248851   6.100589   4.313236   3.070241   2.461456
    23  H    3.695099   6.235074   5.421188   2.704213   3.842913
    24  H    5.133912   7.200927   5.936687   3.849634   4.317109
    25  H    3.821497   6.088342   5.369753   4.171504   4.985053
    26  H    4.495281   5.781336   4.485351   4.036043   4.182338
    27  H    1.089677   4.215381   5.079441   3.583550   5.148134
                   21         22         23         24         25
    21  H    0.000000
    22  H    1.758865   0.000000
    23  H    2.469445   3.062281   0.000000
    24  H    2.517329   2.459891   1.764582   0.000000
    25  H    4.311999   3.839526   2.444082   2.519682   0.000000
    26  H    3.846742   2.704409   3.060437   2.491719   1.767989
    27  H    5.653177   6.060612   4.090555   5.694840   4.454386
                   26         27
    26  H    0.000000
    27  H    5.378553   0.000000
 Symmetry turned off by external request.
 Stoichiometry    C9H13N3O2
 Framework group  C1[X(C9H13N3O2)]
 Deg. of freedom    75
 Full point group                 C1      NOp   1
 Rotational constants (GHZ):           1.6800403           0.4193440           0.3721409

 **********************************************************************

            Population analysis using the SCF Density.

 **********************************************************************

 Alpha  occ. eigenvalues --  -20.59236 -20.58904 -15.84722 -15.64136 -15.56111
 Alpha  occ. eigenvalues --  -11.35018 -11.29622 -11.29559 -11.28627 -11.27134
 Alpha  occ. eigenvalues --  -11.23729 -11.23208 -11.22692 -11.22089  -1.57116
 Alpha  occ. eigenvalues --   -1.36709  -1.30978  -1.23064  -1.14703  -1.09819
 Alpha  occ. eigenvalues --   -1.02805  -1.01308  -0.94482  -0.89684  -0.85566
 Alpha  occ. eigenvalues --   -0.82448  -0.78609  -0.77411  -0.75203  -0.72020
 Alpha  occ. eigenvalues --   -0.69771  -0.69438  -0.67820  -0.64892  -0.63777
 Alpha  occ. eigenvalues --   -0.62368  -0.60281  -0.57700  -0.57001  -0.55077
 Alpha  occ. eigenvalues --   -0.54582  -0.50762  -0.50108  -0.48656  -0.48102
 Alpha  occ. eigenvalues --   -0.47372  -0.46146  -0.46044  -0.43678  -0.41695
 Alpha  occ. eigenvalues --   -0.39847  -0.33829
 Alpha virt. eigenvalues --    0.07464   0.11799   0.17307   0.21848   0.24113
 Alpha virt. eigenvalues --    0.25664   0.27134   0.28694   0.29044   0.29635
 Alpha virt. eigenvalues --    0.30683   0.31798   0.32036   0.32767   0.33950
 Alpha virt. eigenvalues --    0.34386   0.35850   0.37313   0.38581   0.40292
 Alpha virt. eigenvalues --    0.41387   0.42443   0.45025   0.46117   0.46730
 Alpha virt. eigenvalues --    0.47077   0.49000   0.53996   0.57579   0.59405
 Alpha virt. eigenvalues --    0.63913   0.69543   0.69908   0.72861   0.74243
 Alpha virt. eigenvalues --    0.74867   0.75781   0.76677   0.78660   0.79441
 Alpha virt. eigenvalues --    0.81386   0.84692   0.85718   0.85806   0.88530
 Alpha virt. eigenvalues --    0.89424   0.91051   0.92113   0.92853   0.94527
 Alpha virt. eigenvalues --    0.95643   0.98039   0.99638   1.01675   1.02471
 Alpha virt. eigenvalues --    1.03152   1.05873   1.06969   1.07901   1.09014
 Alpha virt. eigenvalues --    1.10283   1.11421   1.11855   1.12443   1.13916
 Alpha virt. eigenvalues --    1.14766   1.14990   1.15832   1.16903   1.18726
 Alpha virt. eigenvalues --    1.19136   1.21337   1.22576   1.23915   1.24536
 Alpha virt. eigenvalues --    1.24828   1.26039   1.26911   1.27486   1.29557
 Alpha virt. eigenvalues --    1.30008   1.33127   1.36070   1.37181   1.40860
 Alpha virt. eigenvalues --    1.41851   1.46490   1.48741   1.51700   1.54291
 Alpha virt. eigenvalues --    1.56375   1.58780   1.59554   1.63464   1.65628
 Alpha virt. eigenvalues --    1.68031   1.68627   1.72992   1.75224   1.77371
 Alpha virt. eigenvalues --    1.81579   1.84600   1.87685   1.90653   1.93494
 Alpha virt. eigenvalues --    1.95816   1.96956   1.99719   2.01572   2.02522
 Alpha virt. eigenvalues --    2.05102   2.05605   2.08497   2.09559   2.12395
 Alpha virt. eigenvalues --    2.13264   2.15296   2.18825   2.20014   2.22452
 Alpha virt. eigenvalues --    2.22637   2.24492   2.25493   2.28214   2.29548
 Alpha virt. eigenvalues --    2.31994   2.33724   2.34701   2.36399   2.38464
 Alpha virt. eigenvalues --    2.40483   2.41928   2.43867   2.45135   2.47364
 Alpha virt. eigenvalues --    2.50720   2.51947   2.53114   2.55574   2.61504
 Alpha virt. eigenvalues --    2.62310   2.65193   2.67625   2.70316   2.70495
 Alpha virt. eigenvalues --    2.72271   2.72649   2.76983   2.78441   2.83805
 Alpha virt. eigenvalues --    2.88567   2.88949   2.92944   2.93136   2.96057
 Alpha virt. eigenvalues --    2.99439   3.01343   3.04315   3.05725   3.07677
 Alpha virt. eigenvalues --    3.09415   3.15048   3.21212   3.25217   3.27458
 Alpha virt. eigenvalues --    3.33447   3.37785   3.38784   3.52166   3.65800
 Alpha virt. eigenvalues --    4.13677   4.28073   4.34717   4.38921   4.46296
 Alpha virt. eigenvalues --    4.56308   4.61872   4.62353   4.73464   4.79740
 Alpha virt. eigenvalues --    4.99415   5.00898   5.05023   5.11166
          Condensed to atoms (all electrons):
               1          2          3          4          5          6
     1  O    8.316126   0.306956  -0.082535  -0.085470   0.004639  -0.000016
     2  N    0.306956   5.722354   0.301242   0.264173  -0.053643   0.000970
     3  O   -0.082535   0.301242   8.353637  -0.092659   0.003637   0.000785
     4  C   -0.085470   0.264173  -0.092659   5.225615   0.560337  -0.047282
     5  C    0.004639  -0.053643   0.003637   0.560337   4.709995   0.317421
     6  N   -0.000016   0.000970   0.000785  -0.047282   0.317421   7.195581
     7  C    0.000004  -0.000140   0.000002   0.004630  -0.030204   0.169267
     8  H   -0.000000   0.000002  -0.000000  -0.000261   0.003095  -0.050673
     9  C   -0.000000  -0.000004  -0.000000   0.000855   0.000626  -0.061653
    10  C    0.000000   0.000000   0.000000  -0.000038  -0.000052   0.003748
    11  C   -0.000000  -0.000000  -0.000000  -0.000028   0.000025  -0.000190
    12  C   -0.000000   0.000002  -0.000000  -0.000127  -0.000176   0.003873
    13  C   -0.000025  -0.000039  -0.000004  -0.011557  -0.000585  -0.047693
    14  H   -0.000004  -0.000105   0.000001   0.002645   0.006077  -0.006959
    15  N    0.000382   0.002363  -0.000016  -0.063523  -0.006398   0.001597
    16  C    0.000836  -0.027274   0.002548   0.328497  -0.050331  -0.001856
    17  H    0.000220  -0.007232   0.017392  -0.023147   0.374513  -0.034183
    18  H    0.000001  -0.000050   0.000012   0.001506  -0.031445   0.338680
    19  H    0.000001  -0.000004   0.000000  -0.001226   0.001233  -0.000352
    20  H    0.000000  -0.000000   0.000000  -0.000079   0.000153  -0.000429
    21  H   -0.000000   0.000000   0.000000   0.000001   0.000001  -0.000077
    22  H   -0.000000   0.000000  -0.000000  -0.000000  -0.000003  -0.000117
    23  H    0.000000  -0.000000   0.000000   0.000040  -0.000000  -0.000031
    24  H    0.000000   0.000000   0.000000   0.000000  -0.000000   0.000006
    25  H    0.000000  -0.000000   0.000000   0.000024   0.000000  -0.000090
    26  H    0.000000  -0.000000   0.000000   0.000006  -0.000002  -0.000060
    27  H    0.006128  -0.000880   0.000018  -0.063393   0.002214   0.000017
               7          8          9         10         11         12
     1  O    0.000004  -0.000000  -0.000000   0.000000  -0.000000  -0.000000
     2  N   -0.000140   0.000002  -0.000004   0.000000  -0.000000   0.000002
     3  O    0.000002  -0.000000  -0.000000   0.000000  -0.000000  -0.000000
     4  C    0.004630  -0.000261   0.000855  -0.000038  -0.000028  -0.000127
     5  C   -0.030204   0.003095   0.000626  -0.000052   0.000025  -0.000176
     6  N    0.169267  -0.050673  -0.061653   0.003748  -0.000190   0.003873
     7  C    5.017571   0.418415   0.350529  -0.054669  -0.009029  -0.061070
     8  H    0.418415   0.538091  -0.055045   0.000777  -0.000325  -0.002230
     9  C    0.350529  -0.055045   5.158236   0.324775  -0.050416  -0.005342
    10  C   -0.054669   0.000777   0.324775   5.119308   0.337000  -0.060991
    11  C   -0.009029  -0.000325  -0.050416   0.337000   5.119924   0.335973
    12  C   -0.061070  -0.002230  -0.005342  -0.060991   0.335973   5.118626
    13  C    0.338596  -0.037938  -0.060240  -0.000286  -0.050690   0.371989
    14  H   -0.046595  -0.000746   0.004422  -0.000405   0.004195  -0.036321
    15  N   -0.057957   0.003900  -0.014615   0.001561  -0.013052  -0.082054
    16  C   -0.001776   0.000009  -0.001270  -0.000029   0.000029   0.002608
    17  H    0.001616  -0.000045  -0.000070   0.000001   0.000000   0.000000
    18  H   -0.021215  -0.004473   0.001327  -0.000083   0.000004  -0.000114
    19  H   -0.036858   0.004362   0.390222  -0.032068  -0.002212   0.000689
    20  H   -0.042415  -0.002077   0.399486  -0.035302   0.003931  -0.000415
    21  H    0.004598  -0.000076  -0.036355   0.402433  -0.034896   0.004349
    22  H   -0.004848   0.003559  -0.046955   0.397752  -0.045404  -0.001021
    23  H    0.000577   0.000035  -0.001958  -0.039020   0.399178  -0.037865
    24  H   -0.000130  -0.000102   0.004388  -0.038438   0.402340  -0.038691
    25  H    0.005152  -0.000025  -0.000423   0.004190  -0.033400   0.398272
    26  H   -0.003906   0.001685   0.000969  -0.002232  -0.041481   0.396728
    27  H   -0.000407   0.000009  -0.000058   0.000007   0.000012  -0.000036
              13         14         15         16         17         18
     1  O   -0.000025  -0.000004   0.000382   0.000836   0.000220   0.000001
     2  N   -0.000039  -0.000105   0.002363  -0.027274  -0.007232  -0.000050
     3  O   -0.000004   0.000001  -0.000016   0.002548   0.017392   0.000012
     4  C   -0.011557   0.002645  -0.063523   0.328497  -0.023147   0.001506
     5  C   -0.000585   0.006077  -0.006398  -0.050331   0.374513  -0.031445
     6  N   -0.047693  -0.006959   0.001597  -0.001856  -0.034183   0.338680
     7  C    0.338596  -0.046595  -0.057957  -0.001776   0.001616  -0.021215
     8  H   -0.037938  -0.000746   0.003900   0.000009  -0.000045  -0.004473
     9  C   -0.060240   0.004422  -0.014615  -0.001270  -0.000070   0.001327
    10  C   -0.000286  -0.000405   0.001561  -0.000029   0.000001  -0.000083
    11  C   -0.050690   0.004195  -0.013052   0.000029   0.000000   0.000004
    12  C    0.371989  -0.036321  -0.082054   0.002608   0.000000  -0.000114
    13  C    5.040242   0.403080   0.244783  -0.071084  -0.000008   0.002971
    14  H    0.403080   0.526778  -0.037368  -0.004539   0.000093  -0.000109
    15  N    0.244783  -0.037368   6.965128   0.585185  -0.000080  -0.000132
    16  C   -0.071084  -0.004539   0.585185   4.709951   0.002012  -0.000197
    17  H   -0.000008   0.000093  -0.000080   0.002012   0.376490  -0.002817
    18  H    0.002971  -0.000109  -0.000132  -0.000197  -0.002817   0.310598
    19  H   -0.007548   0.000106   0.007696   0.003002   0.000016  -0.000149
    20  H    0.004340  -0.000066   0.000126  -0.000036   0.000002   0.000807
    21  H   -0.000433   0.000010  -0.000041   0.000004  -0.000000   0.000001
    22  H    0.000045  -0.000055   0.000019  -0.000002   0.000000   0.000001
    23  H   -0.007522   0.000003   0.008589   0.000106   0.000000   0.000000
    24  H    0.004699  -0.000057   0.000135   0.000007   0.000000  -0.000000
    25  H   -0.035562  -0.002817   0.000410  -0.000022  -0.000000   0.000002
    26  H   -0.047407  -0.001046   0.004898  -0.000061   0.000000  -0.000000
    27  H    0.005059  -0.000174  -0.040315   0.403669  -0.000079   0.000001
              19         20         21         22         23         24
     1  O    0.000001   0.000000  -0.000000  -0.000000   0.000000   0.000000
     2  N   -0.000004  -0.000000   0.000000   0.000000  -0.000000   0.000000
     3  O    0.000000   0.000000   0.000000  -0.000000   0.000000   0.000000
     4  C   -0.001226  -0.000079   0.000001  -0.000000   0.000040   0.000000
     5  C    0.001233   0.000153   0.000001  -0.000003  -0.000000  -0.000000
     6  N   -0.000352  -0.000429  -0.000077  -0.000117  -0.000031   0.000006
     7  C   -0.036858  -0.042415   0.004598  -0.004848   0.000577  -0.000130
     8  H    0.004362  -0.002077  -0.000076   0.003559   0.000035  -0.000102
     9  C    0.390222   0.399486  -0.036355  -0.046955  -0.001958   0.004388
    10  C   -0.032068  -0.035302   0.402433   0.397752  -0.039020  -0.038438
    11  C   -0.002212   0.003931  -0.034896  -0.045404   0.399178   0.402340
    12  C    0.000689  -0.000415   0.004349  -0.001021  -0.037865  -0.038691
    13  C   -0.007548   0.004340  -0.000433   0.000045  -0.007522   0.004699
    14  H    0.000106  -0.000066   0.000010  -0.000055   0.000003  -0.000057
    15  N    0.007696   0.000126  -0.000041   0.000019   0.008589   0.000135
    16  C    0.003002  -0.000036   0.000004  -0.000002   0.000106   0.000007
    17  H    0.000016   0.000002  -0.000000   0.000000   0.000000   0.000000
    18  H   -0.000149   0.000807   0.000001   0.000001   0.000000  -0.000000
    19  H    0.504949  -0.024738  -0.002787   0.003959   0.001514  -0.000066
    20  H   -0.024738   0.541159  -0.002692  -0.002990  -0.000045  -0.000083
    21  H   -0.002787  -0.002692   0.524023  -0.027403  -0.002898  -0.002242
    22  H    0.003959  -0.002990  -0.027403   0.571322   0.004137  -0.003656
    23  H    0.001514  -0.000045  -0.002898   0.004137   0.498961  -0.025450
    24  H   -0.000066  -0.000083  -0.002242  -0.003656  -0.025450   0.538126
    25  H   -0.000029   0.000012  -0.000087  -0.000080  -0.002318  -0.002291
    26  H    0.000019  -0.000030  -0.000081   0.002380   0.004067  -0.003035
    27  H    0.000083   0.000000  -0.000000   0.000000  -0.000035  -0.000000
              25         26         27
     1  O    0.000000   0.000000   0.006128
     2  N   -0.000000  -0.000000  -0.000880
     3  O    0.000000   0.000000   0.000018
     4  C    0.000024   0.000006  -0.063393
     5  C    0.000000  -0.000002   0.002214
     6  N   -0.000090  -0.000060   0.000017
     7  C    0.005152  -0.003906  -0.000407
     8  H   -0.000025   0.001685   0.000009
     9  C   -0.000423   0.000969  -0.000058
    10  C    0.004190  -0.002232   0.000007
    11  C   -0.033400  -0.041481   0.000012
    12  C    0.398272   0.396728  -0.000036
    13  C   -0.035562  -0.047407   0.005059
    14  H   -0.002817  -0.001046  -0.000174
    15  N    0.000410   0.004898  -0.040315
    16  C   -0.000022  -0.000061   0.403669
    17  H   -0.000000   0.000000  -0.000079
    18  H    0.000002  -0.000000   0.000001
    19  H   -0.000029   0.000019   0.000083
    20  H    0.000012  -0.000030   0.000000
    21  H   -0.000087  -0.000081  -0.000000
    22  H   -0.000080   0.002380   0.000000
    23  H   -0.002318   0.004067  -0.000035
    24  H   -0.002291  -0.003035  -0.000000
    25  H    0.506113  -0.024080  -0.000013
    26  H   -0.024080   0.562318   0.000001
    27  H   -0.000013   0.000001   0.439258
 Mulliken charges:
               1
     1  O   -0.467244
     2  N    0.491310
     3  O   -0.504059
     4  C    0.000460
     5  C    0.188874
     6  N   -0.780285
     7  C    0.060263
     8  H    0.180076
     9  C   -0.301431
    10  C   -0.327939
    11  C   -0.321488
    12  C   -0.306658
    13  C   -0.037182
    14  H    0.189955
    15  N   -0.511221
    16  C    0.120015
    17  H    0.295304
    18  H    0.404873
    19  H    0.190187
    20  H    0.161380
    21  H    0.174648
    22  H    0.149360
    23  H    0.199935
    24  H    0.164539
    25  H    0.187062
    26  H    0.150349
    27  H    0.248916
 Sum of Mulliken charges =  -0.00000
 Mulliken charges with hydrogens summed into heavy atoms:
               1
     1  O   -0.467244
     2  N    0.491310
     3  O   -0.504059
     4  C    0.000460
     5  C    0.484179
     6  N   -0.375411
     7  C    0.240339
     9  C    0.050136
    10  C   -0.003930
    11  C    0.042986
    12  C    0.030753
    13  C    0.152773
    15  N   -0.511221
    16  C    0.368931
 Electronic spatial extent (au):  <R**2>=           3005.3438
 Charge=              0.0000 electrons
 Dipole moment (field-independent basis, Debye):
    X=              5.4158    Y=              4.7959    Z=              1.2818  Tot=              7.3467
 Quadrupole moment (field-independent basis, Debye-Ang):
   XX=           -106.1393   YY=            -79.2250   ZZ=            -81.5013
   XY=             -1.7655   XZ=             -0.1334   YZ=              1.8557
 Traceless Quadrupole moment (field-independent basis, Debye-Ang):
   XX=            -17.1841   YY=              9.7302   ZZ=              7.4539
   XY=             -1.7655   XZ=             -0.1334   YZ=              1.8557
 Octapole moment (field-independent basis, Debye-Ang**2):
  XXX=             92.3967  YYY=             36.2764  ZZZ=             -1.4820  XYY=             -4.5791
  XXY=              9.5281  XXZ=              4.9332  XZZ=             -9.7590  YZZ=             -0.3917
  YYZ=              8.0007  XYZ=              0.2542
 Hexadecapole moment (field-independent basis, Debye-Ang**3):
 XXXX=          -3382.0379 YYYY=           -601.0577 ZZZZ=           -303.8086 XXXY=            -20.8780
 XXXZ=            -13.5293 YYYX=             -8.9450 YYYZ=             24.9876 ZZZX=              1.8515
 ZZZY=              7.0645 XXYY=           -627.7631 XXZZ=           -523.8057 YYZZ=           -157.3237
 XXYZ=             -4.3032 YYXZ=              1.6738 ZZXY=              4.6954
 N-N= 9.312347808573D+02 E-N=-3.409185946376D+03  KE= 6.596288586274D+02
 Unable to Open any file for archive entry.
 1\1\GINC-LOTUS\FOpt\RMP2-FC\6-31G(d)\C9H13N3O2\ALEXEY\02-Jul-2023\0\\#
 MP2/6-31G* SCF=Tight Opt=(ModRedun, MaxCycle=20 ) NoSymm\\MolName:\\0,
 1\O,-3.5067717397,-1.3902983426,-0.3713415994\N,-3.1210885158,-0.23222
 14778,-0.1185530776\O,-3.8953754203,0.728772605,0.0557169975\C,-1.6866
 478354,-0.0237891076,-0.0096363595\C,-1.3014046925,1.2606581996,0.2754
 390937\N,-0.0571639427,1.7501657836,0.3865024786\C,1.2056351854,1.0239
 689191,0.3593824788\H,1.8534146055,1.5528042953,1.0748439512\C,1.90911
 98397,1.0351470349,-0.9964520347\C,3.3074978938,0.428469311,-0.8324550
 277\C,3.2594899691,-0.9676781276,-0.2059828637\C,2.4645118633,-0.97837
 8389,1.1014918929\C,1.0547798926,-0.4246673801,0.8650964168\H,0.478253
 3699,-0.4033900915,1.8035258778\N,0.408210384,-1.3179463729,-0.0911792
 94\C,-0.8391438051,-1.1381053015,-0.386514445\H,-2.0961672797,1.987568
 513,0.4190334929\H,0.0017432562,2.7353230388,0.6157038334\H,1.31484640
 86,0.4577476723,-1.7126617308\H,1.97510604,2.0631034499,-1.3741146437\
 H,3.8114611519,0.3904399652,-1.804990248\H,3.9072960726,1.0947182867,-
 0.1961349557\H,2.7817904116,-1.6643955555,-0.901890505\H,4.278654437,-
 1.3312218351,-0.0288829706\H,2.379062286,-2.0003368387,1.4852607382\H,
 2.9744903349,-0.3805976746,1.8695719641\H,-1.300590171,-1.8928605797,-
 1.0227594607\\Version=ES64L-G16RevC.02\HF=-661.30036\MP2=-663.3346494\
 RMSD=5.106e-09\RMSF=6.776e-06\Dipole=1.9792182,1.6918132,0.4713867\PG=
 C01 [X(C9H13N3O2)]\\@
 The archive entry for this job was punched.


 ALL MY ATTEMPTS TO ADAPT THE THEORETICAL FOUNDATIONS OF PHYSICS
 TO THESE NEW NOTIONS FAILED COMPLETELY. IT WAS AS IF THE GROUND HAD
 BEEN PULLED OUT FROM UNDER ONE WITH NO FIRM FOUNDATION TO BE SEEN ANYWHERE,
 UPON WHICH ONE COULD HAVE BUILT.  -- A.EINSTEIN
 Job cpu time:       0 days  1 hours  7 minutes 12.9 seconds.
 Elapsed time:       0 days  0 hours 20 minutes 13.0 seconds.
 File lengths (MBytes):  RWF=     36 Int=      0 D2E=      0 Chk=      7 Scr=      1
 Normal termination of Gaussian 16 at Sun Jul  2 09:04:48 2023.
