 Entering Gaussian System, Link 0=g16
 Initial command:
 /home/alexey/programs//g16/l1.exe "/home/alexey/tmp/Gau-1481498.inp" -scrdir="/home/alexey/tmp/"
 Entering Link 1 = /home/alexey/programs//g16/l1.exe PID=   1481500.
  
 Copyright (c) 1988-2021, Gaussian, Inc.  All Rights Reserved.
  
 This is part of the Gaussian(R) 16 program.  It is based on
 the Gaussian(R) 09 system (copyright 2009, Gaussian, Inc.),
 the Gaussian(R) 03 system (copyright 2003, Gaussian, Inc.),
 the Gaussian(R) 98 system (copyright 1998, Gaussian, Inc.),
 the Gaussian(R) 94 system (copyright 1995, Gaussian, Inc.),
 the Gaussian 92(TM) system (copyright 1992, Gaussian, Inc.),
 the Gaussian 90(TM) system (copyright 1990, Gaussian, Inc.),
 the Gaussian 88(TM) system (copyright 1988, Gaussian, Inc.),
 the Gaussian 86(TM) system (copyright 1986, Carnegie Mellon
 University), and the Gaussian 82(TM) system (copyright 1983,
 Carnegie Mellon University). Gaussian is a federally registered
 trademark of Gaussian, Inc.
  
 This software contains proprietary and confidential information,
 including trade secrets, belonging to Gaussian, Inc.
  
 This software is provided under written license and may be
 used, copied, transmitted, or stored only in accord with that
 written license.
  
 The following legend is applicable only to US Government
 contracts under FAR:
  
                    RESTRICTED RIGHTS LEGEND
  
 Use, reproduction and disclosure by the US Government is
 subject to restrictions as set forth in subparagraphs (a)
 and (c) of the Commercial Computer Software - Restricted
 Rights clause in FAR 52.227-19.
  
 Gaussian, Inc.
 340 Quinnipiac St., Bldg. 40, Wallingford CT 06492
  
  
 ---------------------------------------------------------------
 Warning -- This program may not be used in any manner that
 competes with the business of Gaussian, Inc. or will provide
 assistance to any competitor of Gaussian, Inc.  The licensee
 of this program is prohibited from giving any competitor of
 Gaussian, Inc. access to this program.  By using this program,
 the user acknowledges that Gaussian, Inc. is engaged in the
 business of creating and licensing software in the field of
 computational chemistry and represents and warrants to the
 licensee that it is not a competitor of Gaussian, Inc. and that
 it will not use this program in any manner prohibited above.
 ---------------------------------------------------------------
  

 Cite this work as:
 Gaussian 16, Revision C.02,
 M. J. Frisch, G. W. Trucks, H. B. Schlegel, G. E. Scuseria, 
 M. A. Robb, J. R. Cheeseman, G. Scalmani, V. Barone, 
 G. A. Petersson, H. Nakatsuji, X. Li, M. Caricato, A. V. Marenich, 
 J. Bloino, B. G. Janesko, R. Gomperts, B. Mennucci, H. P. Hratchian, 
 J. V. Ortiz, A. F. Izmaylov, J. L. Sonnenberg, D. Williams-Young, 
 F. Ding, F. Lipparini, F. Egidi, J. Goings, B. Peng, A. Petrone, 
 T. Henderson, D. Ranasinghe, V. G. Zakrzewski, J. Gao, N. Rega, 
 G. Zheng, W. Liang, M. Hada, M. Ehara, K. Toyota, R. Fukuda, 
 J. Hasegawa, M. Ishida, T. Nakajima, Y. Honda, O. Kitao, H. Nakai, 
 T. Vreven, K. Throssell, J. A. Montgomery, Jr., J. E. Peralta, 
 F. Ogliaro, M. J. Bearpark, J. J. Heyd, E. N. Brothers, K. N. Kudin, 
 V. N. Staroverov, T. A. Keith, R. Kobayashi, J. Normand, 
 K. Raghavachari, A. P. Rendell, J. C. Burant, S. S. Iyengar, 
 J. Tomasi, M. Cossi, J. M. Millam, M. Klene, C. Adamo, R. Cammi, 
 J. W. Ochterski, R. L. Martin, K. Morokuma, O. Farkas, 
 J. B. Foresman, and D. J. Fox, Gaussian, Inc., Wallingford CT, 2019.
 
 ******************************************
 Gaussian 16:  ES64L-G16RevC.02  7-Dec-2021
                 2-Jul-2023 
 ******************************************
 %mem=8GB
 %NPROCS=4
 Will use up to    4 processors via shared memory.
 %NoSave
 ---------------------------------------------------------
 #MP2/6-31G* SCF=Tight Opt=(ModRedun, MaxCycle=20 ) NoSymm
 ---------------------------------------------------------
 1/6=20,18=120,19=15,38=1/1,3;
 2/9=110,12=2,15=1,17=6,18=5,40=1/2;
 3/5=1,6=6,7=1,11=9,25=1,30=1,71=1/1,2,3;
 4//1;
 5/5=2,32=2,38=5/2;
 8/6=4,10=2/1;
 9/15=2,16=-3/6;
 10/5=1,31=1/2;
 6/7=2,8=2,9=2,10=2/1;
 7/12=2,30=1/1,2,3,16;
 1/6=20,18=20,19=15/3(2);
 2/9=110,15=1/2;
 99//99;
 2/9=110,15=1/2;
 3/5=1,6=6,7=1,11=9,25=1,30=1,71=1/1,2,3;
 4/5=5,16=3,69=1/1;
 5/5=2,32=2,38=5/2;
 8/6=4,10=2/1;
 9/15=2,16=-3/6;
 10/5=1,31=1/2;
 7/12=2,30=1/1,2,3,16;
 1/6=20,18=20,19=15/3(-8);
 2/9=110,15=1/2;
 6/7=2,8=2,9=2,10=2/1;
 99/9=10/99;
 --------
 MolName:
 --------
 Symbolic Z-matrix:
 Charge =  0 Multiplicity = 1
 8                    0    -3.5645   -1.50864  -0.05431 
 7                    0    -3.23372  -0.33731   0.12096 
 8                    0    -4.02424   0.56381   0.40285 
 6                    0    -1.75707   0.00952  -0.02985 
 6                    0    -1.37762   1.32244   0.27361 
 7                    0    -0.08723   1.79067   0.28187 
 6                    0     1.18825   1.0054    0.30791 
 1                    0     1.82161   1.49922   1.08981 
 6                    0     2.01199   1.0516   -1.00273 
 6                    0     3.40888   0.45196  -0.75377 
 6                    0     3.30819  -0.96451  -0.16621 
 6                    0     2.40443  -0.99375   1.08547 
 6                    0     0.98335  -0.44273   0.78506 
 1                    0     0.40282  -0.47966   1.73681 
 7                    0     0.3594   -1.29876  -0.2282 
 6                    0    -0.8669   -1.05553  -0.56009 
 1                    0    -2.15633   2.03743   0.58709 
 1                    0     0.13895   2.75904   0.04221 
 1                    0     1.49191   0.48139  -1.80172 
 1                    0     2.12366   2.10134  -1.34813 
 1                    0     3.98532   0.42512  -1.70434 
 1                    0     3.96126   1.09895  -0.03613 
 1                    0     2.88671  -1.64764  -0.93793 
 1                    0     4.32229  -1.33891   0.09379 
 1                    0     2.32049  -2.04072   1.45098 
 1                    0     2.87173  -0.39043   1.89192 
 1                    0    -1.36362  -1.73533  -1.26894 
 
 The following ModRedundant input section has been read:
 D       5       4      16      15 F                                           
 D       1       2       4      16 F                                           
 D       7      13      15      16 F                                           
 D       7       9      10      11 F                                           
 D       9      10      11      12 F                                           
 D       6       7      13      15 F                                           
 

 GradGradGradGradGradGradGradGradGradGradGradGradGradGradGradGradGradGrad
 Berny optimization.
 Initialization pass.
                           ----------------------------
                           !    Initial Parameters    !
                           ! (Angstroms and Degrees)  !
 --------------------------                            --------------------------
 ! Name  Definition              Value          Derivative Info.                !
 --------------------------------------------------------------------------------
 ! R1    R(1,2)                  1.2297         estimate D2E/DX2                !
 ! R2    R(2,3)                  1.2314         estimate D2E/DX2                !
 ! R3    R(2,4)                  1.5243         estimate D2E/DX2                !
 ! R4    R(4,5)                  1.3999         estimate D2E/DX2                !
 ! R5    R(4,16)                 1.4859         estimate D2E/DX2                !
 ! R6    R(5,6)                  1.3727         estimate D2E/DX2                !
 ! R7    R(5,17)                 1.1027         estimate D2E/DX2                !
 ! R8    R(6,7)                  1.4981         estimate D2E/DX2                !
 ! R9    R(6,18)                 1.0229         estimate D2E/DX2                !
 ! R10   R(7,8)                  1.1209         estimate D2E/DX2                !
 ! R11   R(7,9)                  1.5487         estimate D2E/DX2                !
 ! R12   R(7,13)                 1.5384         estimate D2E/DX2                !
 ! R13   R(9,10)                 1.5404         estimate D2E/DX2                !
 ! R14   R(9,19)                 1.1109         estimate D2E/DX2                !
 ! R15   R(9,20)                 1.1107         estimate D2E/DX2                !
 ! R16   R(10,11)                1.5368         estimate D2E/DX2                !
 ! R17   R(10,21)                1.112          estimate D2E/DX2                !
 ! R18   R(10,22)                1.113          estimate D2E/DX2                !
 ! R19   R(11,12)                1.5441         estimate D2E/DX2                !
 ! R20   R(11,23)                1.1135         estimate D2E/DX2                !
 ! R21   R(11,24)                1.1118         estimate D2E/DX2                !
 ! R22   R(12,13)                1.5535         estimate D2E/DX2                !
 ! R23   R(12,25)                1.1121         estimate D2E/DX2                !
 ! R24   R(12,26)                1.1103         estimate D2E/DX2                !
 ! R25   R(13,14)                1.1154         estimate D2E/DX2                !
 ! R26   R(13,15)                1.4659         estimate D2E/DX2                !
 ! R27   R(15,16)                1.2935         estimate D2E/DX2                !
 ! R28   R(16,27)                1.1006         estimate D2E/DX2                !
 ! A1    A(1,2,3)              123.8475         estimate D2E/DX2                !
 ! A2    A(1,2,4)              117.5947         estimate D2E/DX2                !
 ! A3    A(3,2,4)              118.5568         estimate D2E/DX2                !
 ! A4    A(2,4,5)              117.0337         estimate D2E/DX2                !
 ! A5    A(2,4,16)             116.9083         estimate D2E/DX2                !
 ! A6    A(5,4,16)             125.958          estimate D2E/DX2                !
 ! A7    A(4,5,6)              125.1684         estimate D2E/DX2                !
 ! A8    A(4,5,17)             118.576          estimate D2E/DX2                !
 ! A9    A(6,5,17)             116.1652         estimate D2E/DX2                !
 ! A10   A(5,6,7)              128.437          estimate D2E/DX2                !
 ! A11   A(5,6,18)             121.9614         estimate D2E/DX2                !
 ! A12   A(7,6,18)             108.1831         estimate D2E/DX2                !
 ! A13   A(6,7,8)              105.2058         estimate D2E/DX2                !
 ! A14   A(6,7,9)              114.9936         estimate D2E/DX2                !
 ! A15   A(6,7,13)             112.6697         estimate D2E/DX2                !
 ! A16   A(8,7,9)              106.0608         estimate D2E/DX2                !
 ! A17   A(8,7,13)             105.8792         estimate D2E/DX2                !
 ! A18   A(9,7,13)             111.1864         estimate D2E/DX2                !
 ! A19   A(7,9,10)             109.5086         estimate D2E/DX2                !
 ! A20   A(7,9,19)             110.1428         estimate D2E/DX2                !
 ! A21   A(7,9,20)             110.1717         estimate D2E/DX2                !
 ! A22   A(10,9,19)            109.9371         estimate D2E/DX2                !
 ! A23   A(10,9,20)            109.0859         estimate D2E/DX2                !
 ! A24   A(19,9,20)            107.9704         estimate D2E/DX2                !
 ! A25   A(9,10,11)            111.1721         estimate D2E/DX2                !
 ! A26   A(9,10,21)            109.9572         estimate D2E/DX2                !
 ! A27   A(9,10,22)            109.1467         estimate D2E/DX2                !
 ! A28   A(11,10,21)           109.7877         estimate D2E/DX2                !
 ! A29   A(11,10,22)           108.7714         estimate D2E/DX2                !
 ! A30   A(21,10,22)           107.9349         estimate D2E/DX2                !
 ! A31   A(10,11,12)           111.4517         estimate D2E/DX2                !
 ! A32   A(10,11,23)           108.9831         estimate D2E/DX2                !
 ! A33   A(10,11,24)           109.8782         estimate D2E/DX2                !
 ! A34   A(12,11,23)           109.1862         estimate D2E/DX2                !
 ! A35   A(12,11,24)           109.7492         estimate D2E/DX2                !
 ! A36   A(23,11,24)           107.5013         estimate D2E/DX2                !
 ! A37   A(11,12,13)           111.8348         estimate D2E/DX2                !
 ! A38   A(11,12,25)           109.1729         estimate D2E/DX2                !
 ! A39   A(11,12,26)           109.3995         estimate D2E/DX2                !
 ! A40   A(13,12,25)           109.1737         estimate D2E/DX2                !
 ! A41   A(13,12,26)           109.4345         estimate D2E/DX2                !
 ! A42   A(25,12,26)           107.7346         estimate D2E/DX2                !
 ! A43   A(7,13,12)            105.7846         estimate D2E/DX2                !
 ! A44   A(7,13,14)            111.4152         estimate D2E/DX2                !
 ! A45   A(7,13,15)            113.079          estimate D2E/DX2                !
 ! A46   A(12,13,14)           107.4183         estimate D2E/DX2                !
 ! A47   A(12,13,15)           108.4154         estimate D2E/DX2                !
 ! A48   A(14,13,15)           110.4219         estimate D2E/DX2                !
 ! A49   A(13,15,16)           118.1049         estimate D2E/DX2                !
 ! A50   A(4,16,15)            127.6749         estimate D2E/DX2                !
 ! A51   A(4,16,27)            113.7145         estimate D2E/DX2                !
 ! A52   A(15,16,27)           118.4884         estimate D2E/DX2                !
 ! D1    D(1,2,4,5)           -175.1577         estimate D2E/DX2                !
 ! D2    D(1,2,4,16)             8.2581         Frozen                          !
 ! D3    D(3,2,4,5)              5.1817         estimate D2E/DX2                !
 ! D4    D(3,2,4,16)          -171.4025         estimate D2E/DX2                !
 ! D5    D(2,4,5,6)            175.4387         estimate D2E/DX2                !
 ! D6    D(2,4,5,17)            -0.9636         estimate D2E/DX2                !
 ! D7    D(16,4,5,6)            -8.3248         estimate D2E/DX2                !
 ! D8    D(16,4,5,17)          175.2729         estimate D2E/DX2                !
 ! D9    D(2,4,16,15)         -144.3658         estimate D2E/DX2                !
 ! D10   D(2,4,16,27)           31.5124         estimate D2E/DX2                !
 ! D11   D(5,4,16,15)           39.3935         Frozen                          !
 ! D12   D(5,4,16,27)         -144.7283         estimate D2E/DX2                !
 ! D13   D(4,5,6,7)            -16.1235         estimate D2E/DX2                !
 ! D14   D(4,5,6,18)           148.6192         estimate D2E/DX2                !
 ! D15   D(17,5,6,7)           160.3564         estimate D2E/DX2                !
 ! D16   D(17,5,6,18)          -34.9009         estimate D2E/DX2                !
 ! D17   D(5,6,7,8)           -133.7379         estimate D2E/DX2                !
 ! D18   D(5,6,7,9)            109.9652         estimate D2E/DX2                !
 ! D19   D(5,6,7,13)           -18.8525         estimate D2E/DX2                !
 ! D20   D(18,6,7,8)            59.8535         estimate D2E/DX2                !
 ! D21   D(18,6,7,9)           -56.4434         estimate D2E/DX2                !
 ! D22   D(18,6,7,13)          174.7389         estimate D2E/DX2                !
 ! D23   D(6,7,9,10)           168.7347         estimate D2E/DX2                !
 ! D24   D(6,7,9,19)           -70.2494         estimate D2E/DX2                !
 ! D25   D(6,7,9,20)            48.7531         estimate D2E/DX2                !
 ! D26   D(8,7,9,10)            52.9272         estimate D2E/DX2                !
 ! D27   D(8,7,9,19)           173.9431         estimate D2E/DX2                !
 ! D28   D(8,7,9,20)           -67.0544         estimate D2E/DX2                !
 ! D29   D(13,7,9,10)          -61.715          estimate D2E/DX2                !
 ! D30   D(13,7,9,19)           59.3009         estimate D2E/DX2                !
 ! D31   D(13,7,9,20)          178.3033         estimate D2E/DX2                !
 ! D32   D(6,7,13,12)         -166.4691         estimate D2E/DX2                !
 ! D33   D(6,7,13,14)          -50.0449         estimate D2E/DX2                !
 ! D34   D(6,7,13,15)           75.022          Frozen                          !
 ! D35   D(8,7,13,12)          -51.9913         estimate D2E/DX2                !
 ! D36   D(8,7,13,14)           64.433          estimate D2E/DX2                !
 ! D37   D(8,7,13,15)         -170.5001         estimate D2E/DX2                !
 ! D38   D(9,7,13,12)           62.764          estimate D2E/DX2                !
 ! D39   D(9,7,13,14)          179.1882         estimate D2E/DX2                !
 ! D40   D(9,7,13,15)          -55.7449         estimate D2E/DX2                !
 ! D41   D(7,9,10,11)           54.8119         Frozen                          !
 ! D42   D(7,9,10,21)          176.6067         estimate D2E/DX2                !
 ! D43   D(7,9,10,22)          -65.1727         estimate D2E/DX2                !
 ! D44   D(19,9,10,11)         -66.3285         estimate D2E/DX2                !
 ! D45   D(19,9,10,21)          55.4663         estimate D2E/DX2                !
 ! D46   D(19,9,10,22)         173.6869         estimate D2E/DX2                !
 ! D47   D(20,9,10,11)         175.4559         estimate D2E/DX2                !
 ! D48   D(20,9,10,21)         -62.7493         estimate D2E/DX2                !
 ! D49   D(20,9,10,22)          55.4713         estimate D2E/DX2                !
 ! D50   D(9,10,11,12)         -52.8224         Frozen                          !
 ! D51   D(9,10,11,23)          67.7468         estimate D2E/DX2                !
 ! D52   D(9,10,11,24)        -174.7014         estimate D2E/DX2                !
 ! D53   D(21,10,11,12)       -174.7158         estimate D2E/DX2                !
 ! D54   D(21,10,11,23)        -54.1466         estimate D2E/DX2                !
 ! D55   D(21,10,11,24)         63.4052         estimate D2E/DX2                !
 ! D56   D(22,10,11,12)         67.3847         estimate D2E/DX2                !
 ! D57   D(22,10,11,23)       -172.0461         estimate D2E/DX2                !
 ! D58   D(22,10,11,24)        -54.4944         estimate D2E/DX2                !
 ! D59   D(10,11,12,13)         56.4923         estimate D2E/DX2                !
 ! D60   D(10,11,12,25)        177.417          estimate D2E/DX2                !
 ! D61   D(10,11,12,26)        -64.9147         estimate D2E/DX2                !
 ! D62   D(23,11,12,13)        -63.9576         estimate D2E/DX2                !
 ! D63   D(23,11,12,25)         56.9671         estimate D2E/DX2                !
 ! D64   D(23,11,12,26)        174.6354         estimate D2E/DX2                !
 ! D65   D(24,11,12,13)        178.446          estimate D2E/DX2                !
 ! D66   D(24,11,12,25)        -60.6293         estimate D2E/DX2                !
 ! D67   D(24,11,12,26)         57.039          estimate D2E/DX2                !
 ! D68   D(11,12,13,7)         -59.8713         estimate D2E/DX2                !
 ! D69   D(11,12,13,14)       -178.9724         estimate D2E/DX2                !
 ! D70   D(11,12,13,15)         61.6939         estimate D2E/DX2                !
 ! D71   D(25,12,13,7)         179.2045         estimate D2E/DX2                !
 ! D72   D(25,12,13,14)         60.1034         estimate D2E/DX2                !
 ! D73   D(25,12,13,15)        -59.2304         estimate D2E/DX2                !
 ! D74   D(26,12,13,7)          61.5156         estimate D2E/DX2                !
 ! D75   D(26,12,13,14)        -57.5856         estimate D2E/DX2                !
 ! D76   D(26,12,13,15)       -176.9193         estimate D2E/DX2                !
 ! D77   D(7,13,15,16)         -67.1603         Frozen                          !
 ! D78   D(12,13,15,16)        175.87           estimate D2E/DX2                !
 ! D79   D(14,13,15,16)         58.4421         estimate D2E/DX2                !
 ! D80   D(13,15,16,4)          -0.1907         estimate D2E/DX2                !
 ! D81   D(13,15,16,27)       -175.8968         estimate D2E/DX2                !
 --------------------------------------------------------------------------------
 Trust Radius=3.00D-01 FncErr=1.00D-07 GrdErr=1.00D-07 EigMax=2.50D+02 EigMin=1.00D-04
 Number of steps in this run=     20 maximum allowed number of steps=    162.
 GradGradGradGradGradGradGradGradGradGradGradGradGradGradGradGradGradGrad

                          Input orientation:                          
 ---------------------------------------------------------------------
 Center     Atomic      Atomic             Coordinates (Angstroms)
 Number     Number       Type             X           Y           Z
 ---------------------------------------------------------------------
      1          8           0       -3.564500   -1.508640   -0.054310
      2          7           0       -3.233720   -0.337310    0.120960
      3          8           0       -4.024240    0.563810    0.402850
      4          6           0       -1.757070    0.009520   -0.029850
      5          6           0       -1.377620    1.322440    0.273610
      6          7           0       -0.087230    1.790670    0.281870
      7          6           0        1.188250    1.005400    0.307910
      8          1           0        1.821610    1.499220    1.089810
      9          6           0        2.011990    1.051600   -1.002730
     10          6           0        3.408880    0.451960   -0.753770
     11          6           0        3.308190   -0.964510   -0.166210
     12          6           0        2.404430   -0.993750    1.085470
     13          6           0        0.983350   -0.442730    0.785060
     14          1           0        0.402820   -0.479660    1.736810
     15          7           0        0.359400   -1.298760   -0.228200
     16          6           0       -0.866900   -1.055530   -0.560090
     17          1           0       -2.156330    2.037430    0.587090
     18          1           0        0.138950    2.759040    0.042210
     19          1           0        1.491910    0.481390   -1.801720
     20          1           0        2.123660    2.101340   -1.348130
     21          1           0        3.985320    0.425120   -1.704340
     22          1           0        3.961260    1.098950   -0.036130
     23          1           0        2.886710   -1.647640   -0.937930
     24          1           0        4.322290   -1.338910    0.093790
     25          1           0        2.320490   -2.040720    1.450980
     26          1           0        2.871730   -0.390430    1.891920
     27          1           0       -1.363620   -1.735330   -1.268940
 ---------------------------------------------------------------------
                    Distance matrix (angstroms):
                    1          2          3          4          5
     1  O    0.000000
     2  N    1.229695   0.000000
     3  O    2.171498   1.231422   0.000000
     4  C    2.360553   1.524313   2.373716   0.000000
     5  C    3.592352   2.494630   2.756233   1.399939   0.000000
     6  N    4.805192   3.801919   4.125514   2.461307   1.372740
     7  C    5.388899   4.625110   5.232023   3.127422   2.585610
     8  H    6.274266   5.465151   5.959939   4.034823   3.306434
     9  C    6.208991   5.541590   6.216886   4.029670   3.632059
    10  C    7.277446   6.746276   7.523400   5.235155   4.972306
    11  C    6.895105   6.578179   7.511599   5.159863   5.232628
    12  C    6.098552   5.757597   6.649794   4.423638   4.508631
    13  C    4.745908   4.270342   5.122027   2.894566   2.991920
    14  H    4.472867   3.981916   4.739951   2.832933   2.925489
    15  N    3.933355   3.735881   4.804549   2.496074   3.184296
    16  C    2.781756   2.565445   3.676726   1.485897   2.571115
    17  H    3.868973   2.649044   2.386334   2.156952   1.102665
    18  H    5.651367   4.579136   4.720302   3.340650   2.101749
    19  H    5.707972   5.167064   5.940945   3.730691   3.639857
    20  H    6.860109   6.066857   6.574694   4.601482   3.936456
    21  H    7.966292   7.485156   8.283268   5.995972   5.786069
    22  H    7.964730   7.338614   8.015441   5.821185   5.352525
    23  H    6.512927   6.348061   7.378986   5.013530   5.336077
    24  H    7.890006   7.622154   8.566237   6.228336   6.293178
    25  H    6.097714   5.959850   6.938137   4.798212   5.135471
    26  H    6.816397   6.357330   7.119151   5.027818   4.858994
    27  H    2.524002   2.717270   3.893562   2.175925   3.424852
                    6          7          8          9         10
     6  N    0.000000
     7  C    1.498058   0.000000
     8  H    2.093175   1.120879   0.000000
     9  C    2.569659   1.548696   2.148332   0.000000
    10  C    3.884261   2.522827   2.648578   1.540406   0.000000
    11  C    4.395528   2.932487   3.139661   2.538622   1.536799
    12  C    3.821928   2.465825   2.560195   2.949245   2.545938
    13  C    2.527334   1.538420   2.136989   2.547021   3.008598
    14  H    2.740693   2.205461   2.519432   3.526934   4.013390
    15  N    3.162946   2.506703   3.421096   2.975759   3.555358
    16  C    3.068817   3.037186   4.059188   3.594987   4.537878
    17  H    2.105997   3.511302   4.045541   4.568838   5.939965
    18  H    1.022905   2.060796   2.348607   2.741447   4.080275
    19  H    2.923909   2.194843   3.083119   1.110859   2.184912
    20  H    2.764317   2.195118   2.529295   1.110732   2.173824
    21  H    4.732380   3.494206   3.693590   2.186039   1.112019
    22  H    4.119450   2.795836   2.450726   2.176284   1.112981
    23  H    4.706826   3.387551   3.892158   2.838174   2.171381
    24  H    5.410500   3.919674   3.911577   3.500626   2.181717
    25  H    4.673701   3.444913   3.593118   3.959584   3.501281
    26  H    4.013091   2.700284   2.305842   3.346282   2.828043
    27  H    4.057938   4.063262   5.115829   4.385498   5.275073
                   11         12         13         14         15
    11  C    0.000000
    12  C    1.544131   0.000000
    13  C    2.565551   1.553492   0.000000
    14  H    3.506813   2.166789   1.115440   0.000000
    15  N    2.968321   2.449675   1.465877   2.129337   0.000000
    16  C    4.194616   3.662415   2.368201   2.686925   1.293493
    17  H    6.280134   5.498815   4.005993   3.769197   4.257201
    18  H    4.894113   4.506021   3.393548   3.664761   4.072771
    19  H    2.839787   3.368174   2.793575   3.825040   2.632010
    20  H    3.492776   3.947255   3.510427   4.374895   3.990932
    21  H    2.180693   3.506486   3.995260   5.049203   4.277622
    22  H    2.168245   2.839208   3.452402   4.277595   4.331201
    23  H    1.113492   2.180439   2.836068   3.832508   2.648156
    24  H    1.111834   2.186493   3.525551   4.335905   3.976152
    25  H    2.179239   1.112110   2.187456   2.489190   2.686266
    26  H    2.180817   1.110282   2.189487   2.475386   3.410539
    27  H    4.861685   4.504596   3.376092   3.705611   2.059741
                   16         17         18         19         20
    16  C    0.000000
    17  H    3.541900   0.000000
    18  H    3.990670   2.466967   0.000000
    19  H    3.076971   4.630046   3.227734   0.000000
    20  H    4.419308   4.697603   2.510914   1.796967   0.000000
    21  H    5.200545   6.750560   4.826197   2.495945   2.530292
    22  H    5.312951   6.220455   4.167984   3.097802   2.470406
    23  H    3.818762   6.429438   5.284855   2.687819   3.847773
    24  H    5.237896   7.322263   5.856295   3.862318   4.329945
    25  H    3.895441   6.117151   5.457238   4.198528   5.003041
    26  H    4.520184   5.733975   4.561653   4.038186   4.155292
    27  H    1.100603   4.278663   4.916929   3.654005   5.185309
                   21         22         23         24         25
    21  H    0.000000
    22  H    1.799319   0.000000
    23  H    2.467927   3.084098   0.000000
    24  H    2.541382   2.467870   1.794617   0.000000
    25  H    4.336827   3.842024   2.486364   2.518274   0.000000
    26  H    3.852050   2.668840   3.096587   2.497401   1.794924
    27  H    5.785177   6.156891   4.264102   5.860354   4.589542
                   26         27
    26  H    0.000000
    27  H    5.453254   0.000000
 Symmetry turned off by external request.
 Stoichiometry    C9H13N3O2
 Framework group  C1[X(C9H13N3O2)]
 Deg. of freedom    75
 Full point group                 C1      NOp   1
 Rotational constants (GHZ):           1.6812975           0.4027439           0.3569956
 Standard basis: 6-31G(d) (6D, 7F)
   236 basis functions,   444 primitive gaussians,   236 cartesian basis functions
    52 alpha electrons       52 beta electrons
       nuclear repulsion energy       918.5742120510 Hartrees.
 NAtoms=   27 NActive=   27 NUniq=   27 SFac= 1.00D+00 NAtFMM=   60 NAOKFM=F Big=F
 Integral buffers will be    131072 words long.
 Raffenetti 1 integral format.
 Two-electron integral symmetry is turned off.
 One-electron integrals computed using PRISM.
 NBasis=   236 RedAO= T EigKep=  1.28D-03  NBF=   236
 NBsUse=   236 1.00D-06 EigRej= -1.00D+00 NBFU=   236
 ExpMin= 1.61D-01 ExpMax= 5.48D+03 ExpMxC= 8.25D+02 IAcc=3 IRadAn=         5 AccDes= 0.00D+00
 Harris functional with IExCor=  205 and IRadAn=       5 diagonalized for initial guess.
 HarFok:  IExCor=  205 AccDes= 0.00D+00 IRadAn=         5 IDoV= 1 UseB2=F ITyADJ=14
 ICtDFT=  3500011 ScaDFX=  1.000000  1.000000  1.000000  1.000000
 FoFCou: FMM=F IPFlag=           0 FMFlag=      100000 FMFlg1=           0
         NFxFlg=           0 DoJE=T BraDBF=F KetDBF=T FulRan=T
         wScrn=  0.000000 ICntrl=       500 IOpCl=  0 I1Cent=   200000004 NGrid=           0
         NMat0=    1 NMatS0=      1 NMatT0=    0 NMatD0=    1 NMtDS0=    0 NMtDT0=    0
 Symmetry not used in FoFCou.
 Keep R1 ints in memory in canonical form, NReq=397720213.
 Requested convergence on RMS density matrix=1.00D-08 within 128 cycles.
 Requested convergence on MAX density matrix=1.00D-06.
 Requested convergence on             energy=1.00D-06.
 No special actions if energy rises.
 SCF Done:  E(RHF) =  -661.277509809     A.U. after   16 cycles
            NFock= 16  Conv=0.83D-08     -V/T= 2.0037
 ExpMin= 1.61D-01 ExpMax= 5.48D+03 ExpMxC= 8.25D+02 IAcc=3 IRadAn=         5 AccDes= 0.00D+00
 HarFok:  IExCor=  205 AccDes= 0.00D+00 IRadAn=         5 IDoV=-2 UseB2=F ITyADJ=14
 ICtDFT= 12500011 ScaDFX=  1.000000  1.000000  1.000000  1.000000
 Range of M.O.s used for correlation:    15   236
 NBasis=   236 NAE=    52 NBE=    52 NFC=    14 NFV=     0
 NROrb=    222 NOA=    38 NOB=    38 NVA=   184 NVB=   184
 Fully direct method using O(ONN) memory.
 JobTyp=1 Pass  1:  I=  15 to  52 NPSUse=  4 ParTrn=T ParDer=T DoDerP=T.
 Spin components of T(2) and E(2):
     alpha-alpha T2 =       0.9193841864D-01 E2=     -0.2717373482D+00
     alpha-beta  T2 =       0.5002526635D+00 E2=     -0.1494365945D+01
     beta-beta   T2 =       0.9193841864D-01 E2=     -0.2717373482D+00
 ANorm=    0.1297740151D+01
 E2 =    -0.2037840641D+01 EUMP2 =    -0.66331535045001D+03
          IDoAtm=111111111111111111111111111
          Differentiating once with respect to electric field.
                with respect to dipole field.
          Differentiating once with respect to nuclear coordinates.
 Keep R1 ints in memory in canonical form, NReq=397723379.
          There are     1 degrees of freedom in the 1st order CPHF.  IDoFFX=0 NUNeed=     1.
 LinEq1:  Iter=  0 NonCon=     1 RMS=4.59D-03 Max=1.13D-01 NDo=     1
 AX will form     1 AO Fock derivatives at one time.
 LinEq1:  Iter=  1 NonCon=     1 RMS=1.55D-03 Max=3.10D-02 NDo=     1
 LinEq1:  Iter=  2 NonCon=     1 RMS=6.35D-04 Max=1.82D-02 NDo=     1
 LinEq1:  Iter=  3 NonCon=     1 RMS=2.94D-04 Max=9.06D-03 NDo=     1
 LinEq1:  Iter=  4 NonCon=     1 RMS=8.97D-05 Max=1.93D-03 NDo=     1
 LinEq1:  Iter=  5 NonCon=     1 RMS=3.76D-05 Max=1.96D-03 NDo=     1
 LinEq1:  Iter=  6 NonCon=     1 RMS=1.53D-05 Max=5.83D-04 NDo=     1
 LinEq1:  Iter=  7 NonCon=     1 RMS=6.00D-06 Max=1.11D-04 NDo=     1
 LinEq1:  Iter=  8 NonCon=     1 RMS=2.41D-06 Max=6.52D-05 NDo=     1
 LinEq1:  Iter=  9 NonCon=     1 RMS=9.11D-07 Max=2.60D-05 NDo=     1
 LinEq1:  Iter= 10 NonCon=     1 RMS=4.47D-07 Max=1.53D-05 NDo=     1
 LinEq1:  Iter= 11 NonCon=     1 RMS=1.57D-07 Max=5.79D-06 NDo=     1
 LinEq1:  Iter= 12 NonCon=     1 RMS=5.49D-08 Max=8.03D-07 NDo=     1
 LinEq1:  Iter= 13 NonCon=     1 RMS=1.75D-08 Max=3.19D-07 NDo=     1
 LinEq1:  Iter= 14 NonCon=     1 RMS=5.70D-09 Max=1.42D-07 NDo=     1
 LinEq1:  Iter= 15 NonCon=     1 RMS=2.16D-09 Max=4.63D-08 NDo=     1
 LinEq1:  Iter= 16 NonCon=     1 RMS=8.38D-10 Max=1.25D-08 NDo=     1
 LinEq1:  Iter= 17 NonCon=     1 RMS=2.72D-10 Max=4.07D-09 NDo=     1
 LinEq1:  Iter= 18 NonCon=     1 RMS=9.22D-11 Max=1.05D-09 NDo=     1
 LinEq1:  Iter= 19 NonCon=     0 RMS=3.05D-11 Max=5.71D-10 NDo=     1
 Linear equations converged to 1.000D-10 1.000D-09 after    19 iterations.
 End of Minotr F.D. properties file   721 does not exist.
 End of Minotr F.D. properties file   722 does not exist.
 End of Minotr F.D. properties file   788 does not exist.

 **********************************************************************

            Population analysis using the SCF Density.

 **********************************************************************

 Alpha  occ. eigenvalues --  -20.59879 -20.59404 -15.85305 -15.62875 -15.57263
 Alpha  occ. eigenvalues --  -11.35697 -11.30531 -11.30076 -11.30062 -11.27745
 Alpha  occ. eigenvalues --  -11.24598 -11.23858 -11.23424 -11.22852  -1.58520
 Alpha  occ. eigenvalues --   -1.38037  -1.28334  -1.22854  -1.13220  -1.08322
 Alpha  occ. eigenvalues --   -1.01809  -1.00580  -0.93470  -0.88981  -0.84901
 Alpha  occ. eigenvalues --   -0.81536  -0.78063  -0.76849  -0.74130  -0.71042
 Alpha  occ. eigenvalues --   -0.70337  -0.69806  -0.67425  -0.64515  -0.63337
 Alpha  occ. eigenvalues --   -0.61561  -0.60554  -0.57377  -0.56398  -0.54907
 Alpha  occ. eigenvalues --   -0.53354  -0.50756  -0.49097  -0.48388  -0.47731
 Alpha  occ. eigenvalues --   -0.47528  -0.46028  -0.45777  -0.44008  -0.42068
 Alpha  occ. eigenvalues --   -0.40381  -0.33888
 Alpha virt. eigenvalues --    0.07215   0.11814   0.18662   0.21157   0.22892
 Alpha virt. eigenvalues --    0.24083   0.26337   0.27510   0.28560   0.28882
 Alpha virt. eigenvalues --    0.30001   0.31042   0.31896   0.32206   0.33352
 Alpha virt. eigenvalues --    0.33697   0.34231   0.35514   0.37509   0.38568
 Alpha virt. eigenvalues --    0.40689   0.42200   0.44858   0.45403   0.45571
 Alpha virt. eigenvalues --    0.45887   0.49581   0.53015   0.57454   0.58606
 Alpha virt. eigenvalues --    0.63210   0.69071   0.69609   0.72186   0.73923
 Alpha virt. eigenvalues --    0.75180   0.75770   0.75954   0.77608   0.79497
 Alpha virt. eigenvalues --    0.80338   0.83705   0.85160   0.85629   0.88038
 Alpha virt. eigenvalues --    0.88627   0.90144   0.90903   0.91829   0.93792
 Alpha virt. eigenvalues --    0.95528   0.97141   0.98340   1.00185   1.01925
 Alpha virt. eigenvalues --    1.02702   1.05206   1.06340   1.06684   1.08523
 Alpha virt. eigenvalues --    1.09451   1.10434   1.10830   1.11881   1.13216
 Alpha virt. eigenvalues --    1.13713   1.14203   1.14984   1.16388   1.17474
 Alpha virt. eigenvalues --    1.17687   1.19687   1.20691   1.22093   1.22834
 Alpha virt. eigenvalues --    1.23775   1.24252   1.25649   1.27079   1.27668
 Alpha virt. eigenvalues --    1.29188   1.31590   1.32714   1.35438   1.40535
 Alpha virt. eigenvalues --    1.41846   1.45888   1.46275   1.47871   1.51837
 Alpha virt. eigenvalues --    1.52870   1.55888   1.60920   1.61523   1.66488
 Alpha virt. eigenvalues --    1.69289   1.70017   1.72281   1.73835   1.76910
 Alpha virt. eigenvalues --    1.78539   1.79475   1.84222   1.89305   1.92589
 Alpha virt. eigenvalues --    1.93971   1.96433   1.97932   1.99049   2.00063
 Alpha virt. eigenvalues --    2.03442   2.03804   2.06025   2.08788   2.11865
 Alpha virt. eigenvalues --    2.12527   2.14905   2.17722   2.18500   2.19265
 Alpha virt. eigenvalues --    2.21217   2.22407   2.24569   2.25142   2.26947
 Alpha virt. eigenvalues --    2.29103   2.32524   2.34142   2.35331   2.36292
 Alpha virt. eigenvalues --    2.38354   2.39814   2.41162   2.43031   2.46576
 Alpha virt. eigenvalues --    2.48564   2.50362   2.51276   2.56635   2.57412
 Alpha virt. eigenvalues --    2.61079   2.62444   2.66721   2.68392   2.68813
 Alpha virt. eigenvalues --    2.70197   2.71190   2.75182   2.78740   2.80886
 Alpha virt. eigenvalues --    2.83948   2.86257   2.90136   2.91875   2.95460
 Alpha virt. eigenvalues --    2.97331   2.98680   3.02061   3.02859   3.05363
 Alpha virt. eigenvalues --    3.06979   3.11978   3.19644   3.22646   3.27141
 Alpha virt. eigenvalues --    3.29786   3.33444   3.36567   3.43587   3.58263
 Alpha virt. eigenvalues --    4.09621   4.23320   4.32174   4.35931   4.42689
 Alpha virt. eigenvalues --    4.53175   4.59829   4.60443   4.70709   4.77515
 Alpha virt. eigenvalues --    4.94925   4.99180   5.02229   5.10558
          Condensed to atoms (all electrons):
               1          2          3          4          5          6
     1  O    8.298331   0.315011  -0.089125  -0.080485   0.003437  -0.000015
     2  N    0.315011   5.683178   0.308114   0.266168  -0.044221   0.000914
     3  O   -0.089125   0.308114   8.330685  -0.086946   0.007836   0.000441
     4  C   -0.080485   0.266168  -0.086946   5.238860   0.572397  -0.049456
     5  C    0.003437  -0.044221   0.007836   0.572397   4.664080   0.304500
     6  N   -0.000015   0.000914   0.000441  -0.049456   0.304500   7.205306
     7  C    0.000003  -0.000091   0.000002   0.002968  -0.029623   0.197736
     8  H   -0.000000   0.000002  -0.000000  -0.000094   0.001986  -0.051843
     9  C   -0.000000  -0.000003   0.000000   0.000354   0.001943  -0.054218
    10  C   -0.000000   0.000000  -0.000000  -0.000014  -0.000068   0.003277
    11  C   -0.000000  -0.000000  -0.000000  -0.000020   0.000014  -0.000154
    12  C   -0.000000   0.000002  -0.000000   0.000021  -0.000083   0.003503
    13  C   -0.000026  -0.000044  -0.000004  -0.012833   0.000312  -0.042382
    14  H   -0.000005  -0.000053  -0.000000   0.003514   0.005294  -0.005629
    15  N   -0.000020   0.001701  -0.000014  -0.062098  -0.003567   0.001616
    16  C    0.004687  -0.029449   0.001900   0.320193  -0.039977  -0.001793
    17  H    0.000104  -0.003747   0.011121  -0.029552   0.379144  -0.035532
    18  H    0.000000  -0.000035   0.000007   0.000853  -0.023221   0.327147
    19  H    0.000000   0.000000   0.000000  -0.000579   0.000434   0.000956
    20  H    0.000000  -0.000000   0.000000  -0.000016   0.000041  -0.002144
    21  H   -0.000000  -0.000000   0.000000   0.000000   0.000001  -0.000056
    22  H   -0.000000   0.000000  -0.000000  -0.000000  -0.000002  -0.000097
    23  H    0.000000  -0.000000   0.000000   0.000024  -0.000000  -0.000024
    24  H   -0.000000   0.000000   0.000000   0.000000  -0.000000   0.000004
    25  H    0.000000  -0.000000   0.000000   0.000017  -0.000000  -0.000070
    26  H   -0.000000  -0.000000   0.000000   0.000009  -0.000001  -0.000066
    27  H    0.004471  -0.000267  -0.000014  -0.064768   0.002152   0.000100
               7          8          9         10         11         12
     1  O    0.000003  -0.000000  -0.000000  -0.000000  -0.000000  -0.000000
     2  N   -0.000091   0.000002  -0.000003   0.000000  -0.000000   0.000002
     3  O    0.000002  -0.000000   0.000000  -0.000000  -0.000000  -0.000000
     4  C    0.002968  -0.000094   0.000354  -0.000014  -0.000020   0.000021
     5  C   -0.029623   0.001986   0.001943  -0.000068   0.000014  -0.000083
     6  N    0.197736  -0.051843  -0.054218   0.003277  -0.000154   0.003503
     7  C    4.986397   0.417857   0.339912  -0.049145  -0.007589  -0.063263
     8  H    0.417857   0.550736  -0.061639   0.001722  -0.000398  -0.002584
     9  C    0.339912  -0.061639   5.182403   0.317311  -0.052864  -0.006584
    10  C   -0.049145   0.001722   0.317311   5.126729   0.332688  -0.059733
    11  C   -0.007589  -0.000398  -0.052864   0.332688   5.123215   0.330809
    12  C   -0.063263  -0.002584  -0.006584  -0.059733   0.330809   5.135987
    13  C    0.338431  -0.042262  -0.048011  -0.002131  -0.047902   0.366298
    14  H   -0.039264  -0.000908   0.003831  -0.000393   0.003942  -0.040735
    15  N   -0.056506   0.004048  -0.012777   0.001472  -0.007624  -0.073216
    16  C   -0.003753   0.000133  -0.001342   0.000011  -0.000015   0.003026
    17  H    0.001466   0.000001  -0.000065   0.000001   0.000000   0.000001
    18  H   -0.027637  -0.002015   0.000709  -0.000119   0.000011  -0.000125
    19  H   -0.035089   0.004181   0.385122  -0.032360  -0.002360   0.000679
    20  H   -0.041423  -0.001938   0.397419  -0.037513   0.004153  -0.000352
    21  H    0.004021  -0.000083  -0.035818   0.400218  -0.035882   0.004196
    22  H   -0.004083   0.003508  -0.045708   0.396020  -0.045620  -0.001265
    23  H    0.000392   0.000034  -0.002019  -0.040104   0.396762  -0.036789
    24  H   -0.000140  -0.000094   0.004392  -0.038486   0.400291  -0.037830
    25  H    0.004907  -0.000003  -0.000365   0.004097  -0.034130   0.395818
    26  H   -0.004444   0.001711   0.000999  -0.002371  -0.042329   0.394837
    27  H   -0.000411   0.000010  -0.000066   0.000006   0.000003  -0.000019
              13         14         15         16         17         18
     1  O   -0.000026  -0.000005  -0.000020   0.004687   0.000104   0.000000
     2  N   -0.000044  -0.000053   0.001701  -0.029449  -0.003747  -0.000035
     3  O   -0.000004  -0.000000  -0.000014   0.001900   0.011121   0.000007
     4  C   -0.012833   0.003514  -0.062098   0.320193  -0.029552   0.000853
     5  C    0.000312   0.005294  -0.003567  -0.039977   0.379144  -0.023221
     6  N   -0.042382  -0.005629   0.001616  -0.001793  -0.035532   0.327147
     7  C    0.338431  -0.039264  -0.056506  -0.003753   0.001466  -0.027637
     8  H   -0.042262  -0.000908   0.004048   0.000133   0.000001  -0.002015
     9  C   -0.048011   0.003831  -0.012777  -0.001342  -0.000065   0.000709
    10  C   -0.002131  -0.000393   0.001472   0.000011   0.000001  -0.000119
    11  C   -0.047902   0.003942  -0.007624  -0.000015   0.000000   0.000011
    12  C    0.366298  -0.040735  -0.073216   0.003026   0.000001  -0.000125
    13  C    5.033028   0.400081   0.237990  -0.071512  -0.000043   0.003521
    14  H    0.400081   0.519050  -0.035776  -0.004576   0.000106   0.000007
    15  N    0.237990  -0.035776   6.923708   0.583957  -0.000078  -0.000120
    16  C   -0.071512  -0.004576   0.583957   4.708426   0.001801  -0.000250
    17  H   -0.000043   0.000106  -0.000078   0.001801   0.391588  -0.001538
    18  H    0.003521   0.000007  -0.000120  -0.000250  -0.001538   0.323278
    19  H   -0.006405   0.000065   0.006943   0.002759   0.000011  -0.000113
    20  H    0.003824  -0.000047   0.000071  -0.000031   0.000000   0.003093
    21  H   -0.000361   0.000009  -0.000025   0.000002  -0.000000  -0.000000
    22  H    0.000330  -0.000045  -0.000001  -0.000002   0.000000   0.000002
    23  H   -0.005669   0.000007   0.006593   0.000016   0.000000   0.000000
    24  H    0.004116  -0.000057   0.000052   0.000006   0.000000  -0.000000
    25  H   -0.034689  -0.002640   0.000445  -0.000065  -0.000000   0.000002
    26  H   -0.044603  -0.000951   0.004140  -0.000079   0.000000  -0.000001
    27  H    0.004977  -0.000194  -0.039315   0.401550  -0.000056   0.000003
              19         20         21         22         23         24
     1  O    0.000000   0.000000  -0.000000  -0.000000   0.000000  -0.000000
     2  N    0.000000  -0.000000  -0.000000   0.000000  -0.000000   0.000000
     3  O    0.000000   0.000000   0.000000  -0.000000   0.000000   0.000000
     4  C   -0.000579  -0.000016   0.000000  -0.000000   0.000024   0.000000
     5  C    0.000434   0.000041   0.000001  -0.000002  -0.000000  -0.000000
     6  N    0.000956  -0.002144  -0.000056  -0.000097  -0.000024   0.000004
     7  C   -0.035089  -0.041423   0.004021  -0.004083   0.000392  -0.000140
     8  H    0.004181  -0.001938  -0.000083   0.003508   0.000034  -0.000094
     9  C    0.385122   0.397419  -0.035818  -0.045708  -0.002019   0.004392
    10  C   -0.032360  -0.037513   0.400218   0.396020  -0.040104  -0.038486
    11  C   -0.002360   0.004153  -0.035882  -0.045620   0.396762   0.400291
    12  C    0.000679  -0.000352   0.004196  -0.001265  -0.036789  -0.037830
    13  C   -0.006405   0.003824  -0.000361   0.000330  -0.005669   0.004116
    14  H    0.000065  -0.000047   0.000009  -0.000045   0.000007  -0.000057
    15  N    0.006943   0.000071  -0.000025  -0.000001   0.006593   0.000052
    16  C    0.002759  -0.000031   0.000002  -0.000002   0.000016   0.000006
    17  H    0.000011   0.000000  -0.000000   0.000000   0.000000   0.000000
    18  H   -0.000113   0.003093  -0.000000   0.000002   0.000000  -0.000000
    19  H    0.507823  -0.024197  -0.002609   0.003764   0.001649  -0.000068
    20  H   -0.024197   0.550804  -0.002586  -0.002993  -0.000050  -0.000090
    21  H   -0.002609  -0.002586   0.526327  -0.024716  -0.002822  -0.002048
    22  H    0.003764  -0.002993  -0.024716   0.568385   0.004067  -0.003599
    23  H    0.001649  -0.000050  -0.002822   0.004067   0.510459  -0.025031
    24  H   -0.000068  -0.000090  -0.002048  -0.003599  -0.025031   0.541056
    25  H   -0.000027   0.000011  -0.000086  -0.000082  -0.002121  -0.002367
    26  H    0.000024  -0.000036  -0.000075   0.002476   0.003829  -0.002789
    27  H    0.000080  -0.000000  -0.000000   0.000000  -0.000020  -0.000000
              25         26         27
     1  O    0.000000  -0.000000   0.004471
     2  N   -0.000000  -0.000000  -0.000267
     3  O    0.000000   0.000000  -0.000014
     4  C    0.000017   0.000009  -0.064768
     5  C   -0.000000  -0.000001   0.002152
     6  N   -0.000070  -0.000066   0.000100
     7  C    0.004907  -0.004444  -0.000411
     8  H   -0.000003   0.001711   0.000010
     9  C   -0.000365   0.000999  -0.000066
    10  C    0.004097  -0.002371   0.000006
    11  C   -0.034130  -0.042329   0.000003
    12  C    0.395818   0.394837  -0.000019
    13  C   -0.034689  -0.044603   0.004977
    14  H   -0.002640  -0.000951  -0.000194
    15  N    0.000445   0.004140  -0.039315
    16  C   -0.000065  -0.000079   0.401550
    17  H   -0.000000   0.000000  -0.000056
    18  H    0.000002  -0.000001   0.000003
    19  H   -0.000027   0.000024   0.000080
    20  H    0.000011  -0.000036  -0.000000
    21  H   -0.000086  -0.000075  -0.000000
    22  H   -0.000082   0.002476   0.000000
    23  H   -0.002121   0.003829  -0.000020
    24  H   -0.002367  -0.002789  -0.000000
    25  H    0.511232  -0.023068  -0.000008
    26  H   -0.023068   0.559832   0.000001
    27  H   -0.000008   0.000001   0.456497
 Mulliken charges:
               1
     1  O   -0.456368
     2  N    0.502821
     3  O   -0.484001
     4  C   -0.018515
     5  C    0.197192
     6  N   -0.802022
     7  C    0.068368
     8  H    0.177932
     9  C   -0.312917
    10  C   -0.321114
    11  C   -0.315001
    12  C   -0.312597
    13  C   -0.034030
    14  H    0.195367
    15  N   -0.481599
    16  C    0.124378
    17  H    0.285267
    18  H    0.396540
    19  H    0.189316
    20  H    0.154001
    21  H    0.172394
    22  H    0.149660
    23  H    0.190815
    24  H    0.162683
    25  H    0.183191
    26  H    0.152952
    27  H    0.235287
 Sum of Mulliken charges =  -0.00000
 Mulliken charges with hydrogens summed into heavy atoms:
               1
     1  O   -0.456368
     2  N    0.502821
     3  O   -0.484001
     4  C   -0.018515
     5  C    0.482459
     6  N   -0.405482
     7  C    0.246300
     9  C    0.030400
    10  C    0.000940
    11  C    0.038497
    12  C    0.023546
    13  C    0.161338
    15  N   -0.481599
    16  C    0.359665
 Electronic spatial extent (au):  <R**2>=           3110.9392
 Charge=             -0.0000 electrons
 Dipole moment (field-independent basis, Debye):
    X=              5.2539    Y=              4.5180    Z=              0.0681  Tot=              6.9297
 Quadrupole moment (field-independent basis, Debye-Ang):
   XX=           -104.9582   YY=            -80.6292   ZZ=            -82.1506
   XY=             -2.5627   XZ=              2.6549   YZ=             -0.3891
 Traceless Quadrupole moment (field-independent basis, Debye-Ang):
   XX=            -15.7122   YY=              8.6168   ZZ=              7.0954
   XY=             -2.5627   XZ=              2.6549   YZ=             -0.3891
 Octapole moment (field-independent basis, Debye-Ang**2):
  XXX=             97.2592  YYY=             38.3395  ZZZ=             -8.0607  XYY=             -1.1261
  XXY=             14.3143  XXZ=             -9.5018  XZZ=             -8.4948  YZZ=             -2.7233
  YYZ=             -1.5781  XYZ=             -2.0049
 Hexadecapole moment (field-independent basis, Debye-Ang**3):
 XXXX=          -3522.8292 YYYY=           -623.3052 ZZZZ=           -300.4975 XXXY=            -61.6448
 XXXZ=             92.9114 YYYX=            -36.9542 YYYZ=              8.1821 ZZZX=             54.3222
 ZZZY=             12.4738 XXYY=           -653.3942 XXZZ=           -543.1316 YYZZ=           -164.1137
 XXYZ=              2.6833 YYXZ=             21.8586 ZZXY=             -0.2307
 N-N= 9.185742120510D+02 E-N=-3.383169008301D+03  KE= 6.588543343738D+02
 Calling FoFJK, ICntrl=  10002127 FMM=F ISym2X=0 I1Cent= 0 IOpClX= 0 NMat=1 NMatS=1 NMatT=0.
 -------------------------------------------------------------------
 Center     Atomic                   Forces (Hartrees/Bohr)
 Number     Number              X              Y              Z
 -------------------------------------------------------------------
      1        8           0.002758510   -0.019431197   -0.004906952
      2        7           0.038443138    0.016004341   -0.004355294
      3        8          -0.005758129    0.015132510    0.004608502
      4        6          -0.003458287    0.014552323    0.007892327
      5        6           0.002060712   -0.019352224   -0.004993121
      6        7           0.015519737   -0.012560743   -0.005124545
      7        6          -0.005323981    0.005400264    0.003508897
      8        1          -0.008883940   -0.002092351   -0.007788735
      9        6          -0.004433402   -0.000351224   -0.002349601
     10        6           0.002898770   -0.000717967    0.001270563
     11        6          -0.001337260   -0.004758177   -0.002671027
     12        6           0.001192485   -0.008402375   -0.002667685
     13        6           0.010486983   -0.003191883    0.006508349
     14        1           0.000529997    0.004987712   -0.009938413
     15        7          -0.000284992    0.006339519   -0.005435863
     16        6          -0.020756169    0.001377865    0.011351517
     17        1           0.006258192   -0.004975432   -0.008286362
     18        1          -0.016746106   -0.001495890    0.007868412
     19        1           0.002969495    0.006009226    0.007805809
     20        1          -0.003435448   -0.007207187    0.002514536
     21        1          -0.004748063    0.002423036    0.009445401
     22        1          -0.003694399   -0.003978790   -0.007591249
     23        1           0.003805053    0.006149257    0.009423025
     24        1          -0.009269762    0.002723474   -0.002457610
     25        1          -0.000548716    0.010548934   -0.002322412
     26        1          -0.004716261   -0.004837275   -0.004554685
     27        1           0.006471843    0.001704254    0.003246217
 -------------------------------------------------------------------
 Cartesian Forces:  Max     0.038443138 RMS     0.008731514

 GradGradGradGradGradGradGradGradGradGradGradGradGradGradGradGradGradGrad
 Berny optimization.
 FormGI is forming the generalized inverse of G from B-inverse, IUseBI=4.
 Internal  Forces:  Max     0.037459091 RMS     0.006841454
 Search for a local minimum.
 Step number   1 out of a maximum of   20
 All quantities printed in internal units (Hartrees-Bohrs-Radians)
 Mixed Optimization -- RFO/linear search
 Second derivative matrix not updated -- first step.
 ITU=  0
     Eigenvalues ---    0.00230   0.00763   0.01081   0.01146   0.01186
     Eigenvalues ---    0.01524   0.01629   0.01863   0.02005   0.02076
     Eigenvalues ---    0.02668   0.03619   0.04494   0.04680   0.04836
     Eigenvalues ---    0.05072   0.05135   0.05300   0.05886   0.06263
     Eigenvalues ---    0.07191   0.07711   0.07735   0.07890   0.07993
     Eigenvalues ---    0.08055   0.08093   0.10464   0.11746   0.12264
     Eigenvalues ---    0.13384   0.15319   0.15773   0.15976   0.16007
     Eigenvalues ---    0.20047   0.21742   0.22655   0.24953   0.25000
     Eigenvalues ---    0.25000   0.25315   0.26073   0.26652   0.27985
     Eigenvalues ---    0.28093   0.28416   0.29955   0.30973   0.31475
     Eigenvalues ---    0.32031   0.32233   0.32286   0.32378   0.32387
     Eigenvalues ---    0.32407   0.32509   0.32523   0.32570   0.33182
     Eigenvalues ---    0.33389   0.33616   0.35177   0.43878   0.44074
     Eigenvalues ---    0.48498   0.66234   0.90496   0.912141000.00000
     Eigenvalues --- 1000.000001000.000001000.000001000.000001000.00000
     Eigenvalues --- 1000.000001000.000001000.000001000.000001000.00000
     Eigenvalues --- 1000.000001000.000001000.000001000.000001000.00000
     Eigenvalues --- 1000.000001000.000001000.000001000.000001000.00000
     Eigenvalues --- 1000.000001000.000001000.000001000.000001000.00000
     Eigenvalues --- 1000.000001000.000001000.000001000.000001000.00000
     Eigenvalues --- 1000.000001000.000001000.000001000.000001000.00000
     Eigenvalues --- 1000.000001000.000001000.000001000.000001000.00000
     Eigenvalues --- 1000.000001000.000001000.000001000.000001000.00000
     Eigenvalues --- 1000.000001000.000001000.000001000.000001000.00000
     Eigenvalues --- 1000.000001000.000001000.000001000.000001000.00000
     Eigenvalues --- 1000.000001000.000001000.000001000.000001000.00000
     Eigenvalues --- 1000.000001000.000001000.000001000.000001000.00000
     Eigenvalues --- 1000.000001000.000001000.000001000.000001000.00000
     Eigenvalues --- 1000.000001000.000001000.000001000.000001000.00000
     Eigenvalues --- 1000.000001000.000001000.000001000.000001000.00000
     Eigenvalues --- 1000.000001000.000001000.000001000.000001000.00000
     Eigenvalues --- 1000.000001000.000001000.000001000.000001000.00000
     Eigenvalues --- 1000.00000
 RFO step:  Lambda=-2.39225622D-02 EMin= 2.30127233D-03
 Linear search not attempted -- first point.
 Iteration  1 RMS(Cart)=  0.05469163 RMS(Int)=  0.00101034
 Iteration  2 RMS(Cart)=  0.00110454 RMS(Int)=  0.00022711
 Iteration  3 RMS(Cart)=  0.00000109 RMS(Int)=  0.00022710
 Iteration  4 RMS(Cart)=  0.00000000 RMS(Int)=  0.00022710
 Iteration  1 RMS(Cart)=  0.00004360 RMS(Int)=  0.00003107
 Iteration  2 RMS(Cart)=  0.00001973 RMS(Int)=  0.00003458
 Iteration  3 RMS(Cart)=  0.00000948 RMS(Int)=  0.00003830
 Iteration  4 RMS(Cart)=  0.00000493 RMS(Int)=  0.00004055
 Iteration  5 RMS(Cart)=  0.00000282 RMS(Int)=  0.00004185
 Iteration  6 RMS(Cart)=  0.00000177 RMS(Int)=  0.00004261
 Iteration  7 RMS(Cart)=  0.00000123 RMS(Int)=  0.00004307
 Iteration  8 RMS(Cart)=  0.00000092 RMS(Int)=  0.00004336
 Variable       Old X    -DE/DX   Delta X   Delta X   Delta X     New X
                                 (Linear)    (Quad)   (Total)
    R1        2.32379   0.01847   0.00000   0.01973   0.01973   2.34351
    R2        2.32705   0.01582   0.00000   0.01704   0.01704   2.34409
    R3        2.88053  -0.03746   0.00000  -0.11580  -0.11580   2.76473
    R4        2.64550  -0.03661   0.00000  -0.07949  -0.07928   2.56622
    R5        2.80794  -0.01869   0.00000  -0.05364  -0.05343   2.75451
    R6        2.59410  -0.02284   0.00000  -0.04506  -0.04500   2.54910
    R7        2.08373  -0.01000   0.00000  -0.02795  -0.02795   2.05578
    R8        2.83092  -0.01974   0.00000  -0.05516  -0.05525   2.77567
    R9        1.93301  -0.00696   0.00000  -0.01505  -0.01505   1.91796
   R10        2.11816  -0.01137   0.00000  -0.03359  -0.03359   2.08457
   R11        2.92661  -0.01329   0.00000  -0.04518  -0.04523   2.88138
   R12        2.90719  -0.00617   0.00000  -0.01330  -0.01331   2.89388
   R13        2.91095  -0.00467   0.00000  -0.01400  -0.01402   2.89692
   R14        2.09922  -0.01009   0.00000  -0.02891  -0.02891   2.07031
   R15        2.09898  -0.00794   0.00000  -0.02274  -0.02274   2.07624
   R16        2.90413  -0.00200   0.00000  -0.00734  -0.00739   2.89674
   R17        2.10141  -0.01059   0.00000  -0.03046  -0.03046   2.07095
   R18        2.10323  -0.00904   0.00000  -0.02607  -0.02607   2.07716
   R19        2.91798  -0.00905   0.00000  -0.02868  -0.02864   2.88935
   R20        2.10419  -0.01174   0.00000  -0.03392  -0.03392   2.07028
   R21        2.10106  -0.00995   0.00000  -0.02858  -0.02858   2.07248
   R22        2.93567  -0.01041   0.00000  -0.03632  -0.03630   2.89938
   R23        2.10158  -0.01065   0.00000  -0.03064  -0.03064   2.07095
   R24        2.09813  -0.00792   0.00000  -0.02266  -0.02266   2.07547
   R25        2.10788  -0.00892   0.00000  -0.02592  -0.02592   2.08196
   R26        2.77011  -0.00528   0.00000  -0.01119  -0.01147   2.75863
   R27        2.44435  -0.00738   0.00000  -0.01023  -0.01026   2.43409
   R28        2.07984  -0.00606   0.00000  -0.01684  -0.01684   2.06300
    A1        2.16155   0.01076   0.00000   0.03932   0.03930   2.20085
    A2        2.05241  -0.00835   0.00000  -0.03047  -0.03049   2.02193
    A3        2.06921  -0.00241   0.00000  -0.00879  -0.00881   2.06040
    A4        2.04262  -0.00583   0.00000  -0.02038  -0.02088   2.02175
    A5        2.04043  -0.00373   0.00000  -0.01244  -0.01301   2.02743
    A6        2.19838   0.00949   0.00000   0.02977   0.02952   2.22790
    A7        2.18460   0.00521   0.00000   0.01474   0.01488   2.19948
    A8        2.06954  -0.00277   0.00000  -0.00808  -0.00821   2.06133
    A9        2.02747  -0.00236   0.00000  -0.00573  -0.00588   2.02158
   A10        2.24165  -0.00385   0.00000  -0.01290  -0.01309   2.22856
   A11        2.12863  -0.01279   0.00000  -0.07235  -0.07249   2.05614
   A12        1.88815   0.01679   0.00000   0.08950   0.08970   1.97785
   A13        1.83619  -0.00079   0.00000  -0.01521  -0.01503   1.82115
   A14        2.00702  -0.00214   0.00000  -0.01424  -0.01414   1.99287
   A15        1.96646   0.00137   0.00000   0.00710   0.00656   1.97302
   A16        1.85111   0.00265   0.00000   0.02282   0.02265   1.87376
   A17        1.84794   0.00025   0.00000   0.01206   0.01198   1.85992
   A18        1.94057  -0.00100   0.00000  -0.00910  -0.00874   1.93183
   A19        1.91129   0.00001   0.00000  -0.00465  -0.00481   1.90647
   A20        1.92236  -0.00068   0.00000  -0.01158  -0.01153   1.91082
   A21        1.92286  -0.00160   0.00000  -0.00813  -0.00810   1.91476
   A22        1.91876  -0.00026   0.00000   0.00670   0.00669   1.92545
   A23        1.90391   0.00298   0.00000   0.02325   0.02327   1.92718
   A24        1.88444  -0.00042   0.00000  -0.00519  -0.00545   1.87899
   A25        1.94032  -0.00089   0.00000   0.00580   0.00566   1.94598
   A26        1.91911  -0.00074   0.00000  -0.00665  -0.00666   1.91245
   A27        1.90497   0.00038   0.00000  -0.00296  -0.00301   1.90196
   A28        1.91616   0.00090   0.00000   0.00735   0.00740   1.92356
   A29        1.89842   0.00159   0.00000   0.01053   0.01057   1.90899
   A30        1.88382  -0.00123   0.00000  -0.01456  -0.01464   1.86918
   A31        1.94520   0.00031   0.00000   0.00440   0.00455   1.94975
   A32        1.90211   0.00070   0.00000   0.00549   0.00542   1.90753
   A33        1.91774   0.00046   0.00000   0.00555   0.00553   1.92326
   A34        1.90566  -0.00087   0.00000  -0.01285  -0.01290   1.89276
   A35        1.91549  -0.00049   0.00000  -0.00024  -0.00033   1.91516
   A36        1.87625  -0.00013   0.00000  -0.00270  -0.00273   1.87353
   A37        1.95188  -0.00290   0.00000  -0.01833  -0.01834   1.93354
   A38        1.90543   0.00254   0.00000   0.01700   0.01684   1.92227
   A39        1.90938   0.00140   0.00000   0.01372   0.01370   1.92308
   A40        1.90544   0.00015   0.00000  -0.00236  -0.00219   1.90325
   A41        1.90999  -0.00022   0.00000  -0.00516  -0.00511   1.90488
   A42        1.88032  -0.00090   0.00000  -0.00439  -0.00458   1.87574
   A43        1.84629   0.00443   0.00000   0.02509   0.02513   1.87142
   A44        1.94456  -0.00439   0.00000  -0.03413  -0.03465   1.90992
   A45        1.97360   0.00056   0.00000   0.00633   0.00641   1.98001
   A46        1.87480   0.00246   0.00000   0.03420   0.03457   1.90938
   A47        1.89221  -0.00310   0.00000  -0.02517  -0.02515   1.86705
   A48        1.92723   0.00034   0.00000  -0.00325  -0.00322   1.92401
   A49        2.06132  -0.00581   0.00000  -0.01441  -0.01469   2.04662
   A50        2.22835  -0.00308   0.00000  -0.01437  -0.01423   2.21411
   A51        1.98469   0.00618   0.00000   0.03241   0.03212   2.01681
   A52        2.06801  -0.00284   0.00000  -0.01607  -0.01637   2.05165
    D1       -3.05708  -0.00120   0.00000  -0.05078  -0.04980  -3.10687
    D2        0.14413  -0.00043   0.00000   0.00000  -0.00000   0.14413
    D3        0.09044  -0.00132   0.00000  -0.06102  -0.06053   0.02991
    D4       -2.99154  -0.00055   0.00000  -0.01024  -0.01073  -3.00227
    D5        3.06198   0.00028   0.00000   0.01153   0.01155   3.07354
    D6       -0.01682  -0.00106   0.00000  -0.00660  -0.00658  -0.02340
    D7       -0.14530  -0.00115   0.00000  -0.04627  -0.04686  -0.19216
    D8        3.05909  -0.00249   0.00000  -0.06440  -0.06500   2.99409
    D9       -2.51966  -0.00423   0.00000  -0.05800  -0.05883  -2.57849
   D10        0.55000   0.00008   0.00000  -0.02521  -0.02558   0.52442
   D11        0.68755  -0.00274   0.00000   0.00000   0.00000   0.68755
   D12       -2.52598   0.00157   0.00000   0.03279   0.03326  -2.49273
   D13       -0.28141   0.00079   0.00000   0.04935   0.04944  -0.23197
   D14        2.59389   0.00381   0.00000   0.08378   0.08303   2.67692
   D15        2.79875   0.00208   0.00000   0.06698   0.06711   2.86586
   D16       -0.60914   0.00509   0.00000   0.10142   0.10070  -0.50843
   D17       -2.33417  -0.00120   0.00000  -0.03170  -0.03134  -2.36551
   D18        1.91925  -0.00279   0.00000  -0.04211  -0.04184   1.87742
   D19       -0.32904  -0.00069   0.00000  -0.02276  -0.02274  -0.35177
   D20        1.04464  -0.00060   0.00000  -0.04420  -0.04457   1.00007
   D21       -0.98512  -0.00220   0.00000  -0.05461  -0.05506  -1.04019
   D22        3.04977  -0.00009   0.00000  -0.03526  -0.03596   3.01381
   D23        2.94498   0.00228   0.00000   0.01979   0.01972   2.96470
   D24       -1.22608   0.00154   0.00000   0.01778   0.01772  -1.20836
   D25        0.85090  -0.00040   0.00000  -0.00090  -0.00088   0.85002
   D26        0.92375   0.00268   0.00000   0.03129   0.03128   0.95504
   D27        3.03588   0.00194   0.00000   0.02928   0.02928   3.06516
   D28       -1.17032  -0.00001   0.00000   0.01059   0.01068  -1.15964
   D29       -1.07713   0.00139   0.00000   0.00880   0.00875  -1.06838
   D30        1.03500   0.00065   0.00000   0.00679   0.00674   1.04174
   D31        3.11198  -0.00129   0.00000  -0.01190  -0.01186   3.10012
   D32       -2.90543  -0.00177   0.00000  -0.01118  -0.01098  -2.91642
   D33       -0.87345   0.00148   0.00000   0.02658   0.02632  -0.84713
   D34        1.30938  -0.00112   0.00000   0.00000   0.00000   1.30938
   D35       -0.90742  -0.00187   0.00000  -0.01869  -0.01856  -0.92598
   D36        1.12457   0.00138   0.00000   0.01907   0.01874   1.14331
   D37       -2.97579  -0.00123   0.00000  -0.00751  -0.00757  -2.98336
   D38        1.09544   0.00091   0.00000   0.01048   0.01059   1.10603
   D39        3.12742   0.00416   0.00000   0.04825   0.04789  -3.10787
   D40       -0.97293   0.00155   0.00000   0.02167   0.02158  -0.95135
   D41        0.95665   0.00054   0.00000   0.00000   0.00001   0.95666
   D42        3.08237   0.00058   0.00000   0.00863   0.00859   3.09095
   D43       -1.13748  -0.00112   0.00000  -0.01477  -0.01473  -1.15221
   D44       -1.15765   0.00154   0.00000   0.01305   0.01313  -1.14452
   D45        0.96807   0.00158   0.00000   0.02168   0.02170   0.98977
   D46        3.03141  -0.00012   0.00000  -0.00172  -0.00162   3.02979
   D47        3.06228   0.00042   0.00000   0.00153   0.00149   3.06377
   D48       -1.09518   0.00047   0.00000   0.01016   0.01007  -1.08512
   D49        0.96816  -0.00124   0.00000  -0.01323  -0.01325   0.95490
   D50       -0.92192  -0.00094   0.00000   0.00000   0.00001  -0.92191
   D51        1.18240  -0.00137   0.00000  -0.00962  -0.00963   1.17278
   D52       -3.04912  -0.00085   0.00000  -0.00646  -0.00650  -3.05561
   D53       -3.04937  -0.00003   0.00000  -0.00046  -0.00044  -3.04980
   D54       -0.94504  -0.00046   0.00000  -0.01008  -0.01008  -0.95511
   D55        1.10663   0.00006   0.00000  -0.00692  -0.00695   1.09968
   D56        1.17608   0.00000   0.00000   0.00672   0.00675   1.18284
   D57       -3.00277  -0.00042   0.00000  -0.00290  -0.00288  -3.00566
   D58       -0.95111   0.00009   0.00000   0.00026   0.00024  -0.95086
   D59        0.98598  -0.00071   0.00000  -0.01281  -0.01288   0.97310
   D60        3.09651  -0.00068   0.00000  -0.01612  -0.01628   3.08023
   D61       -1.13298   0.00051   0.00000  -0.00365  -0.00363  -1.13661
   D62       -1.11627  -0.00121   0.00000  -0.01397  -0.01397  -1.13024
   D63        0.99426  -0.00118   0.00000  -0.01728  -0.01738   0.97688
   D64        3.04796   0.00002   0.00000  -0.00480  -0.00473   3.04323
   D65        3.11447  -0.00026   0.00000  -0.00302  -0.00303   3.11144
   D66       -1.05818  -0.00023   0.00000  -0.00633  -0.00644  -1.06462
   D67        0.99552   0.00096   0.00000   0.00615   0.00622   1.00173
   D68       -1.04495   0.00002   0.00000   0.00034   0.00046  -1.04449
   D69       -3.12366   0.00160   0.00000   0.00995   0.00953  -3.11413
   D70        1.07676   0.00152   0.00000   0.00848   0.00835   1.08511
   D71        3.12771  -0.00139   0.00000  -0.00759  -0.00738   3.12033
   D72        1.04900   0.00019   0.00000   0.00202   0.00169   1.05069
   D73       -1.03376   0.00011   0.00000   0.00056   0.00051  -1.03325
   D74        1.07365  -0.00027   0.00000   0.00207   0.00232   1.07596
   D75       -1.00506   0.00131   0.00000   0.01168   0.01139  -0.99367
   D76       -3.08782   0.00124   0.00000   0.01022   0.01021  -3.07762
   D77       -1.17217   0.00303   0.00000   0.00000   0.00001  -1.17216
   D78        3.06951  -0.00078   0.00000  -0.01848  -0.01840   3.05111
   D79        1.02001  -0.00211   0.00000  -0.04307  -0.04338   0.97663
   D80       -0.00333   0.00576   0.00000   0.02845   0.02823   0.02490
   D81       -3.06998   0.00095   0.00000  -0.00744  -0.00735  -3.07733
         Item               Value     Threshold  Converged?
 Maximum Force            0.037459     0.000450     NO 
 RMS     Force            0.006943     0.000300     NO 
 Maximum Displacement     0.262186     0.001800     NO 
 RMS     Displacement     0.055035     0.001200     NO 
 Predicted change in Energy=-1.356776D-02
 GradGradGradGradGradGradGradGradGradGradGradGradGradGradGradGradGradGrad

                          Input orientation:                          
 ---------------------------------------------------------------------
 Center     Atomic      Atomic             Coordinates (Angstroms)
 Number     Number       Type             X           Y           Z
 ---------------------------------------------------------------------
      1          8           0       -3.432059   -1.480015   -0.113467
      2          7           0       -3.112809   -0.300008    0.095326
      3          8           0       -3.885497    0.625547    0.386851
      4          6           0       -1.685559    0.003184   -0.011892
      5          6           0       -1.331139    1.286048    0.257864
      6          7           0       -0.072756    1.770602    0.293626
      7          6           0        1.182514    1.008400    0.321598
      8          1           0        1.792139    1.513912    1.089490
      9          6           0        1.968579    1.051344   -0.984216
     10          6           0        3.357808    0.444127   -0.757552
     11          6           0        3.264295   -0.968689   -0.170230
     12          6           0        2.391944   -1.002845    1.085004
     13          6           0        0.996132   -0.436474    0.793530
     14          1           0        0.397099   -0.445644    1.718126
     15          7           0        0.386477   -1.301795   -0.211743
     16          6           0       -0.838885   -1.064304   -0.529851
     17          1           0       -2.118711    1.993452    0.508417
     18          1           0        0.060517    2.757177    0.096101
     19          1           0        1.428763    0.489361   -1.754301
     20          1           0        2.056225    2.090555   -1.329903
     21          1           0        3.909031    0.424776   -1.704535
     22          1           0        3.921593    1.088890   -0.068615
     23          1           0        2.826369   -1.642121   -0.915164
     24          1           0        4.266103   -1.348115    0.064686
     25          1           0        2.291753   -2.032388    1.446935
     26          1           0        2.858728   -0.415330    1.886991
     27          1           0       -1.318643   -1.745675   -1.235086
 ---------------------------------------------------------------------
                    Distance matrix (angstroms):
                    1          2          3          4          5
     1  O    0.000000
     2  N    1.240134   0.000000
     3  O    2.211180   1.240438   0.000000
     4  C    2.293569   1.463032   2.320789   0.000000
     5  C    3.493258   2.390886   2.641523   1.357984   0.000000
     6  N    4.692244   3.683568   3.982065   2.412103   1.348926
     7  C    5.260777   4.495880   5.082871   3.057371   2.529744
     8  H    6.140273   5.323268   5.789512   3.948382   3.240122
     9  C    6.027675   5.367687   6.027548   3.923872   3.533551
    10  C    7.086568   6.568867   7.335396   5.117224   4.870947
    11  C    6.716087   6.417563   7.346527   5.046847   5.136644
    12  C    5.965152   5.636999   6.522680   4.340657   4.447982
    13  C    4.639019   4.170073   5.012343   2.834338   2.944522
    14  H    4.368879   3.869644   4.610897   2.744425   2.849198
    15  N    3.823955   3.652790   4.724693   2.456877   3.141284
    16  C    2.659086   2.479058   3.602470   1.457625   2.527244
    17  H    3.765182   2.533542   2.237739   2.102263   1.087873
    18  H    5.495070   4.406401   4.494375   3.262655   2.031525
    19  H    5.495304   4.966900   5.731007   3.601577   3.507218
    20  H    6.659575   5.870688   6.355907   4.482768   3.826548
    21  H    7.749279   7.284988   8.072724   5.860223   5.661464
    22  H    7.789575   7.172079   7.834079   5.711578   5.266560
    23  H    6.311649   6.172212   7.203243   4.886760   5.218720
    24  H    7.701352   7.453040   8.393314   6.103618   6.189123
    25  H    5.958355   5.834148   6.807850   4.700079   5.054825
    26  H    6.686507   6.235593   6.987018   4.942818   4.806633
    27  H    2.407308   2.660636   3.852547   2.165488   3.379407
                    6          7          8          9         10
     6  N    0.000000
     7  C    1.468822   0.000000
     8  H    2.043800   1.103106   0.000000
     9  C    2.513416   1.524760   2.131984   0.000000
    10  C    3.825347   2.492964   2.647135   1.532986   0.000000
    11  C    4.342210   2.912831   3.149198   2.534164   1.532887
    12  C    3.793815   2.467917   2.587248   2.946286   2.534094
    13  C    2.502720   1.531378   2.127257   2.513888   2.959531
    14  H    2.676137   2.163657   2.486198   3.466002   3.960615
    15  N    3.147366   2.501025   3.405481   2.938881   3.489263
    16  C    3.049879   3.017801   4.023898   3.544611   4.465360
    17  H    2.069235   3.450119   3.982757   4.452130   5.830553
    18  H    1.014942   2.089964   2.351817   2.778066   4.117165
    19  H    2.844317   2.153926   3.044485   1.095562   2.171812
    20  H    2.696437   2.159140   2.501143   1.098700   2.175414
    21  H    4.653871   3.446698   3.670698   2.162591   1.095900
    22  H    4.068264   2.767905   2.460980   2.157313   1.099185
    23  H    4.638187   3.355160   3.879280   2.827601   2.158634
    24  H    5.348318   3.889432   3.919428   3.483707   2.170992
    25  H    4.624257   3.426833   3.599115   3.940093   3.482723
    26  H    3.988822   2.699473   2.344269   3.344746   2.825130
    27  H    4.031550   4.032862   5.070061   4.323433   5.185794
                   11         12         13         14         15
    11  C    0.000000
    12  C    1.528978   0.000000
    13  C    2.521240   1.534283   0.000000
    14  H    3.472790   2.165808   1.101726   0.000000
    15  N    2.897330   2.406828   1.459806   2.111279   0.000000
    16  C    4.120019   3.612449   2.347935   2.638900   1.288063
    17  H    6.181553   5.445757   3.960818   3.707006   4.201577
    18  H    4.921098   4.533348   3.400174   3.605872   4.083659
    19  H    2.829200   3.349037   2.745138   3.741164   2.583426
    20  H    3.487585   3.938731   3.466791   4.298311   3.942889
    21  H    2.170604   3.481548   3.932818   4.980552   4.197364
    22  H    2.162406   2.836550   3.410036   4.239020   4.270000
    23  H    1.095544   2.144311   2.779027   3.777185   2.561972
    24  H    1.096708   2.161650   3.472033   4.303197   3.889737
    25  H    2.166221   1.095897   2.156969   2.486165   2.629649
    26  H    2.168606   1.098292   2.159946   2.467600   3.361923
    27  H    4.768746   4.438814   3.344768   3.654491   2.037570
                   16         17         18         19         20
    16  C    0.000000
    17  H    3.473591   0.000000
    18  H    3.975482   2.345701   0.000000
    19  H    3.009216   4.468418   3.230955   0.000000
    20  H    4.356016   4.562777   2.541795   1.771339   0.000000
    21  H    5.112724   6.609960   4.847004   2.481607   2.519535
    22  H    5.245105   6.134857   4.209302   3.068415   2.464504
    23  H    3.730473   6.300619   5.293998   2.683407   3.833797
    24  H    5.147322   7.220029   5.877190   3.838688   4.318899
    25  H    3.826978   6.044866   5.453723   4.165559   4.976440
    26  H    4.464822   5.698912   4.593699   4.015255   4.155945
    27  H    1.091691   4.202497   4.893854   3.579554   5.110320
                   21         22         23         24         25
    21  H    0.000000
    22  H    1.765627   0.000000
    23  H    2.463194   3.061794   0.000000
    24  H    2.529977   2.464842   1.766177   0.000000
    25  H    4.311033   3.833490   2.453087   2.505374   0.000000
    26  H    3.835098   2.686402   3.059108   2.484268   1.769177
    27  H    5.679772   6.070871   4.158629   5.747768   4.506706
                   26         27
    26  H    0.000000
    27  H    5.382156   0.000000
 Symmetry turned off by external request.
 Stoichiometry    C9H13N3O2
 Framework group  C1[X(C9H13N3O2)]
 Deg. of freedom    75
 Full point group                 C1      NOp   1
 Rotational constants (GHZ):           1.6960106           0.4233357           0.3733998
 Standard basis: 6-31G(d) (6D, 7F)
   236 basis functions,   444 primitive gaussians,   236 cartesian basis functions
    52 alpha electrons       52 beta electrons
       nuclear repulsion energy       932.9917019544 Hartrees.
 NAtoms=   27 NActive=   27 NUniq=   27 SFac= 1.00D+00 NAtFMM=   60 NAOKFM=F Big=F
 Integral buffers will be    131072 words long.
 Raffenetti 1 integral format.
 Two-electron integral symmetry is turned off.
 One-electron integrals computed using PRISM.
 NBasis=   236 RedAO= T EigKep=  1.02D-03  NBF=   236
 NBsUse=   236 1.00D-06 EigRej= -1.00D+00 NBFU=   236
 Initial guess from the checkpoint file:  "/home/alexey/tmp/Gau-1481500.chk"
 B after Tr=     0.052632    0.007267   -0.003196
         Rot=    0.999998   -0.001160    0.001273    0.001366 Ang=  -0.25 deg.
 ExpMin= 1.61D-01 ExpMax= 5.48D+03 ExpMxC= 8.25D+02 IAcc=3 IRadAn=         5 AccDes= 0.00D+00
 Harris functional with IExCor=  205 and IRadAn=       5 diagonalized for initial guess.
 HarFok:  IExCor=  205 AccDes= 0.00D+00 IRadAn=         5 IDoV= 1 UseB2=F ITyADJ=14
 ICtDFT=  3500011 ScaDFX=  1.000000  1.000000  1.000000  1.000000
 FoFCou: FMM=F IPFlag=           0 FMFlag=      100000 FMFlg1=           0
         NFxFlg=           0 DoJE=T BraDBF=F KetDBF=T FulRan=T
         wScrn=  0.000000 ICntrl=       500 IOpCl=  0 I1Cent=   200000004 NGrid=           0
         NMat0=    1 NMatS0=      1 NMatT0=    0 NMatD0=    1 NMtDS0=    0 NMtDT0=    0
 Symmetry not used in FoFCou.
 Keep R1 ints in memory in canonical form, NReq=397720213.
 Requested convergence on RMS density matrix=1.00D-08 within 128 cycles.
 Requested convergence on MAX density matrix=1.00D-06.
 Requested convergence on             energy=1.00D-06.
 No special actions if energy rises.
 SCF Done:  E(RHF) =  -661.295414856     A.U. after   15 cycles
            NFock= 15  Conv=0.35D-08     -V/T= 2.0024
 ExpMin= 1.61D-01 ExpMax= 5.48D+03 ExpMxC= 8.25D+02 IAcc=3 IRadAn=         5 AccDes= 0.00D+00
 HarFok:  IExCor=  205 AccDes= 0.00D+00 IRadAn=         5 IDoV=-2 UseB2=F ITyADJ=14
 ICtDFT= 12500011 ScaDFX=  1.000000  1.000000  1.000000  1.000000
 Range of M.O.s used for correlation:    15   236
 NBasis=   236 NAE=    52 NBE=    52 NFC=    14 NFV=     0
 NROrb=    222 NOA=    38 NOB=    38 NVA=   184 NVB=   184
 Fully direct method using O(ONN) memory.
 JobTyp=1 Pass  1:  I=  15 to  52 NPSUse=  4 ParTrn=T ParDer=T DoDerP=T.
 Spin components of T(2) and E(2):
     alpha-alpha T2 =       0.9120112844D-01 E2=     -0.2722795815D+00
     alpha-beta  T2 =       0.4917254990D+00 E2=     -0.1488558909D+01
     beta-beta   T2 =       0.9120112844D-01 E2=     -0.2722795815D+00
 ANorm=    0.1293880889D+01
 E2 =    -0.2033118072D+01 EUMP2 =    -0.66332853292830D+03
          IDoAtm=111111111111111111111111111
          Differentiating once with respect to electric field.
                with respect to dipole field.
          Differentiating once with respect to nuclear coordinates.
 Keep R1 ints in memory in canonical form, NReq=397723379.
          There are     1 degrees of freedom in the 1st order CPHF.  IDoFFX=0 NUNeed=     1.
 LinEq1:  Iter=  0 NonCon=     1 RMS=4.55D-03 Max=1.05D-01 NDo=     1
 AX will form     1 AO Fock derivatives at one time.
 LinEq1:  Iter=  1 NonCon=     1 RMS=1.53D-03 Max=2.64D-02 NDo=     1
 LinEq1:  Iter=  2 NonCon=     1 RMS=6.37D-04 Max=1.78D-02 NDo=     1
 LinEq1:  Iter=  3 NonCon=     1 RMS=2.79D-04 Max=8.01D-03 NDo=     1
 LinEq1:  Iter=  4 NonCon=     1 RMS=8.60D-05 Max=1.77D-03 NDo=     1
 LinEq1:  Iter=  5 NonCon=     1 RMS=3.60D-05 Max=1.83D-03 NDo=     1
 LinEq1:  Iter=  6 NonCon=     1 RMS=1.39D-05 Max=5.27D-04 NDo=     1
 LinEq1:  Iter=  7 NonCon=     1 RMS=5.39D-06 Max=1.05D-04 NDo=     1
 LinEq1:  Iter=  8 NonCon=     1 RMS=2.16D-06 Max=5.95D-05 NDo=     1
 LinEq1:  Iter=  9 NonCon=     1 RMS=7.95D-07 Max=2.37D-05 NDo=     1
[...]
    18  H    4.054417   2.243456   0.000000
    19  H    2.982613   4.362266   3.482723   0.000000
    20  H    4.353921   4.495678   2.839092   1.768373   0.000000
    21  H    5.093956   6.550687   5.058432   2.498551   2.520674
    22  H    5.235707   6.111832   4.297236   3.070095   2.460109
    23  H    3.709131   6.262083   5.413958   2.705861   3.843073
    24  H    5.139717   7.209132   5.932811   3.850772   4.316379
    25  H    3.826180   6.070749   5.388903   4.173315   4.985127
    26  H    4.486189   5.756696   4.507592   4.039959   4.184680
    27  H    1.089672   4.187279   5.019954   3.548577   5.102664
                   21         22         23         24         25
    21  H    0.000000
    22  H    1.758793   0.000000
    23  H    2.468798   3.061847   0.000000
    24  H    2.517305   2.459329   1.764632   0.000000
    25  H    4.312071   3.840229   2.443931   2.519957   0.000000
    26  H    3.848025   2.706359   3.060456   2.489942   1.767398
    27  H    5.641534   6.044585   4.112763   5.714614   4.484564
                   26         27
    26  H    0.000000
    27  H    5.385198   0.000000
 Symmetry turned off by external request.
 Stoichiometry    C9H13N3O2
 Framework group  C1[X(C9H13N3O2)]
 Deg. of freedom    75
 Full point group                 C1      NOp   1
 Rotational constants (GHZ):           1.6935355           0.4192563           0.3723375

 **********************************************************************

            Population analysis using the SCF Density.

 **********************************************************************

 Alpha  occ. eigenvalues --  -20.59173 -20.58838 -15.84653 -15.64118 -15.56259
 Alpha  occ. eigenvalues --  -11.35061 -11.29677 -11.29553 -11.28499 -11.27155
 Alpha  occ. eigenvalues --  -11.23727 -11.23219 -11.22740 -11.22111  -1.57049
 Alpha  occ. eigenvalues --   -1.36651  -1.30969  -1.23204  -1.14693  -1.09817
 Alpha  occ. eigenvalues --   -1.02819  -1.01298  -0.94418  -0.89630  -0.85608
 Alpha  occ. eigenvalues --   -0.82397  -0.78520  -0.77410  -0.75150  -0.71973
 Alpha  occ. eigenvalues --   -0.69697  -0.69475  -0.67838  -0.64960  -0.63702
 Alpha  occ. eigenvalues --   -0.62456  -0.60309  -0.57635  -0.57083  -0.55052
 Alpha  occ. eigenvalues --   -0.54600  -0.50844  -0.49958  -0.48585  -0.48068
 Alpha  occ. eigenvalues --   -0.47337  -0.46183  -0.46076  -0.43624  -0.41591
 Alpha  occ. eigenvalues --   -0.40137  -0.33899
 Alpha virt. eigenvalues --    0.07524   0.11990   0.17401   0.21770   0.23741
 Alpha virt. eigenvalues --    0.25168   0.27197   0.28421   0.29030   0.29586
 Alpha virt. eigenvalues --    0.30771   0.31812   0.32066   0.32719   0.33899
 Alpha virt. eigenvalues --    0.34342   0.35770   0.37234   0.38540   0.40220
 Alpha virt. eigenvalues --    0.41556   0.42689   0.45271   0.46211   0.46569
 Alpha virt. eigenvalues --    0.47050   0.48896   0.53894   0.57202   0.59081
 Alpha virt. eigenvalues --    0.64034   0.69398   0.70075   0.72826   0.74110
 Alpha virt. eigenvalues --    0.75240   0.75807   0.76841   0.78628   0.79358
 Alpha virt. eigenvalues --    0.81196   0.84950   0.85702   0.86179   0.88337
 Alpha virt. eigenvalues --    0.89486   0.90518   0.91857   0.92746   0.94480
 Alpha virt. eigenvalues --    0.95998   0.98021   0.98735   1.01466   1.02499
 Alpha virt. eigenvalues --    1.03000   1.05827   1.06903   1.07365   1.08722
 Alpha virt. eigenvalues --    1.10051   1.11501   1.11788   1.12417   1.13867
 Alpha virt. eigenvalues --    1.14721   1.14859   1.15992   1.16633   1.18579
 Alpha virt. eigenvalues --    1.19420   1.21011   1.21673   1.23397   1.23887
 Alpha virt. eigenvalues --    1.24971   1.25931   1.27060   1.27819   1.29641
 Alpha virt. eigenvalues --    1.29774   1.32642   1.36114   1.36882   1.39865
 Alpha virt. eigenvalues --    1.41284   1.44415   1.48542   1.50868   1.53233
 Alpha virt. eigenvalues --    1.56683   1.58971   1.59452   1.63033   1.67310
 Alpha virt. eigenvalues --    1.68743   1.69447   1.73269   1.74577   1.77099
 Alpha virt. eigenvalues --    1.81568   1.84546   1.87204   1.90848   1.93860
 Alpha virt. eigenvalues --    1.96145   1.97309   1.99593   2.01327   2.02385
 Alpha virt. eigenvalues --    2.04711   2.05739   2.08632   2.09510   2.12704
 Alpha virt. eigenvalues --    2.14066   2.14947   2.19124   2.20151   2.22580
 Alpha virt. eigenvalues --    2.22832   2.24781   2.25945   2.28213   2.29904
 Alpha virt. eigenvalues --    2.31909   2.33913   2.34949   2.36075   2.38888
 Alpha virt. eigenvalues --    2.40178   2.41652   2.43185   2.44896   2.48047
 Alpha virt. eigenvalues --    2.50502   2.51719   2.53108   2.55365   2.62072
 Alpha virt. eigenvalues --    2.62498   2.65056   2.67612   2.70589   2.71297
 Alpha virt. eigenvalues --    2.72301   2.73814   2.77279   2.78991   2.84447
 Alpha virt. eigenvalues --    2.88019   2.88711   2.92670   2.93384   2.96296
 Alpha virt. eigenvalues --    2.99171   3.01546   3.04099   3.04895   3.07837
 Alpha virt. eigenvalues --    3.09256   3.14701   3.21308   3.25225   3.27166
 Alpha virt. eigenvalues --    3.33878   3.37691   3.39672   3.51763   3.63850
 Alpha virt. eigenvalues --    4.13526   4.28108   4.32938   4.37831   4.46243
 Alpha virt. eigenvalues --    4.56942   4.62142   4.62794   4.73354   4.79792
 Alpha virt. eigenvalues --    4.98465   5.00739   5.03838   5.11987
          Condensed to atoms (all electrons):
               1          2          3          4          5          6
     1  O    8.314533   0.308231  -0.081089  -0.085731   0.004504  -0.000018
     2  N    0.308231   5.729707   0.296907   0.262269  -0.048879   0.001111
     3  O   -0.081089   0.296907   8.353672  -0.090722   0.002789   0.000746
     4  C   -0.085731   0.262269  -0.090722   5.230385   0.553576  -0.049367
     5  C    0.004504  -0.048879   0.002789   0.553576   4.707050   0.317200
     6  N   -0.000018   0.001111   0.000746  -0.049367   0.317200   7.198778
     7  C    0.000004  -0.000126   0.000003   0.004269  -0.029668   0.169045
     8  H   -0.000000   0.000002  -0.000000  -0.000273   0.003159  -0.051604
     9  C   -0.000000  -0.000003  -0.000000   0.000901   0.000555  -0.061159
    10  C    0.000000   0.000000   0.000000  -0.000039  -0.000049   0.003750
    11  C   -0.000000  -0.000000  -0.000000  -0.000026   0.000023  -0.000184
    12  C   -0.000000   0.000003  -0.000000  -0.000057  -0.000146   0.003680
    13  C   -0.000030  -0.000069  -0.000006  -0.012999  -0.000644  -0.045220
    14  H   -0.000005  -0.000136   0.000001   0.003216   0.005938  -0.006958
    15  N    0.000300   0.002323  -0.000018  -0.064956  -0.004787   0.001375
    16  C    0.000986  -0.030415   0.002730   0.331735  -0.050090  -0.003243
    17  H    0.000214  -0.007480   0.017126  -0.024168   0.375395  -0.035305
    18  H    0.000001  -0.000051   0.000011   0.001577  -0.031143   0.338017
    19  H    0.000001  -0.000003   0.000000  -0.001159   0.001120  -0.000084
    20  H    0.000000  -0.000000   0.000000  -0.000061   0.000157  -0.000679
    21  H   -0.000000   0.000000   0.000000   0.000001   0.000001  -0.000076
    22  H   -0.000000   0.000000  -0.000000  -0.000000  -0.000003  -0.000117
    23  H    0.000000  -0.000000   0.000000   0.000037  -0.000001  -0.000030
    24  H    0.000000   0.000000   0.000000   0.000000  -0.000000   0.000006
    25  H    0.000000  -0.000000   0.000000   0.000019   0.000002  -0.000088
    26  H    0.000000  -0.000000   0.000000   0.000008  -0.000002  -0.000055
    27  H    0.006374  -0.000889   0.000023  -0.061987   0.002101   0.000056
               7          8          9         10         11         12
     1  O    0.000004  -0.000000  -0.000000   0.000000  -0.000000  -0.000000
     2  N   -0.000126   0.000002  -0.000003   0.000000  -0.000000   0.000003
     3  O    0.000003  -0.000000  -0.000000   0.000000  -0.000000  -0.000000
     4  C    0.004269  -0.000273   0.000901  -0.000039  -0.000026  -0.000057
     5  C   -0.029668   0.003159   0.000555  -0.000049   0.000023  -0.000146
     6  N    0.169045  -0.051604  -0.061159   0.003750  -0.000184   0.003680
     7  C    5.011783   0.418929   0.349742  -0.054614  -0.008998  -0.060124
     8  H    0.418929   0.540261  -0.056429   0.001030  -0.000396  -0.002093
     9  C    0.349742  -0.056429   5.160702   0.323968  -0.050114  -0.005629
    10  C   -0.054614   0.001030   0.323968   5.119709   0.336976  -0.060648
    11  C   -0.008998  -0.000396  -0.050114   0.336976   5.119027   0.336037
    12  C   -0.060124  -0.002093  -0.005629  -0.060648   0.336037   5.116243
    13  C    0.342537  -0.038817  -0.058965  -0.000484  -0.050942   0.370425
    14  H   -0.046227  -0.000742   0.004424  -0.000410   0.004164  -0.035757
    15  N   -0.057240   0.003939  -0.014942   0.001546  -0.012663  -0.080485
    16  C   -0.003075   0.000136  -0.001865   0.000010  -0.000006   0.003026
    17  H    0.001640  -0.000029  -0.000081   0.000001   0.000000  -0.000000
    18  H   -0.021034  -0.004233   0.001135  -0.000083   0.000004  -0.000111
    19  H   -0.036910   0.004407   0.389584  -0.031681  -0.002261   0.000721
    20  H   -0.042634  -0.002138   0.399697  -0.035536   0.003947  -0.000406
    21  H    0.004590  -0.000080  -0.036278   0.402405  -0.034892   0.004336
    22  H   -0.004780   0.003565  -0.046980   0.397848  -0.045489  -0.001016
    23  H    0.000536   0.000034  -0.001933  -0.039007   0.399224  -0.037756
    24  H   -0.000129  -0.000101   0.004387  -0.038474   0.402330  -0.038779
    25  H    0.005119  -0.000024  -0.000419   0.004183  -0.033531   0.398681
    26  H   -0.003991   0.001738   0.000959  -0.002203  -0.041445   0.397002
    27  H   -0.000423   0.000010  -0.000073   0.000008   0.000009  -0.000036
              13         14         15         16         17         18
     1  O   -0.000030  -0.000005   0.000300   0.000986   0.000214   0.000001
     2  N   -0.000069  -0.000136   0.002323  -0.030415  -0.007480  -0.000051
     3  O   -0.000006   0.000001  -0.000018   0.002730   0.017126   0.000011
     4  C   -0.012999   0.003216  -0.064956   0.331735  -0.024168   0.001577
     5  C   -0.000644   0.005938  -0.004787  -0.050090   0.375395  -0.031143
     6  N   -0.045220  -0.006958   0.001375  -0.003243  -0.035305   0.338017
     7  C    0.342537  -0.046227  -0.057240  -0.003075   0.001640  -0.021034
     8  H   -0.038817  -0.000742   0.003939   0.000136  -0.000029  -0.004233
     9  C   -0.058965   0.004424  -0.014942  -0.001865  -0.000081   0.001135
    10  C   -0.000484  -0.000410   0.001546   0.000010   0.000001  -0.000083
    11  C   -0.050942   0.004164  -0.012663  -0.000006   0.000000   0.000004
    12  C    0.370425  -0.035757  -0.080485   0.003026  -0.000000  -0.000111
    13  C    5.042773   0.401662   0.245321  -0.073310   0.000000   0.002973
    14  H    0.401662   0.525273  -0.037744  -0.004050   0.000135  -0.000114
    15  N    0.245321  -0.037744   6.957087   0.581793  -0.000093  -0.000133
    16  C   -0.073310  -0.004050   0.581793   4.727074   0.002360  -0.000220
    17  H    0.000000   0.000135  -0.000093   0.002360   0.380132  -0.002798
    18  H    0.002973  -0.000114  -0.000133  -0.000220  -0.002798   0.310946
    19  H   -0.007379   0.000107   0.007733   0.003327   0.000018  -0.000150
    20  H    0.004301  -0.000064   0.000122  -0.000036   0.000004   0.000957
    21  H   -0.000426   0.000010  -0.000039   0.000003  -0.000000   0.000001
    22  H    0.000062  -0.000056   0.000014  -0.000002   0.000000   0.000001
    23  H   -0.007285   0.000002   0.008366   0.000046   0.000000   0.000000
    24  H    0.004697  -0.000054   0.000144   0.000008   0.000000  -0.000000
    25  H   -0.035751  -0.002806   0.000104  -0.000015  -0.000000   0.000002
    26  H   -0.047170  -0.001062   0.004799  -0.000083   0.000000  -0.000001
    27  H    0.005164  -0.000193  -0.039826   0.402174  -0.000079   0.000001
              19         20         21         22         23         24
     1  O    0.000001   0.000000  -0.000000  -0.000000   0.000000   0.000000
     2  N   -0.000003  -0.000000   0.000000   0.000000  -0.000000   0.000000
     3  O    0.000000   0.000000   0.000000  -0.000000   0.000000   0.000000
     4  C   -0.001159  -0.000061   0.000001  -0.000000   0.000037   0.000000
     5  C    0.001120   0.000157   0.000001  -0.000003  -0.000001  -0.000000
     6  N   -0.000084  -0.000679  -0.000076  -0.000117  -0.000030   0.000006
     7  C   -0.036910  -0.042634   0.004590  -0.004780   0.000536  -0.000129
     8  H    0.004407  -0.002138  -0.000080   0.003565   0.000034  -0.000101
     9  C    0.389584   0.399697  -0.036278  -0.046980  -0.001933   0.004387
    10  C   -0.031681  -0.035536   0.402405   0.397848  -0.039007  -0.038474
    11  C   -0.002261   0.003947  -0.034892  -0.045489   0.399224   0.402330
    12  C    0.000721  -0.000406   0.004336  -0.001016  -0.037756  -0.038779
    13  C   -0.007379   0.004301  -0.000426   0.000062  -0.007285   0.004697
    14  H    0.000107  -0.000064   0.000010  -0.000056   0.000002  -0.000054
    15  N    0.007733   0.000122  -0.000039   0.000014   0.008366   0.000144
    16  C    0.003327  -0.000036   0.000003  -0.000002   0.000046   0.000008
    17  H    0.000018   0.000004  -0.000000   0.000000   0.000000   0.000000
    18  H   -0.000150   0.000957   0.000001   0.000001   0.000000  -0.000000
    19  H    0.504237  -0.024826  -0.002806   0.003947   0.001501  -0.000065
    20  H   -0.024826   0.543024  -0.002681  -0.003017  -0.000046  -0.000083
    21  H   -0.002806  -0.002681   0.524065  -0.027410  -0.002903  -0.002233
    22  H    0.003947  -0.003017  -0.027410   0.571254   0.004142  -0.003675
    23  H    0.001501  -0.000046  -0.002903   0.004142   0.499119  -0.025490
    24  H   -0.000065  -0.000083  -0.002233  -0.003675  -0.025490   0.538362
    25  H   -0.000029   0.000012  -0.000087  -0.000079  -0.002349  -0.002273
    26  H    0.000019  -0.000030  -0.000081   0.002379   0.004056  -0.003068
    27  H    0.000097   0.000000  -0.000000   0.000000  -0.000033  -0.000000
              25         26         27
     1  O    0.000000   0.000000   0.006374
     2  N   -0.000000  -0.000000  -0.000889
     3  O    0.000000   0.000000   0.000023
     4  C    0.000019   0.000008  -0.061987
     5  C    0.000002  -0.000002   0.002101
     6  N   -0.000088  -0.000055   0.000056
     7  C    0.005119  -0.003991  -0.000423
     8  H   -0.000024   0.001738   0.000010
     9  C   -0.000419   0.000959  -0.000073
    10  C    0.004183  -0.002203   0.000008
    11  C   -0.033531  -0.041445   0.000009
    12  C    0.398681   0.397002  -0.000036
    13  C   -0.035751  -0.047170   0.005164
    14  H   -0.002806  -0.001062  -0.000193
    15  N    0.000104   0.004799  -0.039826
    16  C   -0.000015  -0.000083   0.402174
    17  H   -0.000000   0.000000  -0.000079
    18  H    0.000002  -0.000001   0.000001
    19  H   -0.000029   0.000019   0.000097
    20  H    0.000012  -0.000030   0.000000
    21  H   -0.000087  -0.000081  -0.000000
    22  H   -0.000079   0.002379   0.000000
    23  H   -0.002349   0.004056  -0.000033
    24  H   -0.002273  -0.003068  -0.000000
    25  H    0.506519  -0.024117  -0.000010
    26  H   -0.024117   0.561181   0.000001
    27  H   -0.000010   0.000001   0.438978
 Mulliken charges:
               1
     1  O   -0.468275
     2  N    0.487500
     3  O   -0.502175
     4  C    0.003552
     5  C    0.191842
     6  N   -0.779578
     7  C    0.061776
     8  H    0.179748
     9  C   -0.301183
    10  C   -0.328208
    11  C   -0.320795
    12  C   -0.307112
    13  C   -0.040418
    14  H    0.191447
    15  N   -0.502039
    16  C    0.110999
    17  H    0.293008
    18  H    0.404445
    19  H    0.190534
    20  H    0.160015
    21  H    0.174580
    22  H    0.149412
    23  H    0.199772
    24  H    0.164493
    25  H    0.186937
    26  H    0.151168
    27  H    0.248552
 Sum of Mulliken charges =  -0.00000
 Mulliken charges with hydrogens summed into heavy atoms:
               1
     1  O   -0.468275
     2  N    0.487500
     3  O   -0.502175
     4  C    0.003552
     5  C    0.484850
     6  N   -0.375133
     7  C    0.241524
     9  C    0.049366
    10  C   -0.004216
    11  C    0.043471
    12  C    0.030994
    13  C    0.151029
    15  N   -0.502039
    16  C    0.359551
 Electronic spatial extent (au):  <R**2>=           3003.0422
 Charge=             -0.0000 electrons
 Dipole moment (field-independent basis, Debye):
    X=              5.4348    Y=              4.8992    Z=              0.9104  Tot=              7.3735
 Quadrupole moment (field-independent basis, Debye-Ang):
   XX=           -106.1900   YY=            -79.0011   ZZ=            -81.7511
   XY=             -2.3031   XZ=              1.2208   YZ=              1.1271
 Traceless Quadrupole moment (field-independent basis, Debye-Ang):
   XX=            -17.2092   YY=              9.9796   ZZ=              7.2296
   XY=             -2.3031   XZ=              1.2208   YZ=              1.1271
 Octapole moment (field-independent basis, Debye-Ang**2):
  XXX=             92.6165  YYY=             38.3168  ZZZ=             -4.2604  XYY=             -4.8247
  XXY=             11.4508  XXZ=             -1.2024  XZZ=             -9.3930  YZZ=             -0.8288
  YYZ=              6.2749  XYZ=              1.2025
 Hexadecapole moment (field-independent basis, Debye-Ang**3):
 XXXX=          -3385.0883 YYYY=           -595.4692 ZZZZ=           -302.5679 XXXY=            -33.4240
 XXXZ=             28.7830 YYYX=            -17.4445 YYYZ=             20.7489 ZZZX=             22.9924
 ZZZY=              6.9186 XXYY=           -625.6196 XXZZ=           -525.6440 YYZZ=           -157.5952
 XXYZ=             -8.7809 YYXZ=              9.5156 ZZXY=              3.5627
 N-N= 9.317553129613D+02 E-N=-3.410231020573D+03  KE= 6.596319308893D+02
 Unable to Open any file for archive entry.
 1\1\GINC-LOTUS\FOpt\RMP2-FC\6-31G(d)\C9H13N3O2\ALEXEY\02-Jul-2023\0\\#
 MP2/6-31G* SCF=Tight Opt=(ModRedun, MaxCycle=20 ) NoSymm\\MolName:\\0,
 1\O,-3.4949605682,-1.4078233089,-0.3439567446\N,-3.1194317414,-0.26372
 8325,-0.021289639\O,-3.9004877093,0.6623854529,0.2716229318\C,-1.68791
 30275,-0.0330102916,0.0409664995\C,-1.3110722114,1.2669214968,0.258869
 9524\N,-0.063463967,1.7569586039,0.3228931444\C,1.1977994399,1.0221660
 493,0.3285448241\H,1.8298027093,1.5501554823,1.0594514611\C,1.93721595
 75,1.0331158857,-1.0077621351\C,3.330213148,0.4251904831,-0.8066786395
 \C,3.2645917772,-0.9711820125,-0.182126886\C,2.4351112791,-0.982289295
 ,1.1038827228\C,1.0333320823,-0.4249559636,0.8353846851\H,0.4345650606
 ,-0.4018721819,1.760474487\N,0.4049991082,-1.3064841194,-0.1454229019\
 C,-0.8334542967,-1.0977163066,-0.4555544982\H,-2.1044480413,1.99283310
 17,0.4159929366\H,0.004878259,2.7523081591,0.4998566725\H,1.3625713586
 ,0.4580704242,-1.7412380552\H,2.0155187294,2.0617061978,-1.3818540377\
 H,3.85999479,0.3869995448,-1.7653412407\H,3.913459623,1.0905903831,-0.
 1542997952\H,2.8057335413,-1.6671014133,-0.8911740541\H,4.2784803342,-
 1.3350685394,0.0224442765\H,2.3377226725,-2.0048233082,1.4836325365\H,
 2.9264573307,-0.3877787971,1.8864422716\H,-1.2972056379,-1.8115974022,
 -1.1357707746\\Version=ES64L-G16RevC.02\HF=-661.2992057\MP2=-663.33371
 39\RMSD=3.917e-09\RMSF=1.727e-03\Dipole=1.9810405,1.7201637,0.3533818\
 PG=C01 [X(C9H13N3O2)]\\@
 The archive entry for this job was punched.


 TIME IS IN FACT THE HERO OF THE PLOT. THE TIME
 WITH WHICH WE HAVE TO DEAL IS OF THE ORDER OF TWO
 BILLION YEARS...GIVEN SO MUCH TIME, THE "IMPOSSIBLE"
 BECOMES POSSIBLE, THE POSSIBLE PROBABLE, THE PROBABLE
 VIRTUALLY CERTAIN.  ONE HAS ONLY TO WAIT, TIME
 ITSELF PERFORMS THE MIRACLES.
 "ORIGIN OF LIFE" LECTURES, GEORGE WALD, 1954
 Job cpu time:       0 days  1 hours  5 minutes 55.5 seconds.
 Elapsed time:       0 days  0 hours 19 minutes 36.7 seconds.
 File lengths (MBytes):  RWF=     36 Int=      0 D2E=      0 Chk=      7 Scr=      1
 Normal termination of Gaussian 16 at Sun Jul  2 09:24:47 2023.
