 Entering Gaussian System, Link 0=g16
 Initial command:
 /home/alexey/programs//g16/l1.exe "/home/alexey/tmp/Gau-1484058.inp" -scrdir="/home/alexey/tmp/"
 Entering Link 1 = /home/alexey/programs//g16/l1.exe PID=   1484060.
  
 Copyright (c) 1988-2021, Gaussian, Inc.  All Rights Reserved.
  
 This is part of the Gaussian(R) 16 program.  It is based on
 the Gaussian(R) 09 system (copyright 2009, Gaussian, Inc.),
 the Gaussian(R) 03 system (copyright 2003, Gaussian, Inc.),
 the Gaussian(R) 98 system (copyright 1998, Gaussian, Inc.),
 the Gaussian(R) 94 system (copyright 1995, Gaussian, Inc.),
 the Gaussian 92(TM) system (copyright 1992, Gaussian, Inc.),
 the Gaussian 90(TM) system (copyright 1990, Gaussian, Inc.),
 the Gaussian 88(TM) system (copyright 1988, Gaussian, Inc.),
 the Gaussian 86(TM) system (copyright 1986, Carnegie Mellon
 University), and the Gaussian 82(TM) system (copyright 1983,
 Carnegie Mellon University). Gaussian is a federally registered
 trademark of Gaussian, Inc.
  
 This software contains proprietary and confidential information,
 including trade secrets, belonging to Gaussian, Inc.
  
 This software is provided under written license and may be
 used, copied, transmitted, or stored only in accord with that
 written license.
  
 The following legend is applicable only to US Government
 contracts under FAR:
  
                    RESTRICTED RIGHTS LEGEND
  
 Use, reproduction and disclosure by the US Government is
 subject to restrictions as set forth in subparagraphs (a)
 and (c) of the Commercial Computer Software - Restricted
 Rights clause in FAR 52.227-19.
  
 Gaussian, Inc.
 340 Quinnipiac St., Bldg. 40, Wallingford CT 06492
  
  
 ---------------------------------------------------------------
 Warning -- This program may not be used in any manner that
 competes with the business of Gaussian, Inc. or will provide
 assistance to any competitor of Gaussian, Inc.  The licensee
 of this program is prohibited from giving any competitor of
 Gaussian, Inc. access to this program.  By using this program,
 the user acknowledges that Gaussian, Inc. is engaged in the
 business of creating and licensing software in the field of
 computational chemistry and represents and warrants to the
 licensee that it is not a competitor of Gaussian, Inc. and that
 it will not use this program in any manner prohibited above.
 ---------------------------------------------------------------
  

 Cite this work as:
 Gaussian 16, Revision C.02,
 M. J. Frisch, G. W. Trucks, H. B. Schlegel, G. E. Scuseria, 
 M. A. Robb, J. R. Cheeseman, G. Scalmani, V. Barone, 
 G. A. Petersson, H. Nakatsuji, X. Li, M. Caricato, A. V. Marenich, 
 J. Bloino, B. G. Janesko, R. Gomperts, B. Mennucci, H. P. Hratchian, 
 J. V. Ortiz, A. F. Izmaylov, J. L. Sonnenberg, D. Williams-Young, 
 F. Ding, F. Lipparini, F. Egidi, J. Goings, B. Peng, A. Petrone, 
 T. Henderson, D. Ranasinghe, V. G. Zakrzewski, J. Gao, N. Rega, 
 G. Zheng, W. Liang, M. Hada, M. Ehara, K. Toyota, R. Fukuda, 
 J. Hasegawa, M. Ishida, T. Nakajima, Y. Honda, O. Kitao, H. Nakai, 
 T. Vreven, K. Throssell, J. A. Montgomery, Jr., J. E. Peralta, 
 F. Ogliaro, M. J. Bearpark, J. J. Heyd, E. N. Brothers, K. N. Kudin, 
 V. N. Staroverov, T. A. Keith, R. Kobayashi, J. Normand, 
 K. Raghavachari, A. P. Rendell, J. C. Burant, S. S. Iyengar, 
 J. Tomasi, M. Cossi, J. M. Millam, M. Klene, C. Adamo, R. Cammi, 
 J. W. Ochterski, R. L. Martin, K. Morokuma, O. Farkas, 
 J. B. Foresman, and D. J. Fox, Gaussian, Inc., Wallingford CT, 2019.
 
 ******************************************
 Gaussian 16:  ES64L-G16RevC.02  7-Dec-2021
                 2-Jul-2023 
 ******************************************
 %mem=8GB
 %NPROCS=4
 Will use up to    4 processors via shared memory.
 %NoSave
 ---------------------------------------------------------
 #MP2/6-31G* SCF=Tight Opt=(ModRedun, MaxCycle=20 ) NoSymm
 ---------------------------------------------------------
 1/6=20,18=120,19=15,38=1/1,3;
 2/9=110,12=2,15=1,17=6,18=5,40=1/2;
 3/5=1,6=6,7=1,11=9,25=1,30=1,71=1/1,2,3;
 4//1;
 5/5=2,32=2,38=5/2;
 8/6=4,10=2/1;
 9/15=2,16=-3/6;
 10/5=1,31=1/2;
 6/7=2,8=2,9=2,10=2/1;
 7/12=2,30=1/1,2,3,16;
 1/6=20,18=20,19=15/3(2);
 2/9=110,15=1/2;
 99//99;
 2/9=110,15=1/2;
 3/5=1,6=6,7=1,11=9,25=1,30=1,71=1/1,2,3;
 4/5=5,16=3,69=1/1;
 5/5=2,32=2,38=5/2;
 8/6=4,10=2/1;
 9/15=2,16=-3/6;
 10/5=1,31=1/2;
 7/12=2,30=1/1,2,3,16;
 1/6=20,18=20,19=15/3(-8);
 2/9=110,15=1/2;
 6/7=2,8=2,9=2,10=2/1;
 99/9=10/99;
 --------
 MolName:
 --------
 Symbolic Z-matrix:
 Charge =  0 Multiplicity = 1
 8                    0    -3.48132  -1.58002   0.08564 
 7                    0    -3.18299  -0.40159   0.26981 
 8                    0    -3.96991   0.45334   0.67692 
 6                    0    -1.7484    0.01263  -0.01533 
 6                    0    -1.38783   1.33978   0.24846 
 7                    0    -0.09711   1.81016   0.17739 
 6                    0     1.17634   1.01415   0.25693 
 1                    0     1.77826   1.50588   1.06393 
 6                    0     2.05479   1.05426  -1.0172 
 6                    0     3.4347    0.44219  -0.71236 
 6                    0     3.29712  -0.97409  -0.13222 
 6                    0     2.34239  -0.99817   1.0814 
 6                    0     0.93747  -0.43302   0.73269 
 1                    0     0.33254  -0.4684    1.66945 
 7                    0     0.34578  -1.27603  -0.31304 
 6                    0    -0.86354  -0.98407  -0.6704 
 1                    0    -2.15438   2.0383    0.62288 
 1                    0     0.12689   2.76562  -0.1112 
 1                    0     1.56362   0.48948  -1.83814 
 1                    0     2.18991   2.1034   -1.3561 
 1                    0     4.0496    0.41169  -1.6384 
 1                    0     3.96268   1.08307   0.02878 
 1                    0     2.90058  -1.65171  -0.9219 
 1                    0     4.29619  -1.35867   0.1679 
 1                    0     2.23496  -2.04549   1.43985 
 1                    0     2.78387  -0.40195   1.9076 
 1                    0    -1.35918  -1.58772  -1.44534 
 
 The following ModRedundant input section has been read:
 D       5       4      16      15 F                                           
 D       1       2       4      16 F                                           
 D       7      13      15      16 F                                           
 D       7       9      10      11 F                                           
 D       9      10      11      12 F                                           
 D       6       7      13      15 F                                           
 

 GradGradGradGradGradGradGradGradGradGradGradGradGradGradGradGradGradGrad
 Berny optimization.
 Initialization pass.
                           ----------------------------
                           !    Initial Parameters    !
                           ! (Angstroms and Degrees)  !
 --------------------------                            --------------------------
 ! Name  Definition              Value          Derivative Info.                !
 --------------------------------------------------------------------------------
 ! R1    R(1,2)                  1.2295         estimate D2E/DX2                !
 ! R2    R(2,3)                  1.2312         estimate D2E/DX2                !
 ! R3    R(2,4)                  1.5202         estimate D2E/DX2                !
 ! R4    R(4,5)                  1.4003         estimate D2E/DX2                !
 ! R5    R(4,16)                 1.4851         estimate D2E/DX2                !
 ! R6    R(5,6)                  1.3756         estimate D2E/DX2                !
 ! R7    R(5,17)                 1.1026         estimate D2E/DX2                !
 ! R8    R(6,7)                  1.5039         estimate D2E/DX2                !
 ! R9    R(6,18)                 1.0229         estimate D2E/DX2                !
 ! R10   R(7,8)                  1.1204         estimate D2E/DX2                !
 ! R11   R(7,9)                  1.5481         estimate D2E/DX2                !
 ! R12   R(7,13)                 1.542          estimate D2E/DX2                !
 ! R13   R(9,10)                 1.54           estimate D2E/DX2                !
 ! R14   R(9,19)                 1.1109         estimate D2E/DX2                !
 ! R15   R(9,20)                 1.1108         estimate D2E/DX2                !
 ! R16   R(10,11)                1.5367         estimate D2E/DX2                !
 ! R17   R(10,21)                1.112          estimate D2E/DX2                !
 ! R18   R(10,22)                1.113          estimate D2E/DX2                !
 ! R19   R(11,12)                1.5443         estimate D2E/DX2                !
 ! R20   R(11,23)                1.1136         estimate D2E/DX2                !
 ! R21   R(11,24)                1.1118         estimate D2E/DX2                !
 ! R22   R(12,13)                1.554          estimate D2E/DX2                !
 ! R23   R(12,25)                1.1122         estimate D2E/DX2                !
 ! R24   R(12,26)                1.1104         estimate D2E/DX2                !
 ! R25   R(13,14)                1.1157         estimate D2E/DX2                !
 ! R26   R(13,15)                1.4678         estimate D2E/DX2                !
 ! R27   R(15,16)                1.2944         estimate D2E/DX2                !
 ! R28   R(16,27)                1.1003         estimate D2E/DX2                !
 ! A1    A(1,2,3)              124.0554         estimate D2E/DX2                !
 ! A2    A(1,2,4)              117.52           estimate D2E/DX2                !
 ! A3    A(3,2,4)              118.4228         estimate D2E/DX2                !
 ! A4    A(2,4,5)              117.7686         estimate D2E/DX2                !
 ! A5    A(2,4,16)             117.5258         estimate D2E/DX2                !
 ! A6    A(5,4,16)             124.4534         estimate D2E/DX2                !
 ! A7    A(4,5,6)              123.7759         estimate D2E/DX2                !
 ! A8    A(4,5,17)             119.0369         estimate D2E/DX2                !
 ! A9    A(6,5,17)             116.9517         estimate D2E/DX2                !
 ! A10   A(5,6,7)              127.6478         estimate D2E/DX2                !
 ! A11   A(5,6,18)             122.6456         estimate D2E/DX2                !
 ! A12   A(7,6,18)             108.8985         estimate D2E/DX2                !
 ! A13   A(6,7,8)              105.1119         estimate D2E/DX2                !
 ! A14   A(6,7,9)              115.0396         estimate D2E/DX2                !
 ! A15   A(6,7,13)             112.4517         estimate D2E/DX2                !
 ! A16   A(8,7,9)              106.0561         estimate D2E/DX2                !
 ! A17   A(8,7,13)             105.8361         estimate D2E/DX2                !
 ! A18   A(9,7,13)             111.4783         estimate D2E/DX2                !
 ! A19   A(7,9,10)             109.5861         estimate D2E/DX2                !
 ! A20   A(7,9,19)             110.129          estimate D2E/DX2                !
 ! A21   A(7,9,20)             110.1575         estimate D2E/DX2                !
 ! A22   A(10,9,19)            109.8998         estimate D2E/DX2                !
 ! A23   A(10,9,20)            109.0737         estimate D2E/DX2                !
 ! A24   A(19,9,20)            107.9688         estimate D2E/DX2                !
 ! A25   A(9,10,11)            111.15           estimate D2E/DX2                !
 ! A26   A(9,10,21)            109.9699         estimate D2E/DX2                !
 ! A27   A(9,10,22)            109.148          estimate D2E/DX2                !
 ! A28   A(11,10,21)           109.7929         estimate D2E/DX2                !
 ! A29   A(11,10,22)           108.7704         estimate D2E/DX2                !
 ! A30   A(21,10,22)           107.9393         estimate D2E/DX2                !
 ! A31   A(10,11,12)           111.4941         estimate D2E/DX2                !
 ! A32   A(10,11,23)           108.9657         estimate D2E/DX2                !
 ! A33   A(10,11,24)           109.893          estimate D2E/DX2                !
 ! A34   A(12,11,23)           109.1264         estimate D2E/DX2                !
 ! A35   A(12,11,24)           109.7552         estimate D2E/DX2                !
 ! A36   A(23,11,24)           107.5135         estimate D2E/DX2                !
 ! A37   A(11,12,13)           112.1421         estimate D2E/DX2                !
 ! A38   A(11,12,25)           109.1281         estimate D2E/DX2                !
 ! A39   A(11,12,26)           109.3024         estimate D2E/DX2                !
 ! A40   A(13,12,25)           109.1155         estimate D2E/DX2                !
 ! A41   A(13,12,26)           109.3382         estimate D2E/DX2                !
 ! A42   A(25,12,26)           107.712          estimate D2E/DX2                !
 ! A43   A(7,13,12)            105.6943         estimate D2E/DX2                !
 ! A44   A(7,13,14)            111.8895         estimate D2E/DX2                !
 ! A45   A(7,13,15)            112.4367         estimate D2E/DX2                !
 ! A46   A(12,13,14)           106.8736         estimate D2E/DX2                !
 ! A47   A(12,13,15)           108.3884         estimate D2E/DX2                !
 ! A48   A(14,13,15)           111.1876         estimate D2E/DX2                !
 ! A49   A(13,15,16)           116.3458         estimate D2E/DX2                !
 ! A50   A(4,16,15)            125.8932         estimate D2E/DX2                !
 ! A51   A(4,16,27)            114.2351         estimate D2E/DX2                !
 ! A52   A(15,16,27)           119.4441         estimate D2E/DX2                !
 ! D1    D(1,2,4,5)           -177.2516         estimate D2E/DX2                !
 ! D2    D(1,2,4,16)             8.2578         Frozen                          !
 ! D3    D(3,2,4,5)              2.2734         estimate D2E/DX2                !
 ! D4    D(3,2,4,16)          -172.2172         estimate D2E/DX2                !
 ! D5    D(2,4,5,6)            172.5727         estimate D2E/DX2                !
 ! D6    D(2,4,5,17)            -1.6743         estimate D2E/DX2                !
 ! D7    D(16,4,5,6)           -13.3538         estimate D2E/DX2                !
 ! D8    D(16,4,5,17)          172.3991         estimate D2E/DX2                !
 ! D9    D(2,4,16,15)         -133.8282         estimate D2E/DX2                !
 ! D10   D(2,4,16,27)           38.5745         estimate D2E/DX2                !
 ! D11   D(5,4,16,15)           52.0852         Frozen                          !
 ! D12   D(5,4,16,27)         -135.5121         estimate D2E/DX2                !
 ! D13   D(4,5,6,7)            -21.2917         estimate D2E/DX2                !
 ! D14   D(4,5,6,18)           147.2396         estimate D2E/DX2                !
 ! D15   D(17,5,6,7)           153.066          estimate D2E/DX2                !
 ! D16   D(17,5,6,18)          -38.4027         estimate D2E/DX2                !
 ! D17   D(5,6,7,8)           -126.7816         estimate D2E/DX2                !
 ! D18   D(5,6,7,9)            116.9642         estimate D2E/DX2                !
 ! D19   D(5,6,7,13)           -12.109          estimate D2E/DX2                !
 ! D20   D(18,6,7,8)            63.4111         estimate D2E/DX2                !
 ! D21   D(18,6,7,9)           -52.8431         estimate D2E/DX2                !
 ! D22   D(18,6,7,13)          178.0837         estimate D2E/DX2                !
 ! D23   D(6,7,9,10)           168.9236         estimate D2E/DX2                !
 ! D24   D(6,7,9,19)           -70.066          estimate D2E/DX2                !
 ! D25   D(6,7,9,20)            48.9171         estimate D2E/DX2                !
 ! D26   D(8,7,9,10)            53.2097         estimate D2E/DX2                !
 ! D27   D(8,7,9,19)           174.2202         estimate D2E/DX2                !
 ! D28   D(8,7,9,20)           -66.7968         estimate D2E/DX2                !
 ! D29   D(13,7,9,10)          -61.5238         estimate D2E/DX2                !
 ! D30   D(13,7,9,19)           59.4867         estimate D2E/DX2                !
 ! D31   D(13,7,9,20)          178.4698         estimate D2E/DX2                !
 ! D32   D(6,7,13,12)         -166.9102         estimate D2E/DX2                !
 ! D33   D(6,7,13,14)          -50.9453         estimate D2E/DX2                !
 ! D34   D(6,7,13,15)           75.0211         Frozen                          !
 ! D35   D(8,7,13,12)          -52.6785         estimate D2E/DX2                !
 ! D36   D(8,7,13,14)           63.2864         estimate D2E/DX2                !
 ! D37   D(8,7,13,15)         -170.7473         estimate D2E/DX2                !
 ! D38   D(9,7,13,12)           62.191          estimate D2E/DX2                !
 ! D39   D(9,7,13,14)          178.1559         estimate D2E/DX2                !
 ! D40   D(9,7,13,15)          -55.8777         estimate D2E/DX2                !
 ! D41   D(7,9,10,11)           54.8119         Frozen                          !
 ! D42   D(7,9,10,21)          176.6071         estimate D2E/DX2                !
 ! D43   D(7,9,10,22)          -65.1585         estimate D2E/DX2                !
 ! D44   D(19,9,10,11)         -66.337          estimate D2E/DX2                !
 ! D45   D(19,9,10,21)          55.4582         estimate D2E/DX2                !
 ! D46   D(19,9,10,22)         173.6925         estimate D2E/DX2                !
 ! D47   D(20,9,10,11)         175.4784         estimate D2E/DX2                !
 ! D48   D(20,9,10,21)         -62.7264         estimate D2E/DX2                !
 ! D49   D(20,9,10,22)          55.508          estimate D2E/DX2                !
 ! D50   D(9,10,11,12)         -52.8225         Frozen                          !
 ! D51   D(9,10,11,23)          67.6874         estimate D2E/DX2                !
 ! D52   D(9,10,11,24)        -174.7477         estimate D2E/DX2                !
 ! D53   D(21,10,11,12)       -174.7208         estimate D2E/DX2                !
 ! D54   D(21,10,11,23)        -54.2109         estimate D2E/DX2                !
 ! D55   D(21,10,11,24)         63.3539         estimate D2E/DX2                !
 ! D56   D(22,10,11,12)         67.3719         estimate D2E/DX2                !
 ! D57   D(22,10,11,23)       -172.1182         estimate D2E/DX2                !
 ! D58   D(22,10,11,24)        -54.5534         estimate D2E/DX2                !
 ! D59   D(10,11,12,13)         56.3894         estimate D2E/DX2                !
 ! D60   D(10,11,12,25)        177.4093         estimate D2E/DX2                !
 ! D61   D(10,11,12,26)        -65.0315         estimate D2E/DX2                !
 ! D62   D(23,11,12,13)        -64.0262         estimate D2E/DX2                !
 ! D63   D(23,11,12,25)         56.9938         estimate D2E/DX2                !
 ! D64   D(23,11,12,26)        174.5529         estimate D2E/DX2                !
 ! D65   D(24,11,12,13)        178.3942         estimate D2E/DX2                !
 ! D66   D(24,11,12,25)        -60.5858         estimate D2E/DX2                !
 ! D67   D(24,11,12,26)         56.9733         estimate D2E/DX2                !
 ! D68   D(11,12,13,7)         -59.3328         estimate D2E/DX2                !
 ! D69   D(11,12,13,14)       -178.6671         estimate D2E/DX2                !
 ! D70   D(11,12,13,15)         61.4097         estimate D2E/DX2                !
 ! D71   D(25,12,13,7)         179.64           estimate D2E/DX2                !
 ! D72   D(25,12,13,14)         60.3056         estimate D2E/DX2                !
 ! D73   D(25,12,13,15)        -59.6176         estimate D2E/DX2                !
 ! D74   D(26,12,13,7)          62.0675         estimate D2E/DX2                !
 ! D75   D(26,12,13,14)        -57.2668         estimate D2E/DX2                !
 ! D76   D(26,12,13,15)       -177.19           estimate D2E/DX2                !
 ! D77   D(7,13,15,16)         -67.1593         Frozen                          !
 ! D78   D(12,13,15,16)        176.3743         estimate D2E/DX2                !
 ! D79   D(14,13,15,16)         59.1862         estimate D2E/DX2                !
 ! D80   D(13,15,16,4)          -7.5187         estimate D2E/DX2                !
 ! D81   D(13,15,16,27)       -179.5612         estimate D2E/DX2                !
 --------------------------------------------------------------------------------
 Trust Radius=3.00D-01 FncErr=1.00D-07 GrdErr=1.00D-07 EigMax=2.50D+02 EigMin=1.00D-04
 Number of steps in this run=     20 maximum allowed number of steps=    162.
 GradGradGradGradGradGradGradGradGradGradGradGradGradGradGradGradGradGrad

                          Input orientation:                          
 ---------------------------------------------------------------------
 Center     Atomic      Atomic             Coordinates (Angstroms)
 Number     Number       Type             X           Y           Z
 ---------------------------------------------------------------------
      1          8           0       -3.481320   -1.580020    0.085640
      2          7           0       -3.182990   -0.401590    0.269810
      3          8           0       -3.969910    0.453340    0.676920
      4          6           0       -1.748400    0.012630   -0.015330
      5          6           0       -1.387830    1.339780    0.248460
      6          7           0       -0.097110    1.810160    0.177390
      7          6           0        1.176340    1.014150    0.256930
      8          1           0        1.778260    1.505880    1.063930
      9          6           0        2.054790    1.054260   -1.017200
     10          6           0        3.434700    0.442190   -0.712360
     11          6           0        3.297120   -0.974090   -0.132220
     12          6           0        2.342390   -0.998170    1.081400
     13          6           0        0.937470   -0.433020    0.732690
     14          1           0        0.332540   -0.468400    1.669450
     15          7           0        0.345780   -1.276030   -0.313040
     16          6           0       -0.863540   -0.984070   -0.670400
     17          1           0       -2.154380    2.038300    0.622880
     18          1           0        0.126890    2.765620   -0.111200
     19          1           0        1.563620    0.489480   -1.838140
     20          1           0        2.189910    2.103400   -1.356100
     21          1           0        4.049600    0.411690   -1.638400
     22          1           0        3.962680    1.083070    0.028780
     23          1           0        2.900580   -1.651710   -0.921900
     24          1           0        4.296190   -1.358670    0.167900
     25          1           0        2.234960   -2.045490    1.439850
     26          1           0        2.783870   -0.401950    1.907600
     27          1           0       -1.359180   -1.587720   -1.445340
 ---------------------------------------------------------------------
                    Distance matrix (angstroms):
                    1          2          3          4          5
     1  O    0.000000
     2  N    1.229478   0.000000
     3  O    2.173220   1.231214   0.000000
     4  C    2.355789   1.520175   2.368236   0.000000
     5  C    3.596449   2.501085   2.763420   1.400330   0.000000
     6  N    4.791098   3.797767   4.133893   2.448472   1.375597
     7  C    5.334122   4.583475   5.193726   3.103429   2.584777
     8  H    6.176003   5.374297   5.856541   3.978936   3.273638
     9  C    6.229302   5.586612   6.287142   4.068537   3.679001
    10  C    7.249653   6.743178   7.533822   5.247371   4.998564
    11  C    6.808955   6.517761   7.449966   5.142427   5.239052
    12  C    5.936808   5.616441   6.489655   4.354204   4.480440
    13  C    4.610855   4.146497   4.987096   2.823479   2.963835
    14  H    4.276644   3.784496   4.510631   2.720328   2.872003
    15  N    3.859799   3.681926   4.753517   2.476866   3.187969
    16  C    2.789180   2.569655   3.678444   1.485094   2.553324
    17  H    3.891226   2.671284   2.410636   2.162284   1.102597
    18  H    5.651771   4.596922   4.769858   3.332395   2.111102
    19  H    5.782316   5.269513   6.078387   3.810446   3.713215
    20  H    6.914409   6.147082   6.693224   4.656100   3.994741
    21  H    7.978344   7.524164   8.347154   6.034104   5.829857
    22  H    7.906226   7.302254   7.983898   5.810699   5.361167
    23  H    6.461341   6.323986   7.361460   5.020449   5.358098
    24  H    7.781094   7.540857   8.477670   6.200896   6.292552
    25  H    5.892911   5.781486   6.732505   4.713869   5.099419
    26  H    6.630233   6.187550   6.918066   4.940750   4.815543
    27  H    2.616761   2.770366   3.935203   2.181179   3.382312
                    6          7          8          9         10
     6  N    0.000000
     7  C    1.503873   0.000000
     8  H    2.096557   1.120426   0.000000
     9  C    2.574705   1.548125   2.147448   0.000000
    10  C    3.890588   2.523262   2.651497   1.540035   0.000000
    11  C    4.400989   2.932958   3.144513   2.537869   1.536665
    12  C    3.828200   2.467561   2.566869   2.949458   2.546636
    13  C    2.531910   1.541982   2.139154   2.553923   3.015016
    14  H    2.757295   2.214761   2.520822   3.535920   4.015668
    15  N    3.156144   2.501923   3.418635   2.974358   3.557129
    16  C    3.018921   3.002322   4.023290   3.576550   4.528890
    17  H    2.117279   3.503783   3.992950   4.623344   5.963912
    18  H    1.022919   2.074732   2.386399   2.732469   4.086726
    19  H    2.926531   2.194216   3.082393   1.110931   2.184161
    20  H    2.769123   2.194460   2.526466   1.110768   2.173367
    21  H    4.737934   3.494404   3.695785   2.185876   1.112017
    22  H    4.127062   2.796514   2.453975   2.175994   1.113004
    23  H    4.709472   3.386658   3.895317   2.836673   2.171085
    24  H    5.416886   3.920672   3.917715   3.500081   2.181770
    25  H    4.679572   3.446937   3.600294   3.959546   3.501419
    26  H    4.023320   2.704478   2.315782   3.347620   2.828488
    27  H    3.971355   4.012021   5.070535   4.338036   5.257288
                   11         12         13         14         15
    11  C    0.000000
    12  C    1.544332   0.000000
    13  C    2.570754   1.553961   0.000000
    14  H    3.505777   2.160082   1.115666   0.000000
    15  N    2.972250   2.451147   1.467758   2.140726   0.000000
    16  C    4.195334   3.653353   2.348607   2.677951   1.294373
    17  H    6.274036   5.445304   3.959674   3.682883   4.255764
    18  H    4.902676   4.527345   3.405949   3.697552   4.052602
    19  H    2.838525   3.367981   2.802184   3.838786   2.631747
    20  H    3.492097   3.947707   3.516401   4.383826   3.988651
    21  H    2.180640   3.507076   4.002619   5.053015   4.280568
    22  H    2.168132   2.839878   3.456286   4.275134   4.331762
    23  H    1.113556   2.179886   2.841949   3.835381   2.653083
    24  H    1.111807   2.186727   3.529421   4.331022   3.980436
    25  H    2.178873   1.112163   2.187148   2.481760   2.689553
    26  H    2.179825   1.110401   2.188737   2.463767   3.411677
    27  H    4.876675   4.520354   3.369236   3.717084   2.070300
                   16         17         18         19         20
    16  C    0.000000
    17  H    3.531793   0.000000
    18  H    3.918397   2.504408   0.000000
    19  H    3.070191   4.720062   3.198019   0.000000
    20  H    4.396159   4.774249   2.498872   1.797036   0.000000
    21  H    5.198472   6.800633   4.822964   2.495204   2.529827
    22  H    5.296633   6.219634   4.190925   3.097294   2.470158
    23  H    3.831135   6.446328   5.278579   2.685452   3.846353
    24  H    5.240791   7.304537   5.871178   3.860932   4.329540
    25  H    3.896212   6.050710   5.476906   4.197855   5.003264
    26  H    4.504281   5.656115   4.600934   4.039087   4.157079
    27  H    1.100266   4.249459   4.789562   3.607189   5.121364
                   21         22         23         24         25
    21  H    0.000000
    22  H    1.799387   0.000000
    23  H    2.468044   3.083970   0.000000
    24  H    2.541201   2.468335   1.794788   0.000000
    25  H    4.336620   3.842398   2.485151   2.517588   0.000000
    26  H    3.852038   2.669240   3.095415   2.495793   1.794802
    27  H    5.769733   6.134195   4.292277   5.885424   4.631600
                   26         27
    26  H    0.000000
    27  H    5.460139   0.000000
 Symmetry turned off by external request.
 Stoichiometry    C9H13N3O2
 Framework group  C1[X(C9H13N3O2)]
 Deg. of freedom    75
 Full point group                 C1      NOp   1
 Rotational constants (GHZ):           1.6708697           0.4081831           0.3614678
 Standard basis: 6-31G(d) (6D, 7F)
   236 basis functions,   444 primitive gaussians,   236 cartesian basis functions
    52 alpha electrons       52 beta electrons
       nuclear repulsion energy       920.4088513807 Hartrees.
 NAtoms=   27 NActive=   27 NUniq=   27 SFac= 1.00D+00 NAtFMM=   60 NAOKFM=F Big=F
 Integral buffers will be    131072 words long.
 Raffenetti 1 integral format.
 Two-electron integral symmetry is turned off.
 One-electron integrals computed using PRISM.
 NBasis=   236 RedAO= T EigKep=  1.30D-03  NBF=   236
 NBsUse=   236 1.00D-06 EigRej= -1.00D+00 NBFU=   236
 ExpMin= 1.61D-01 ExpMax= 5.48D+03 ExpMxC= 8.25D+02 IAcc=3 IRadAn=         5 AccDes= 0.00D+00
 Harris functional with IExCor=  205 and IRadAn=       5 diagonalized for initial guess.
 HarFok:  IExCor=  205 AccDes= 0.00D+00 IRadAn=         5 IDoV= 1 UseB2=F ITyADJ=14
 ICtDFT=  3500011 ScaDFX=  1.000000  1.000000  1.000000  1.000000
 FoFCou: FMM=F IPFlag=           0 FMFlag=      100000 FMFlg1=           0
         NFxFlg=           0 DoJE=T BraDBF=F KetDBF=T FulRan=T
         wScrn=  0.000000 ICntrl=       500 IOpCl=  0 I1Cent=   200000004 NGrid=           0
         NMat0=    1 NMatS0=      1 NMatT0=    0 NMatD0=    1 NMtDS0=    0 NMtDT0=    0
 Symmetry not used in FoFCou.
 Keep R1 ints in memory in canonical form, NReq=397720213.
 Requested convergence on RMS density matrix=1.00D-08 within 128 cycles.
 Requested convergence on MAX density matrix=1.00D-06.
 Requested convergence on             energy=1.00D-06.
 No special actions if energy rises.
 SCF Done:  E(RHF) =  -661.271558513     A.U. after   16 cycles
            NFock= 16  Conv=0.74D-08     -V/T= 2.0037
 ExpMin= 1.61D-01 ExpMax= 5.48D+03 ExpMxC= 8.25D+02 IAcc=3 IRadAn=         5 AccDes= 0.00D+00
 HarFok:  IExCor=  205 AccDes= 0.00D+00 IRadAn=         5 IDoV=-2 UseB2=F ITyADJ=14
 ICtDFT= 12500011 ScaDFX=  1.000000  1.000000  1.000000  1.000000
 Range of M.O.s used for correlation:    15   236
 NBasis=   236 NAE=    52 NBE=    52 NFC=    14 NFV=     0
 NROrb=    222 NOA=    38 NOB=    38 NVA=   184 NVB=   184
 Fully direct method using O(ONN) memory.
 JobTyp=1 Pass  1:  I=  15 to  52 NPSUse=  4 ParTrn=T ParDer=T DoDerP=T.
 Spin components of T(2) and E(2):
     alpha-alpha T2 =       0.9195040071D-01 E2=     -0.2717902566D+00
     alpha-beta  T2 =       0.5011513013D+00 E2=     -0.1495390775D+01
     beta-beta   T2 =       0.9195040071D-01 E2=     -0.2717902566D+00
 ANorm=    0.1298095568D+01
 E2 =    -0.2038971288D+01 EUMP2 =    -0.66331052980175D+03
          IDoAtm=111111111111111111111111111
          Differentiating once with respect to electric field.
                with respect to dipole field.
          Differentiating once with respect to nuclear coordinates.
 Keep R1 ints in memory in canonical form, NReq=397723379.
          There are     1 degrees of freedom in the 1st order CPHF.  IDoFFX=0 NUNeed=     1.
 LinEq1:  Iter=  0 NonCon=     1 RMS=4.57D-03 Max=1.18D-01 NDo=     1
 AX will form     1 AO Fock derivatives at one time.
 LinEq1:  Iter=  1 NonCon=     1 RMS=1.55D-03 Max=4.02D-02 NDo=     1
 LinEq1:  Iter=  2 NonCon=     1 RMS=6.30D-04 Max=1.88D-02 NDo=     1
 LinEq1:  Iter=  3 NonCon=     1 RMS=2.94D-04 Max=9.23D-03 NDo=     1
 LinEq1:  Iter=  4 NonCon=     1 RMS=8.93D-05 Max=1.76D-03 NDo=     1
 LinEq1:  Iter=  5 NonCon=     1 RMS=3.76D-05 Max=2.03D-03 NDo=     1
 LinEq1:  Iter=  6 NonCon=     1 RMS=1.51D-05 Max=5.65D-04 NDo=     1
 LinEq1:  Iter=  7 NonCon=     1 RMS=6.04D-06 Max=1.17D-04 NDo=     1
 LinEq1:  Iter=  8 NonCon=     1 RMS=2.44D-06 Max=6.89D-05 NDo=     1
 LinEq1:  Iter=  9 NonCon=     1 RMS=9.21D-07 Max=2.57D-05 NDo=     1
 LinEq1:  Iter= 10 NonCon=     1 RMS=4.52D-07 Max=1.54D-05 NDo=     1
 LinEq1:  Iter= 11 NonCon=     1 RMS=1.60D-07 Max=5.75D-06 NDo=     1
 LinEq1:  Iter= 12 NonCon=     1 RMS=5.59D-08 Max=8.64D-07 NDo=     1
 LinEq1:  Iter= 13 NonCon=     1 RMS=1.82D-08 Max=2.60D-07 NDo=     1
 LinEq1:  Iter= 14 NonCon=     1 RMS=6.14D-09 Max=1.60D-07 NDo=     1
 LinEq1:  Iter= 15 NonCon=     1 RMS=2.39D-09 Max=5.73D-08 NDo=     1
 LinEq1:  Iter= 16 NonCon=     1 RMS=9.17D-10 Max=1.62D-08 NDo=     1
 LinEq1:  Iter= 17 NonCon=     1 RMS=2.83D-10 Max=4.38D-09 NDo=     1
 LinEq1:  Iter= 18 NonCon=     1 RMS=9.48D-11 Max=1.27D-09 NDo=     1
 LinEq1:  Iter= 19 NonCon=     0 RMS=3.17D-11 Max=7.73D-10 NDo=     1
 Linear equations converged to 1.000D-10 1.000D-09 after    19 iterations.
 End of Minotr F.D. properties file   721 does not exist.
 End of Minotr F.D. properties file   722 does not exist.
 End of Minotr F.D. properties file   788 does not exist.

 **********************************************************************

            Population analysis using the SCF Density.

 **********************************************************************

 Alpha  occ. eigenvalues --  -20.59872 -20.59375 -15.85298 -15.62489 -15.57651
 Alpha  occ. eigenvalues --  -11.35511 -11.30570 -11.30117 -11.29951 -11.27771
 Alpha  occ. eigenvalues --  -11.24587 -11.23842 -11.23413 -11.22838  -1.58520
 Alpha  occ. eigenvalues --   -1.38053  -1.28103  -1.22941  -1.13135  -1.08239
 Alpha  occ. eigenvalues --   -1.01783  -1.00466  -0.93322  -0.88970  -0.84844
 Alpha  occ. eigenvalues --   -0.81520  -0.78063  -0.76740  -0.73830  -0.71023
 Alpha  occ. eigenvalues --   -0.70251  -0.69808  -0.67420  -0.64674  -0.63387
 Alpha  occ. eigenvalues --   -0.61514  -0.60627  -0.57291  -0.56316  -0.54925
 Alpha  occ. eigenvalues --   -0.53188  -0.50725  -0.48933  -0.48231  -0.47696
 Alpha  occ. eigenvalues --   -0.47274  -0.45908  -0.45839  -0.43976  -0.42054
 Alpha  occ. eigenvalues --   -0.40683  -0.33968
 Alpha virt. eigenvalues --    0.07136   0.11866   0.19061   0.20540   0.22403
 Alpha virt. eigenvalues --    0.24039   0.26434   0.27274   0.28528   0.28912
 Alpha virt. eigenvalues --    0.29804   0.31224   0.31973   0.32158   0.33320
 Alpha virt. eigenvalues --    0.33634   0.34390   0.35538   0.37470   0.38545
 Alpha virt. eigenvalues --    0.40652   0.42676   0.44777   0.45422   0.45698
 Alpha virt. eigenvalues --    0.46022   0.49462   0.52789   0.56725   0.58328
 Alpha virt. eigenvalues --    0.63080   0.68998   0.69988   0.72264   0.73847
 Alpha virt. eigenvalues --    0.75501   0.75604   0.76387   0.77608   0.79587
 Alpha virt. eigenvalues --    0.80190   0.83576   0.84744   0.86196   0.88032
 Alpha virt. eigenvalues --    0.88175   0.90154   0.91038   0.92033   0.93560
 Alpha virt. eigenvalues --    0.95875   0.97058   0.97814   1.00041   1.01883
 Alpha virt. eigenvalues --    1.02691   1.05191   1.06150   1.06517   1.08356
 Alpha virt. eigenvalues --    1.09362   1.10328   1.10483   1.11903   1.13043
 Alpha virt. eigenvalues --    1.13582   1.13871   1.14681   1.16401   1.17075
 Alpha virt. eigenvalues --    1.17725   1.19423   1.20458   1.21661   1.22412
 Alpha virt. eigenvalues --    1.24114   1.24571   1.24735   1.26845   1.28065
 Alpha virt. eigenvalues --    1.28355   1.31698   1.33066   1.36046   1.40506
 Alpha virt. eigenvalues --    1.41656   1.45138   1.46522   1.47511   1.50771
 Alpha virt. eigenvalues --    1.51631   1.56504   1.60699   1.62515   1.66950
 Alpha virt. eigenvalues --    1.69241   1.69344   1.72122   1.74734   1.76449
 Alpha virt. eigenvalues --    1.77834   1.81023   1.84098   1.89819   1.92268
 Alpha virt. eigenvalues --    1.94193   1.96626   1.98079   1.99493   2.00207
 Alpha virt. eigenvalues --    2.03326   2.04224   2.06111   2.08978   2.11810
 Alpha virt. eigenvalues --    2.12453   2.15851   2.17298   2.17743   2.19870
 Alpha virt. eigenvalues --    2.21241   2.23040   2.24974   2.25814   2.27372
 Alpha virt. eigenvalues --    2.29215   2.32473   2.34139   2.34948   2.37106
 Alpha virt. eigenvalues --    2.38616   2.39843   2.40848   2.43326   2.46820
 Alpha virt. eigenvalues --    2.48463   2.50347   2.51880   2.56311   2.57880
 Alpha virt. eigenvalues --    2.61391   2.62409   2.67089   2.68428   2.69003
 Alpha virt. eigenvalues --    2.70881   2.72098   2.75729   2.80166   2.80984
 Alpha virt. eigenvalues --    2.83279   2.85755   2.90123   2.92496   2.95633
 Alpha virt. eigenvalues --    2.96728   2.99118   3.01960   3.02661   3.05020
 Alpha virt. eigenvalues --    3.07206   3.11538   3.19675   3.22674   3.27019
 Alpha virt. eigenvalues --    3.29273   3.32966   3.35606   3.43716   3.56224
 Alpha virt. eigenvalues --    4.09609   4.23443   4.32343   4.35279   4.42592
 Alpha virt. eigenvalues --    4.54169   4.59775   4.61629   4.70523   4.77805
 Alpha virt. eigenvalues --    4.93377   4.99095   5.01897   5.11366
          Condensed to atoms (all electrons):
               1          2          3          4          5          6
     1  O    8.297128   0.317230  -0.088413  -0.082354   0.003354  -0.000016
     2  N    0.317230   5.681763   0.307727   0.267780  -0.042390   0.000967
     3  O   -0.088413   0.307727   8.330556  -0.086846   0.007618   0.000407
     4  C   -0.082354   0.267780  -0.086846   5.236816   0.579823  -0.051815
     5  C    0.003354  -0.042390   0.007618   0.579823   4.656626   0.302126
     6  N   -0.000016   0.000967   0.000407  -0.051815   0.302126   7.216503
     7  C    0.000004  -0.000089   0.000004   0.001687  -0.029576   0.198379
     8  H   -0.000000   0.000003  -0.000000   0.000030   0.001833  -0.052725
     9  C   -0.000000  -0.000002   0.000000   0.000251   0.002008  -0.052110
    10  C   -0.000000   0.000000  -0.000000  -0.000010  -0.000067   0.003201
    11  C    0.000000  -0.000000  -0.000000  -0.000028   0.000012  -0.000155
    12  C   -0.000000   0.000003  -0.000000   0.000195  -0.000027   0.003404
    13  C   -0.000037  -0.000051  -0.000009  -0.016266  -0.000400  -0.041397
    14  H   -0.000004  -0.000030  -0.000003   0.003869   0.004862  -0.005449
    15  N   -0.000272   0.001765  -0.000015  -0.064157  -0.003515   0.001199
    16  C    0.006481  -0.032106   0.001916   0.321428  -0.040193  -0.001717
    17  H    0.000084  -0.003524   0.010412  -0.031181   0.380004  -0.037433
    18  H    0.000000  -0.000035   0.000006   0.000976  -0.022291   0.326105
    19  H    0.000000   0.000000   0.000000  -0.000415   0.000299   0.001151
    20  H    0.000000  -0.000000   0.000000  -0.000007   0.000048  -0.002426
    21  H    0.000000  -0.000000   0.000000  -0.000000   0.000001  -0.000054
    22  H   -0.000000   0.000000  -0.000000   0.000000  -0.000002  -0.000095
    23  H   -0.000000  -0.000000   0.000000   0.000023  -0.000000  -0.000023
    24  H   -0.000000   0.000000   0.000000   0.000000  -0.000000   0.000004
    25  H    0.000000  -0.000000   0.000000   0.000016   0.000001  -0.000069
    26  H   -0.000000  -0.000000   0.000000   0.000012   0.000000  -0.000067
    27  H    0.003490  -0.000275  -0.000023  -0.063742   0.002054   0.000191
               7          8          9         10         11         12
     1  O    0.000004  -0.000000  -0.000000  -0.000000   0.000000  -0.000000
     2  N   -0.000089   0.000003  -0.000002   0.000000  -0.000000   0.000003
     3  O    0.000004  -0.000000   0.000000  -0.000000  -0.000000  -0.000000
     4  C    0.001687   0.000030   0.000251  -0.000010  -0.000028   0.000195
     5  C   -0.029576   0.001833   0.002008  -0.000067   0.000012  -0.000027
     6  N    0.198379  -0.052725  -0.052110   0.003201  -0.000155   0.003404
     7  C    4.974428   0.417873   0.339524  -0.048871  -0.007533  -0.062435
     8  H    0.417873   0.552822  -0.061967   0.001869  -0.000461  -0.002275
     9  C    0.339524  -0.061967   5.181181   0.317007  -0.052780  -0.006896
    10  C   -0.048871   0.001869   0.317007   5.126605   0.332538  -0.059317
    11  C   -0.007533  -0.000461  -0.052780   0.332538   5.122501   0.330963
    12  C   -0.062435  -0.002275  -0.006896  -0.059317   0.330963   5.135869
    13  C    0.342720  -0.043952  -0.045990  -0.002423  -0.047718   0.363560
    14  H   -0.038053  -0.000857   0.003733  -0.000395   0.003937  -0.041030
    15  N   -0.055195   0.003981  -0.012248   0.001405  -0.007433  -0.072274
    16  C   -0.005795   0.000292  -0.001861   0.000049  -0.000050   0.003701
    17  H    0.001475   0.000026  -0.000063   0.000001   0.000000   0.000001
    18  H   -0.027038  -0.001477   0.000553  -0.000115   0.000010  -0.000115
    19  H   -0.035314   0.004239   0.384734  -0.032265  -0.002455   0.000724
    20  H   -0.041237  -0.002055   0.397639  -0.037635   0.004171  -0.000345
    21  H    0.004003  -0.000086  -0.035805   0.400298  -0.035905   0.004182
    22  H   -0.003955   0.003502  -0.045756   0.396048  -0.045614  -0.001308
    23  H    0.000366   0.000036  -0.002061  -0.040117   0.396811  -0.036985
    24  H   -0.000140  -0.000090   0.004397  -0.038525   0.400290  -0.037763
    25  H    0.004853  -0.000005  -0.000361   0.004101  -0.034372   0.396218
    26  H   -0.004396   0.001828   0.000950  -0.002328  -0.042463   0.394901
    27  H   -0.000430   0.000011  -0.000072   0.000007   0.000002  -0.000021
              13         14         15         16         17         18
     1  O   -0.000037  -0.000004  -0.000272   0.006481   0.000084   0.000000
     2  N   -0.000051  -0.000030   0.001765  -0.032106  -0.003524  -0.000035
     3  O   -0.000009  -0.000003  -0.000015   0.001916   0.010412   0.000006
     4  C   -0.016266   0.003869  -0.064157   0.321428  -0.031181   0.000976
     5  C   -0.000400   0.004862  -0.003515  -0.040193   0.380004  -0.022291
     6  N   -0.041397  -0.005449   0.001199  -0.001717  -0.037433   0.326105
     7  C    0.342720  -0.038053  -0.055195  -0.005795   0.001475  -0.027038
     8  H   -0.043952  -0.000857   0.003981   0.000292   0.000026  -0.001477
     9  C   -0.045990   0.003733  -0.012248  -0.001861  -0.000063   0.000553
    10  C   -0.002423  -0.000395   0.001405   0.000049   0.000001  -0.000115
    11  C   -0.047718   0.003937  -0.007433  -0.000050   0.000000   0.000010
    12  C    0.363560  -0.041030  -0.072274   0.003701   0.000001  -0.000115
    13  C    5.045145   0.398669   0.238000  -0.073788  -0.000062   0.003387
    14  H    0.398669   0.516682  -0.034823  -0.004611   0.000154  -0.000003
    15  N    0.238000  -0.034823   6.913314   0.576510  -0.000105  -0.000124
    16  C   -0.073788  -0.004611   0.576510   4.722514   0.002042  -0.000298
    17  H   -0.000062   0.000154  -0.000105   0.002042   0.398264  -0.001263
    18  H    0.003387  -0.000003  -0.000124  -0.000298  -0.001263   0.323164
    19  H   -0.006407   0.000062   0.006762   0.002961   0.000010  -0.000088
    20  H    0.003780  -0.000044   0.000063  -0.000034   0.000001   0.003173
    21  H   -0.000349   0.000008  -0.000021   0.000001  -0.000000  -0.000001
    22  H    0.000341  -0.000047  -0.000004  -0.000002  -0.000000   0.000003
    23  H   -0.005446   0.000005   0.006376  -0.000035   0.000000   0.000000
    24  H    0.004084  -0.000056   0.000058   0.000006   0.000000  -0.000000
    25  H   -0.034955  -0.002642   0.000141  -0.000071  -0.000000   0.000002
    26  H   -0.044459  -0.001021   0.004091  -0.000104   0.000000  -0.000001
    27  H    0.005157  -0.000217  -0.039168   0.401354  -0.000055   0.000006
              19         20         21         22         23         24
     1  O    0.000000   0.000000   0.000000  -0.000000  -0.000000  -0.000000
     2  N    0.000000  -0.000000  -0.000000   0.000000  -0.000000   0.000000
     3  O    0.000000   0.000000   0.000000  -0.000000   0.000000   0.000000
     4  C   -0.000415  -0.000007  -0.000000   0.000000   0.000023   0.000000
     5  C    0.000299   0.000048   0.000001  -0.000002  -0.000000  -0.000000
     6  N    0.001151  -0.002426  -0.000054  -0.000095  -0.000023   0.000004
     7  C   -0.035314  -0.041237   0.004003  -0.003955   0.000366  -0.000140
     8  H    0.004239  -0.002055  -0.000086   0.003502   0.000036  -0.000090
     9  C    0.384734   0.397639  -0.035805  -0.045756  -0.002061   0.004397
    10  C   -0.032265  -0.037635   0.400298   0.396048  -0.040117  -0.038525
    11  C   -0.002455   0.004171  -0.035905  -0.045614   0.396811   0.400290
    12  C    0.000724  -0.000345   0.004182  -0.001308  -0.036985  -0.037763
    13  C   -0.006407   0.003780  -0.000349   0.000341  -0.005446   0.004084
    14  H    0.000062  -0.000044   0.000008  -0.000047   0.000005  -0.000056
    15  N    0.006762   0.000063  -0.000021  -0.000004   0.006376   0.000058
    16  C    0.002961  -0.000034   0.000001  -0.000002  -0.000035   0.000006
    17  H    0.000010   0.000001  -0.000000  -0.000000   0.000000   0.000000
    18  H   -0.000088   0.003173  -0.000001   0.000003   0.000000  -0.000000
    19  H    0.508492  -0.024366  -0.002627   0.003775   0.001667  -0.000066
    20  H   -0.024366   0.550931  -0.002558  -0.003025  -0.000051  -0.000090
    21  H   -0.002627  -0.002558   0.526424  -0.024734  -0.002832  -0.002034
    22  H    0.003775  -0.003025  -0.024734   0.568004   0.004077  -0.003601
    23  H    0.001667  -0.000051  -0.002832   0.004077   0.511545  -0.025084
    24  H   -0.000066  -0.000090  -0.002034  -0.003601  -0.025084   0.541166
    25  H   -0.000028   0.000011  -0.000086  -0.000082  -0.002149  -0.002360
    26  H    0.000026  -0.000036  -0.000076   0.002496   0.003845  -0.002822
    27  H    0.000083  -0.000000  -0.000000   0.000000  -0.000017  -0.000000
              25         26         27
     1  O    0.000000  -0.000000   0.003490
     2  N   -0.000000  -0.000000  -0.000275
     3  O    0.000000   0.000000  -0.000023
     4  C    0.000016   0.000012  -0.063742
     5  C    0.000001   0.000000   0.002054
     6  N   -0.000069  -0.000067   0.000191
     7  C    0.004853  -0.004396  -0.000430
     8  H   -0.000005   0.001828   0.000011
     9  C   -0.000361   0.000950  -0.000072
    10  C    0.004101  -0.002328   0.000007
    11  C   -0.034372  -0.042463   0.000002
    12  C    0.396218   0.394901  -0.000021
    13  C   -0.034955  -0.044459   0.005157
    14  H   -0.002642  -0.001021  -0.000217
    15  N    0.000141   0.004091  -0.039168
    16  C   -0.000071  -0.000104   0.401354
    17  H   -0.000000   0.000000  -0.000055
    18  H    0.000002  -0.000001   0.000006
    19  H   -0.000028   0.000026   0.000083
    20  H    0.000011  -0.000036  -0.000000
    21  H   -0.000086  -0.000076  -0.000000
    22  H   -0.000082   0.002496   0.000000
    23  H   -0.002149   0.003845  -0.000017
    24  H   -0.002360  -0.002822  -0.000000
    25  H    0.512232  -0.023039  -0.000005
    26  H   -0.023039   0.559429   0.000001
    27  H   -0.000005   0.000001   0.460493
 Mulliken charges:
               1
     1  O   -0.456675
     2  N    0.501265
     3  O   -0.483336
     4  C   -0.016084
     5  C    0.197793
     6  N   -0.808086
     7  C    0.074740
     8  H    0.177603
     9  C   -0.314004
    10  C   -0.321061
    11  C   -0.314269
    12  C   -0.312929
    13  C   -0.041135
    14  H    0.197305
    15  N   -0.464311
    16  C    0.121409
    17  H    0.281211
    18  H    0.395463
    19  H    0.189046
    20  H    0.154094
    21  H    0.172250
    22  H    0.149978
    23  H    0.190049
    24  H    0.162625
    25  H    0.182649
    26  H    0.153231
    27  H    0.231178
 Sum of Mulliken charges =  -0.00000
 Mulliken charges with hydrogens summed into heavy atoms:
               1
     1  O   -0.456675
     2  N    0.501265
     3  O   -0.483336
     4  C   -0.016084
     5  C    0.479005
     6  N   -0.412623
     7  C    0.252343
     9  C    0.029135
    10  C    0.001167
    11  C    0.038406
    12  C    0.022952
    13  C    0.156170
    15  N   -0.464311
    16  C    0.352587
 Electronic spatial extent (au):  <R**2>=           3080.9339
 Charge=              0.0000 electrons
 Dipole moment (field-independent basis, Debye):
    X=              5.1042    Y=              4.5964    Z=             -0.4023  Tot=              6.8805
 Quadrupole moment (field-independent basis, Debye-Ang):
   XX=           -103.9340   YY=            -80.9781   ZZ=            -82.3043
   XY=             -3.3557   XZ=              4.5220   YZ=             -0.7403
 Traceless Quadrupole moment (field-independent basis, Debye-Ang):
   XX=            -14.8619   YY=              8.0941   ZZ=              6.7678
   XY=             -3.3557   XZ=              4.5220   YZ=             -0.7403
 Octapole moment (field-independent basis, Debye-Ang**2):
  XXX=             88.6439  YYY=             40.4780  ZZZ=            -11.4716  XYY=             -1.2312
  XXY=             17.4186  XXZ=            -18.6889  XZZ=             -7.7491  YZZ=             -2.2943
  YYZ=             -3.6445  XYZ=             -2.6723
 Hexadecapole moment (field-independent basis, Debye-Ang**3):
 XXXX=          -3435.4730 YYYY=           -628.7870 ZZZZ=           -310.8668 XXXY=            -83.2337
 XXXZ=            156.8067 YYYX=            -53.7436 YYYZ=              8.9204 ZZZX=             88.4434
 ZZZY=             18.7866 XXYY=           -644.6167 XXZZ=           -544.3246 YYZZ=           -165.6234
 XXYZ=              5.6587 YYXZ=             33.5190 ZZXY=             -2.6864
 N-N= 9.204088513807D+02 E-N=-3.386863908807D+03  KE= 6.588535854470D+02
 Calling FoFJK, ICntrl=  10002127 FMM=F ISym2X=0 I1Cent= 0 IOpClX= 0 NMat=1 NMatS=1 NMatT=0.
 -------------------------------------------------------------------
 Center     Atomic                   Forces (Hartrees/Bohr)
 Number     Number              X              Y              Z
 -------------------------------------------------------------------
      1        8           0.002800055   -0.019602249   -0.006595422
      2        7           0.037578536    0.018393709   -0.007703618
      3        8          -0.006277511    0.014595817    0.005528451
      4        6          -0.005478780    0.022516438    0.004730371
      5        6           0.002390004   -0.023136869   -0.001613873
      6        7           0.016093554   -0.013873147   -0.005377228
      7        6          -0.007557418    0.005436164    0.005081915
      8        1          -0.007812850   -0.002513543   -0.007728263
      9        6          -0.005240761   -0.000651241   -0.002853569
     10        6           0.002902906   -0.000639977    0.001710603
     11        6          -0.001681243   -0.004932085   -0.002939207
     12        6           0.001697015   -0.008046705   -0.002439715
     13        6           0.014248470   -0.004832342    0.008101206
     14        1           0.000097861    0.005504879   -0.010685851
     15        7          -0.000126109    0.012190672   -0.010697994
     16        6          -0.020338517   -0.006561148    0.018503731
     17        1           0.005548617   -0.004203594   -0.008828116
     18        1          -0.015877637   -0.001582075    0.008277645
     19        1           0.002831635    0.006118673    0.007925878
     20        1          -0.003637260   -0.007114828    0.002453156
     21        1          -0.005144135    0.002463972    0.009245418
     22        1          -0.003387927   -0.003972274   -0.007759273
     23        1           0.003648629    0.006152085    0.009528048
     24        1          -0.009140333    0.002820212   -0.002775379
     25        1          -0.000328467    0.010507313   -0.002207782
     26        1          -0.004628259   -0.004849559   -0.004707971
     27        1           0.006819923   -0.000188297    0.003826839
 -------------------------------------------------------------------
 Cartesian Forces:  Max     0.037578536 RMS     0.009509701

 GradGradGradGradGradGradGradGradGradGradGradGradGradGradGradGradGradGrad
 Berny optimization.
 FormGI is forming the generalized inverse of G from B-inverse, IUseBI=4.
 Internal  Forces:  Max     0.038626191 RMS     0.006903499
 Search for a local minimum.
 Step number   1 out of a maximum of   20
 All quantities printed in internal units (Hartrees-Bohrs-Radians)
 Mixed Optimization -- RFO/linear search
 Second derivative matrix not updated -- first step.
 ITU=  0
     Eigenvalues ---    0.00230   0.00751   0.01025   0.01146   0.01176
     Eigenvalues ---    0.01518   0.01653   0.01884   0.02003   0.02063
     Eigenvalues ---    0.02650   0.03595   0.04479   0.04674   0.04838
     Eigenvalues ---    0.05079   0.05131   0.05300   0.05872   0.06255
     Eigenvalues ---    0.07194   0.07724   0.07739   0.07915   0.07991
     Eigenvalues ---    0.08062   0.08143   0.10467   0.11752   0.12276
     Eigenvalues ---    0.13580   0.15351   0.15818   0.15931   0.16046
     Eigenvalues ---    0.19963   0.21587   0.21858   0.24872   0.25000
     Eigenvalues ---    0.25000   0.25229   0.25933   0.26644   0.27993
     Eigenvalues ---    0.28107   0.28372   0.30169   0.30350   0.31521
     Eigenvalues ---    0.32007   0.32226   0.32284   0.32372   0.32387
     Eigenvalues ---    0.32409   0.32502   0.32519   0.32558   0.32909
     Eigenvalues ---    0.33397   0.33653   0.34953   0.43862   0.43876
     Eigenvalues ---    0.47725   0.65599   0.90583   0.913041000.00000
     Eigenvalues --- 1000.000001000.000001000.000001000.000001000.00000
     Eigenvalues --- 1000.000001000.000001000.000001000.000001000.00000
     Eigenvalues --- 1000.000001000.000001000.000001000.000001000.00000
     Eigenvalues --- 1000.000001000.000001000.000001000.000001000.00000
     Eigenvalues --- 1000.000001000.000001000.000001000.000001000.00000
     Eigenvalues --- 1000.000001000.000001000.000001000.000001000.00000
     Eigenvalues --- 1000.000001000.000001000.000001000.000001000.00000
     Eigenvalues --- 1000.000001000.000001000.000001000.000001000.00000
     Eigenvalues --- 1000.000001000.000001000.000001000.000001000.00000
     Eigenvalues --- 1000.000001000.000001000.000001000.000001000.00000
     Eigenvalues --- 1000.000001000.000001000.000001000.000001000.00000
     Eigenvalues --- 1000.000001000.000001000.000001000.000001000.00000
     Eigenvalues --- 1000.000001000.000001000.000001000.000001000.00000
     Eigenvalues --- 1000.000001000.000001000.000001000.000001000.00000
     Eigenvalues --- 1000.000001000.000001000.000001000.000001000.00000
     Eigenvalues --- 1000.000001000.000001000.000001000.000001000.00000
     Eigenvalues --- 1000.000001000.000001000.000001000.000001000.00000
     Eigenvalues --- 1000.000001000.000001000.000001000.000001000.00000
     Eigenvalues --- 1000.00000
 RFO step:  Lambda=-2.43465973D-02 EMin= 2.30251535D-03
 Linear search not attempted -- first point.
 Iteration  1 RMS(Cart)=  0.05591205 RMS(Int)=  0.00101711
 Iteration  2 RMS(Cart)=  0.00121834 RMS(Int)=  0.00026064
 Iteration  3 RMS(Cart)=  0.00000129 RMS(Int)=  0.00026064
 Iteration  4 RMS(Cart)=  0.00000000 RMS(Int)=  0.00026064
 Iteration  1 RMS(Cart)=  0.00005382 RMS(Int)=  0.00004044
 Iteration  2 RMS(Cart)=  0.00002384 RMS(Int)=  0.00004501
 Iteration  3 RMS(Cart)=  0.00001143 RMS(Int)=  0.00004987
 Iteration  4 RMS(Cart)=  0.00000608 RMS(Int)=  0.00005284
 Iteration  5 RMS(Cart)=  0.00000357 RMS(Int)=  0.00005457
 Iteration  6 RMS(Cart)=  0.00000227 RMS(Int)=  0.00005559
 Iteration  7 RMS(Cart)=  0.00000153 RMS(Int)=  0.00005620
 Iteration  8 RMS(Cart)=  0.00000108 RMS(Int)=  0.00005658
 Iteration  9 RMS(Cart)=  0.00000080 RMS(Int)=  0.00005683
 Variable       Old X    -DE/DX   Delta X   Delta X   Delta X     New X
                                 (Linear)    (Quad)   (Total)
    R1        2.32338   0.01910   0.00000   0.02037   0.02037   2.34375
    R2        2.32666   0.01598   0.00000   0.01717   0.01717   2.34383
    R3        2.87271  -0.03747   0.00000  -0.11430  -0.11430   2.75841
    R4        2.64624  -0.03863   0.00000  -0.08443  -0.08424   2.56200
    R5        2.80642  -0.01468   0.00000  -0.04233  -0.04208   2.76434
    R6        2.59950  -0.02189   0.00000  -0.04413  -0.04413   2.55537
    R7        2.08361  -0.00952   0.00000  -0.02656  -0.02656   2.05704
    R8        2.84191  -0.02026   0.00000  -0.05704  -0.05716   2.78475
    R9        1.93304  -0.00729   0.00000  -0.01574  -0.01574   1.91730
   R10        2.11730  -0.01087   0.00000  -0.03200  -0.03200   2.08530
   R11        2.92553  -0.01370   0.00000  -0.04639  -0.04646   2.87907
   R12        2.91392  -0.00786   0.00000  -0.01772  -0.01772   2.89621
   R13        2.91024  -0.00454   0.00000  -0.01337  -0.01340   2.89685
   R14        2.09935  -0.01022   0.00000  -0.02925  -0.02925   2.07010
   R15        2.09905  -0.00791   0.00000  -0.02263  -0.02263   2.07641
   R16        2.90388  -0.00219   0.00000  -0.00757  -0.00764   2.89623
   R17        2.10141  -0.01061   0.00000  -0.03047  -0.03047   2.07094
   R18        2.10327  -0.00906   0.00000  -0.02610  -0.02610   2.07717
   R19        2.91837  -0.00912   0.00000  -0.02891  -0.02884   2.88952
   R20        2.10432  -0.01180   0.00000  -0.03404  -0.03404   2.07027
   R21        2.10101  -0.00994   0.00000  -0.02852  -0.02852   2.07249
   R22        2.93656  -0.01028   0.00000  -0.03606  -0.03603   2.90053
   R23        2.10168  -0.01057   0.00000  -0.03038  -0.03038   2.07130
   R24        2.09835  -0.00795   0.00000  -0.02271  -0.02271   2.07564
   R25        2.10830  -0.00920   0.00000  -0.02671  -0.02671   2.08159
   R26        2.77366  -0.00533   0.00000  -0.01150  -0.01175   2.76191
   R27        2.44601  -0.00809   0.00000  -0.01153  -0.01150   2.43451
   R28        2.07920  -0.00566   0.00000  -0.01570  -0.01570   2.06350
    A1        2.16517   0.01051   0.00000   0.03833   0.03829   2.20346
    A2        2.05111  -0.00878   0.00000  -0.03198  -0.03202   2.01909
    A3        2.06687  -0.00172   0.00000  -0.00622  -0.00626   2.06060
    A4        2.05545  -0.00434   0.00000  -0.01712  -0.01796   2.03748
    A5        2.05121  -0.00454   0.00000  -0.01689  -0.01782   2.03340
    A6        2.17212   0.00883   0.00000   0.02733   0.02656   2.19868
    A7        2.16030   0.00415   0.00000   0.00824   0.00829   2.16858
    A8        2.07759  -0.00193   0.00000  -0.00300  -0.00308   2.07451
    A9        2.04119  -0.00206   0.00000  -0.00367  -0.00379   2.03741
   A10        2.22787  -0.00183   0.00000  -0.00675  -0.00700   2.22087
   A11        2.14057  -0.01317   0.00000  -0.07227  -0.07227   2.06830
   A12        1.90064   0.01508   0.00000   0.08105   0.08124   1.98188
   A13        1.83455  -0.00006   0.00000  -0.01332  -0.01313   1.82141
   A14        2.00782  -0.00383   0.00000  -0.01859  -0.01848   1.98934
   A15        1.96265   0.00265   0.00000   0.01533   0.01481   1.97746
   A16        1.85103   0.00286   0.00000   0.02227   0.02209   1.87312
   A17        1.84719  -0.00041   0.00000   0.00666   0.00662   1.85381
   A18        1.94566  -0.00083   0.00000  -0.00962  -0.00920   1.93646
   A19        1.91264  -0.00013   0.00000  -0.00495  -0.00515   1.90749
   A20        1.92211  -0.00060   0.00000  -0.01011  -0.01005   1.91207
   A21        1.92261  -0.00160   0.00000  -0.00925  -0.00919   1.91342
   A22        1.91811  -0.00010   0.00000   0.00782   0.00784   1.92596
   A23        1.90370   0.00290   0.00000   0.02216   0.02217   1.92587
   A24        1.88441  -0.00045   0.00000  -0.00528  -0.00555   1.87886
   A25        1.93993  -0.00080   0.00000   0.00649   0.00633   1.94626
   A26        1.91934  -0.00086   0.00000  -0.00686  -0.00687   1.91247
   A27        1.90499   0.00046   0.00000  -0.00299  -0.00303   1.90196
   A28        1.91625   0.00098   0.00000   0.00763   0.00770   1.92394
   A29        1.89840   0.00145   0.00000   0.00976   0.00980   1.90820
   A30        1.88390  -0.00122   0.00000  -0.01455  -0.01464   1.86926
   A31        1.94594   0.00004   0.00000   0.00394   0.00410   1.95004
   A32        1.90181   0.00066   0.00000   0.00473   0.00465   1.90646
   A33        1.91799   0.00060   0.00000   0.00597   0.00595   1.92395
   A34        1.90462  -0.00058   0.00000  -0.01153  -0.01158   1.89304
   A35        1.91559  -0.00055   0.00000  -0.00057  -0.00067   1.91492
   A36        1.87647  -0.00019   0.00000  -0.00289  -0.00291   1.87355
   A37        1.95725  -0.00316   0.00000  -0.01962  -0.01961   1.93763
   A38        1.90464   0.00253   0.00000   0.01674   0.01655   1.92120
   A39        1.90769   0.00161   0.00000   0.01500   0.01499   1.92268
   A40        1.90442   0.00029   0.00000  -0.00157  -0.00139   1.90303
   A41        1.90831  -0.00021   0.00000  -0.00515  -0.00511   1.90321
   A42        1.87993  -0.00098   0.00000  -0.00489  -0.00508   1.87485
   A43        1.84471   0.00477   0.00000   0.02732   0.02735   1.87207
   A44        1.95284  -0.00470   0.00000  -0.03635  -0.03711   1.91573
   A45        1.96239  -0.00013   0.00000  -0.00188  -0.00191   1.96048
   A46        1.86530   0.00280   0.00000   0.04019   0.04065   1.90595
   A47        1.89173  -0.00207   0.00000  -0.02137  -0.02124   1.87049
   A48        1.94059  -0.00017   0.00000  -0.00355  -0.00378   1.93681
   A49        2.03062  -0.00489   0.00000  -0.01447  -0.01474   2.01588
   A50        2.19725  -0.00027   0.00000  -0.00550  -0.00530   2.19195
   A51        1.99378   0.00619   0.00000   0.03443   0.03418   2.02796
   A52        2.08469  -0.00510   0.00000  -0.02584  -0.02610   2.05860
    D1       -3.09362  -0.00143   0.00000  -0.07108  -0.06975   3.11981
    D2        0.14413  -0.00139   0.00000   0.00000  -0.00000   0.14412
    D3        0.03968  -0.00053   0.00000  -0.05444  -0.05377  -0.01409
    D4       -3.00576  -0.00048   0.00000   0.01664   0.01597  -2.98978
    D5        3.01196   0.00075   0.00000   0.02400   0.02423   3.03619
    D6       -0.02922  -0.00115   0.00000   0.00506   0.00526  -0.02396
    D7       -0.23307  -0.00017   0.00000  -0.05536  -0.05598  -0.28904
    D8        3.00893  -0.00208   0.00000  -0.07430  -0.07494   2.93399
    D9       -2.33574  -0.00724   0.00000  -0.07920  -0.08005  -2.41580
   D10        0.67325  -0.00029   0.00000  -0.05348  -0.05386   0.61940
   D11        0.90906  -0.00633   0.00000   0.00000   0.00000   0.90906
   D12       -2.36513   0.00063   0.00000   0.02572   0.02620  -2.33893
   D13       -0.37161   0.00109   0.00000   0.05987   0.05992  -0.31169
   D14        2.56982   0.00316   0.00000   0.08230   0.08176   2.65157
   D15        2.67150   0.00296   0.00000   0.07847   0.07854   2.75004
   D16       -0.67025   0.00503   0.00000   0.10089   0.10038  -0.56988
   D17       -2.21276  -0.00162   0.00000  -0.03845  -0.03821  -2.25096
   D18        2.04141  -0.00305   0.00000  -0.04714  -0.04703   1.99438
   D19       -0.21134  -0.00085   0.00000  -0.03080  -0.03086  -0.24220
   D20        1.10673  -0.00101   0.00000  -0.04501  -0.04522   1.06151
   D21       -0.92229  -0.00243   0.00000  -0.05370  -0.05404  -0.97633
   D22        3.10815  -0.00024   0.00000  -0.03736  -0.03787   3.07027
   D23        2.94827   0.00194   0.00000   0.01309   0.01299   2.96126
   D24       -1.22288   0.00136   0.00000   0.01319   0.01310  -1.20978
   D25        0.85376  -0.00056   0.00000  -0.00537  -0.00538   0.84839
   D26        0.92868   0.00223   0.00000   0.02497   0.02496   0.95365
   D27        3.04072   0.00165   0.00000   0.02507   0.02507   3.06579
   D28       -1.16582  -0.00028   0.00000   0.00651   0.00660  -1.15923
   D29       -1.07379   0.00151   0.00000   0.00928   0.00923  -1.06456
   D30        1.03824   0.00093   0.00000   0.00938   0.00934   1.04758
   D31        3.11488  -0.00100   0.00000  -0.00919  -0.00914   3.10575
   D32       -2.91313  -0.00276   0.00000  -0.00996  -0.00984  -2.92297
   D33       -0.88916   0.00098   0.00000   0.03541   0.03494  -0.85422
   D34        1.30936  -0.00313   0.00000   0.00000   0.00000   1.30937
   D35       -0.91941  -0.00175   0.00000  -0.01434  -0.01419  -0.93360
   D36        1.10456   0.00198   0.00000   0.03103   0.03059   1.13515
   D37       -2.98010  -0.00212   0.00000  -0.00438  -0.00435  -2.98445
   D38        1.08544   0.00099   0.00000   0.01101   0.01112   1.09655
   D39        3.10941   0.00472   0.00000   0.05638   0.05589  -3.11789
   D40       -0.97525   0.00062   0.00000   0.02097   0.02096  -0.95430
   D41        0.95665   0.00051   0.00000   0.00000   0.00001   0.95666
   D42        3.08238   0.00062   0.00000   0.00930   0.00926   3.09164
   D43       -1.13723  -0.00109   0.00000  -0.01422  -0.01419  -1.15142
   D44       -1.15780   0.00139   0.00000   0.01071   0.01078  -1.14702
   D45        0.96793   0.00150   0.00000   0.02001   0.02004   0.98796
   D46        3.03151  -0.00021   0.00000  -0.00351  -0.00341   3.02810
   D47        3.06268   0.00027   0.00000  -0.00067  -0.00073   3.06195
   D48       -1.09478   0.00038   0.00000   0.00863   0.00852  -1.08626
   D49        0.96880  -0.00133   0.00000  -0.01489  -0.01492   0.95387
   D50       -0.92193  -0.00114   0.00000   0.00000   0.00001  -0.92192
   D51        1.18137  -0.00140   0.00000  -0.00876  -0.00877   1.17259
   D52       -3.04992  -0.00089   0.00000  -0.00604  -0.00608  -3.05600
   D53       -3.04945  -0.00018   0.00000  -0.00085  -0.00083  -3.05028
   D54       -0.94616  -0.00044   0.00000  -0.00961  -0.00961  -0.95577
   D55        1.10573   0.00006   0.00000  -0.00689  -0.00692   1.09882
   D56        1.17586  -0.00013   0.00000   0.00661   0.00664   1.18250
   D57       -3.00403  -0.00038   0.00000  -0.00215  -0.00214  -3.00617
   D58       -0.95214   0.00012   0.00000   0.00057   0.00055  -0.95158
   D59        0.98418  -0.00075   0.00000  -0.01421  -0.01428   0.96990
   D60        3.09638  -0.00071   0.00000  -0.01748  -0.01766   3.07872
   D61       -1.13501   0.00049   0.00000  -0.00512  -0.00511  -1.14013
   D62       -1.11747  -0.00122   0.00000  -0.01499  -0.01501  -1.13248
   D63        0.99473  -0.00118   0.00000  -0.01827  -0.01838   0.97634
   D64        3.04652   0.00002   0.00000  -0.00591  -0.00584   3.04069
   D65        3.11357  -0.00033   0.00000  -0.00441  -0.00442   3.10915
   D66       -1.05742  -0.00029   0.00000  -0.00768  -0.00780  -1.06522
   D67        0.99437   0.00090   0.00000   0.00468   0.00475   0.99912
   D68       -1.03555  -0.00009   0.00000   0.00022   0.00037  -1.03518
   D69       -3.11833   0.00155   0.00000   0.00860   0.00809  -3.11024
   D70        1.07180   0.00131   0.00000   0.00193   0.00179   1.07359
   D71        3.13531  -0.00142   0.00000  -0.00706  -0.00680   3.12850
   D72        1.05253   0.00021   0.00000   0.00132   0.00091   1.05344
   D73       -1.04052  -0.00002   0.00000  -0.00535  -0.00539  -1.04591
   D74        1.08328  -0.00028   0.00000   0.00270   0.00300   1.08628
   D75       -0.99949   0.00136   0.00000   0.01108   0.01072  -0.98878
   D76       -3.09255   0.00112   0.00000   0.00441   0.00441  -3.08814
   D77       -1.17215   0.00335   0.00000   0.00000   0.00000  -1.17215
   D78        3.07831  -0.00113   0.00000  -0.01902  -0.01906   3.05925
   D79        1.03299  -0.00318   0.00000  -0.05290  -0.05332   0.97967
   D80       -0.13123   0.00976   0.00000   0.03987   0.03959  -0.09164
   D81       -3.13393   0.00168   0.00000   0.00871   0.00879  -3.12514
         Item               Value     Threshold  Converged?
 Maximum Force            0.038518     0.000450     NO 
 RMS     Force            0.006955     0.000300     NO 
 Maximum Displacement     0.224485     0.001800     NO 
 RMS     Displacement     0.056407     0.001200     NO 
 Predicted change in Energy=-1.398221D-02
 GradGradGradGradGradGradGradGradGradGradGradGradGradGradGradGradGradGrad

                          Input orientation:                          
 ---------------------------------------------------------------------
 Center     Atomic      Atomic             Coordinates (Angstroms)
 Number     Number       Type             X           Y           Z
 ---------------------------------------------------------------------
      1          8           0       -3.362528   -1.537630   -0.004132
      2          7           0       -3.074513   -0.354440    0.231134
      3          8           0       -3.855822    0.527451    0.618659
      4          6           0       -1.678380    0.012082    0.013965
      5          6           0       -1.345409    1.306788    0.239634
      6          7           0       -0.081372    1.785548    0.200075
      7          6           0        1.169062    1.009676    0.277563
      8          1           0        1.753661    1.510995    1.067889
      9          6           0        2.002354    1.049258   -0.997283
     10          6           0        3.379710    0.435562   -0.721263
     11          6           0        3.259149   -0.977012   -0.139006
     12          6           0        2.342159   -1.008755    1.084176
     13          6           0        0.959061   -0.432953    0.750427
     14          1           0        0.334923   -0.440293    1.658045
     15          7           0        0.378908   -1.279470   -0.290212
     16          6           0       -0.831408   -0.993891   -0.626755
     17          1           0       -2.123866    2.004125    0.544008
     18          1           0        0.060180    2.758840   -0.049038
     19          1           0        1.488745    0.492226   -1.788444
     20          1           0        2.108451    2.088874   -1.336815
     21          1           0        3.964859    0.415001   -1.647630
     22          1           0        3.920920    1.076827   -0.011266
     23          1           0        2.845156   -1.647082   -0.900470
     24          1           0        4.249976   -1.361709    0.131275
     25          1           0        2.224285   -2.038955    1.439422
     26          1           0        2.784376   -0.426766    1.904040
     27          1           0       -1.309606   -1.611275   -1.389998
 ---------------------------------------------------------------------
                    Distance matrix (angstroms):
                    1          2          3          4          5
     1  O    0.000000
     2  N    1.240259   0.000000
     3  O    2.212638   1.240302   0.000000
     4  C    2.288730   1.459687   2.317868   0.000000
     5  C    3.495555   2.397822   2.655785   1.355751   0.000000
     6  N    4.674526   3.679593   4.000561   2.393795   1.352245
     7  C    5.206095   4.457679   5.059481   3.028631   2.532248
     8  H    6.051341   5.243212   5.712746   3.890553   3.214334
     9  C    6.038235   5.408692   6.099325   3.955523   3.578240
    10  C    7.061553   6.571769   7.359127   5.128759   4.899909
    11  C    6.646735   6.374941   7.311653   5.037946   5.153743
    12  C    5.831601   5.522332   6.402468   4.283946   4.435443
    13  C    4.523914   4.067622   4.911500   2.774262   2.932268
    14  H    4.199776   3.696985   4.424838   2.638376   2.808504
    15  N    3.761227   3.612976   4.692967   2.448073   3.153210
    16  C    2.662682   2.485235   3.607300   1.462828   2.511564
    17  H    3.791935   2.562118   2.277237   2.108943   1.088539
    18  H    5.493323   4.426885   4.556313   3.251345   2.041438
    19  H    5.553281   5.061508   5.861721   3.675581   3.578972
    20  H    6.697700   5.940654   6.467957   4.525237   3.876339
    21  H    7.759153   7.326292   8.143203   5.896558   5.705786
    22  H    7.738478   7.144464   7.821530   5.699691   5.277315
    23  H    6.273017   6.163922   7.206903   4.904223   5.252240
    24  H    7.615739   7.394099   8.337291   6.086581   6.200077
    25  H    5.792033   5.689887   6.650397   4.633516   5.037480
    26  H    6.531429   6.093474   6.830443   4.866329   4.778136
    27  H    2.478010   2.706030   3.884850   2.177704   3.342465
                    6          7          8          9         10
     6  N    0.000000
     7  C    1.473624   0.000000
     8  H    2.048372   1.103491   0.000000
     9  C    2.513504   1.523540   2.130724   0.000000
    10  C    3.827586   2.492834   2.646064   1.532944   0.000000
    11  C    4.348079   2.913575   3.148535   2.534155   1.532620
    12  C    3.803060   2.469989   2.587612   2.946753   2.534201
    13  C    2.511401   1.532606   2.123937   2.517916   2.963061
    14  H    2.693203   2.168854   2.483672   3.471289   3.962190
    15  N    3.137924   2.487348   3.394271   2.925491   3.483095
    16  C    2.995243   2.972197   3.978550   3.513112   4.448121
    17  H    2.082750   3.450116   3.943710   4.506999   5.860943
    18  H    1.014589   2.096631   2.381705   2.755699   4.107162
    19  H    2.844671   2.153679   3.044127   1.095451   2.172057
    20  H    2.692465   2.157160   2.498484   1.098791   2.174499
    21  H    4.654503   3.446228   3.669420   2.162559   1.095892
    22  H    4.070048   2.767788   2.459693   2.157287   1.099193
    23  H    4.643136   3.354909   3.878047   2.826648   2.157607
    24  H    5.354487   3.890616   3.919344   3.483993   2.171259
    25  H    4.634529   3.428930   3.600231   3.940031   3.482355
    26  H    4.001292   2.705186   2.348710   3.347817   2.826702
    27  H    3.946555   3.974159   5.017309   4.266350   5.160081
                   11         12         13         14         15
    11  C    0.000000
    12  C    1.529069   0.000000
    13  C    2.525370   1.534893   0.000000
    14  H    3.473983   2.163671   1.101531   0.000000
    15  N    2.900023   2.411759   1.461539   2.121758   0.000000
    16  C    4.119568   3.605418   2.327459   2.624330   1.288286
    17  H    6.191166   5.414297   3.935277   3.641689   4.212101
    18  H    4.919155   4.548227   3.410964   3.636491   4.058040
    19  H    2.830837   3.351598   2.753614   3.752223   2.572031
    20  H    3.486906   3.938417   3.469481   4.302473   3.928414
    21  H    2.170639   3.481810   3.937579   4.983518   4.192000
    22  H    2.161600   2.835866   3.410605   4.236464   4.263308
    23  H    1.095541   2.144595   2.785126   3.782011   2.567087
    24  H    1.096714   2.161564   3.475062   4.302054   3.894815
    25  H    2.165664   1.096086   2.157486   2.484593   2.640808
    26  H    2.168460   1.098382   2.159313   2.461811   3.365727
    27  H    4.779204   4.451961   3.334174   3.655987   2.042230
                   16         17         18         19         20
    16  C    0.000000
    17  H    3.468319   0.000000
    18  H    3.900215   2.385657   0.000000
    19  H    2.990180   4.558193   3.194349   0.000000
    20  H    4.318611   4.632191   2.510505   1.771239   0.000000
    21  H    5.102092   6.663420   4.826550   2.481317   2.518870
    22  H    5.220280   6.140656   4.211401   3.068484   2.462999
    23  H    3.744156   6.333168   5.281399   2.684212   3.832819
    24  H    5.150763   7.219768   5.879270   3.840155   4.318326
    25  H    3.833863   6.004555   5.469707   4.167375   4.975931
    26  H    4.449769   5.643559   4.624266   4.019657   4.157940
    27  H    1.091960   4.180253   4.772043   3.523386   5.037564
                   21         22         23         24         25
    21  H    0.000000
    22  H    1.765682   0.000000
    23  H    2.462554   3.060659   0.000000
    24  H    2.530315   2.464763   1.766197   0.000000
    25  H    4.310614   3.832906   2.452374   2.504662   0.000000
    26  H    3.836205   2.687177   3.059108   2.482901   1.768820
    27  H    5.656161   6.040298   4.183655   5.769359   4.547187
                   26         27
    26  H    0.000000
    27  H    5.386505   0.000000
 Symmetry turned off by external request.
 Stoichiometry    C9H13N3O2
 Framework group  C1[X(C9H13N3O2)]
 Deg. of freedom    75
 Full point group                 C1      NOp   1
 Rotational constants (GHZ):           1.6924970           0.4274890           0.3769772
 Standard basis: 6-31G(d) (6D, 7F)
   236 basis functions,   444 primitive gaussians,   236 cartesian basis functions
    52 alpha electrons       52 beta electrons
       nuclear repulsion energy       934.5466688493 Hartrees.
 NAtoms=   27 NActive=   27 NUniq=   27 SFac= 1.00D+00 NAtFMM=   60 NAOKFM=F Big=F
 Integral buffers will be    131072 words long.
 Raffenetti 1 integral format.
 Two-electron integral symmetry is turned off.
 One-electron integrals computed using PRISM.
 NBasis=   236 RedAO= T EigKep=  1.05D-03  NBF=   236
 NBsUse=   236 1.00D-06 EigRej= -1.00D+00 NBFU=   236
 Initial guess from the checkpoint file:  "/home/alexey/tmp/Gau-1484060.chk"
 B after Tr=     0.048602    0.010433   -0.007828
         Rot=    0.999994   -0.001528    0.002427    0.001853 Ang=  -0.39 deg.
 ExpMin= 1.61D-01 ExpMax= 5.48D+03 ExpMxC= 8.25D+02 IAcc=3 IRadAn=         5 AccDes= 0.00D+00
 Harris functional with IExCor=  205 and IRadAn=       5 diagonalized for initial guess.
 HarFok:  IExCor=  205 AccDes= 0.00D+00 IRadAn=         5 IDoV= 1 UseB2=F ITyADJ=14
 ICtDFT=  3500011 ScaDFX=  1.000000  1.000000  1.000000  1.000000
 FoFCou: FMM=F IPFlag=           0 FMFlag=      100000 FMFlg1=           0
         NFxFlg=           0 DoJE=T BraDBF=F KetDBF=T FulRan=T
         wScrn=  0.000000 ICntrl=       500 IOpCl=  0 I1Cent=   200000004 NGrid=           0
         NMat0=    1 NMatS0=      1 NMatT0=    0 NMatD0=    1 NMtDS0=    0 NMtDT0=    0
 Symmetry not used in FoFCou.
 Keep R1 ints in memory in canonical form, NReq=397720213.
 Requested convergence on RMS density matrix=1.00D-08 within 128 cycles.
 Requested convergence on MAX density matrix=1.00D-06.
 Requested convergence on             energy=1.00D-06.
 No special actions if energy rises.
 SCF Done:  E(RHF) =  -661.290068511     A.U. after   15 cycles
            NFock= 15  Conv=0.42D-08     -V/T= 2.0024
 ExpMin= 1.61D-01 ExpMax= 5.48D+03 ExpMxC= 8.25D+02 IAcc=3 IRadAn=         5 AccDes= 0.00D+00
 HarFok:  IExCor=  205 AccDes= 0.00D+00 IRadAn=         5 IDoV=-2 UseB2=F ITyADJ=14
 ICtDFT= 12500011 ScaDFX=  1.000000  1.000000  1.000000  1.000000
 Range of M.O.s used for correlation:    15   236
 NBasis=   236 NAE=    52 NBE=    52 NFC=    14 NFV=     0
 NROrb=    222 NOA=    38 NOB=    38 NVA=   184 NVB=   184
 Fully direct method using O(ONN) memory.
 JobTyp=1 Pass  1:  I=  15 to  52 NPSUse=  4 ParTrn=T ParDer=T DoDerP=T.
 Spin components of T(2) and E(2):
     alpha-alpha T2 =       0.9120519267D-01 E2=     -0.2723137364D+00
     alpha-beta  T2 =       0.4925306641D+00 E2=     -0.1489526676D+01
     beta-beta   T2 =       0.9120519267D-01 E2=     -0.2723137364D+00
 ANorm=    0.1294195136D+01
 E2 =    -0.2034154149D+01 EUMP2 =    -0.66332422265969D+03
          IDoAtm=111111111111111111111111111
          Differentiating once with respect to electric field.
                with respect to dipole field.
          Differentiating once with respect to nuclear coordinates.
 Keep R1 ints in memory in canonical form, NReq=397723379.
          There are     1 degrees of freedom in the 1st order CPHF.  IDoFFX=0 NUNeed=     1.
 LinEq1:  Iter=  0 NonCon=     1 RMS=4.53D-03 Max=1.07D-01 NDo=     1
 AX will form     1 AO Fock derivatives at one time.
 LinEq1:  Iter=  1 NonCon=     1 RMS=1.52D-03 Max=3.13D-02 NDo=     1
 LinEq1:  Iter=  2 NonCon=     1 RMS=6.32D-04 Max=1.82D-02 NDo=     1
 LinEq1:  Iter=  3 NonCon=     1 RMS=2.79D-04 Max=7.98D-03 NDo=     1
 LinEq1:  Iter=  4 NonCon=     1 RMS=8.51D-05 Max=1.61D-03 NDo=     1
 LinEq1:  Iter=  5 NonCon=     1 RMS=3.57D-05 Max=1.88D-03 NDo=     1
 LinEq1:  Iter=  6 NonCon=     1 RMS=1.37D-05 Max=5.11D-04 NDo=     1
 LinEq1:  Iter=  7 NonCon=     1 RMS=5.42D-06 Max=1.07D-04 NDo=     1
 LinEq1:  Iter=  8 NonCon=     1 RMS=2.19D-06 Max=6.41D-05 NDo=     1
[...]
    27  H    4.753556   4.445884   3.344874   3.649358   2.037903
                   16         17         18         19         20
    16  C    0.000000
    17  H    3.439311   0.000000
    18  H    4.006909   2.256966   0.000000
    19  H    2.971444   4.424922   3.450078   0.000000
    20  H    4.325499   4.542814   2.793030   1.768209   0.000000
    21  H    5.089622   6.591399   5.028719   2.498147   2.520387
    22  H    5.217429   6.122166   4.281791   3.070043   2.458455
    23  H    3.726595   6.292768   5.406292   2.708115   3.843362
    24  H    5.146042   7.218312   5.929569   3.852249   4.315391
    25  H    3.831532   6.055259   5.410464   4.175555   4.985212
    26  H    4.473154   5.731979   4.534004   4.044630   4.187351
    27  H    1.089887   4.147912   4.940042   3.512304   5.050541
                   21         22         23         24         25
    21  H    0.000000
    22  H    1.758769   0.000000
    23  H    2.467994   3.061343   0.000000
    24  H    2.517036   2.458540   1.764622   0.000000
    25  H    4.312076   3.840919   2.443790   2.520260   0.000000
    26  H    3.849416   2.708424   3.060550   2.487787   1.766778
    27  H    5.634202   6.027703   4.146467   5.742618   4.520583
                   26         27
    26  H    0.000000
    27  H    5.391737   0.000000
 Symmetry turned off by external request.
 Stoichiometry    C9H13N3O2
 Framework group  C1[X(C9H13N3O2)]
 Deg. of freedom    75
 Full point group                 C1      NOp   1
 Rotational constants (GHZ):           1.7019212           0.4205234           0.3739586

 **********************************************************************

            Population analysis using the SCF Density.

 **********************************************************************

 Alpha  occ. eigenvalues --  -20.59076 -20.58756 -15.84530 -15.64096 -15.56452
 Alpha  occ. eigenvalues --  -11.35155 -11.29750 -11.29556 -11.28326 -11.27174
 Alpha  occ. eigenvalues --  -11.23733 -11.23235 -11.22790 -11.22138  -1.56926
 Alpha  occ. eigenvalues --   -1.36547  -1.30938  -1.23355  -1.14666  -1.09805
 Alpha  occ. eigenvalues --   -1.02825  -1.01266  -0.94327  -0.89530  -0.85642
 Alpha  occ. eigenvalues --   -0.82334  -0.78383  -0.77407  -0.75043  -0.71902
 Alpha  occ. eigenvalues --   -0.69603  -0.69458  -0.67838  -0.65005  -0.63631
 Alpha  occ. eigenvalues --   -0.62542  -0.60350  -0.57553  -0.57144  -0.55028
 Alpha  occ. eigenvalues --   -0.54620  -0.50892  -0.49798  -0.48511  -0.48018
 Alpha  occ. eigenvalues --   -0.47279  -0.46227  -0.46089  -0.43532  -0.41549
 Alpha  occ. eigenvalues --   -0.40381  -0.33961
 Alpha virt. eigenvalues --    0.07584   0.12147   0.17519   0.21544   0.23056
 Alpha virt. eigenvalues --    0.24807   0.27189   0.28081   0.29048   0.29469
 Alpha virt. eigenvalues --    0.30779   0.31882   0.32181   0.32661   0.33819
 Alpha virt. eigenvalues --    0.34296   0.35689   0.37180   0.38461   0.40139
 Alpha virt. eigenvalues --    0.41737   0.42920   0.45270   0.46272   0.46353
 Alpha virt. eigenvalues --    0.47153   0.48718   0.53608   0.56510   0.58906
 Alpha virt. eigenvalues --    0.64127   0.69340   0.70238   0.72811   0.73928
 Alpha virt. eigenvalues --    0.75603   0.76064   0.77018   0.78669   0.79319
 Alpha virt. eigenvalues --    0.81040   0.84886   0.85532   0.86938   0.88092
 Alpha virt. eigenvalues --    0.89250   0.90167   0.91706   0.92617   0.94422
 Alpha virt. eigenvalues --    0.96294   0.97425   0.98110   1.01228   1.02484
 Alpha virt. eigenvalues --    1.02868   1.05721   1.06513   1.06974   1.08491
 Alpha virt. eigenvalues --    1.09907   1.11454   1.11726   1.12410   1.13807
 Alpha virt. eigenvalues --    1.14581   1.14667   1.15922   1.16400   1.18423
 Alpha virt. eigenvalues --    1.19399   1.20158   1.21112   1.22965   1.23480
 Alpha virt. eigenvalues --    1.24033   1.26454   1.27605   1.27887   1.28861
 Alpha virt. eigenvalues --    1.30172   1.32219   1.35521   1.36748   1.39384
 Alpha virt. eigenvalues --    1.41290   1.43879   1.48389   1.50183   1.52615
 Alpha virt. eigenvalues --    1.56209   1.59475   1.59820   1.62689   1.68405
 Alpha virt. eigenvalues --    1.69382   1.69597   1.73540   1.74183   1.77369
 Alpha virt. eigenvalues --    1.81537   1.84361   1.86196   1.91095   1.93489
 Alpha virt. eigenvalues --    1.96368   1.97677   1.99446   2.00646   2.02937
 Alpha virt. eigenvalues --    2.04450   2.06460   2.08634   2.09407   2.12903
 Alpha virt. eigenvalues --    2.14720   2.15258   2.19379   2.20227   2.22813
 Alpha virt. eigenvalues --    2.23138   2.25019   2.26534   2.28231   2.30164
 Alpha virt. eigenvalues --    2.31716   2.33620   2.35435   2.36258   2.39063
 Alpha virt. eigenvalues --    2.39831   2.41563   2.42951   2.44841   2.48665
 Alpha virt. eigenvalues --    2.50167   2.51608   2.53402   2.55179   2.61865
 Alpha virt. eigenvalues --    2.63106   2.65130   2.67704   2.70683   2.72385
 Alpha virt. eigenvalues --    2.72684   2.74792   2.77873   2.79308   2.85067
 Alpha virt. eigenvalues --    2.87615   2.88247   2.92197   2.93718   2.96624
 Alpha virt. eigenvalues --    2.98657   3.01808   3.04085   3.04319   3.07490
 Alpha virt. eigenvalues --    3.09432   3.14410   3.21364   3.24977   3.26659
 Alpha virt. eigenvalues --    3.34067   3.37378   3.40360   3.50963   3.61109
 Alpha virt. eigenvalues --    4.12915   4.27786   4.30317   4.37415   4.45890
 Alpha virt. eigenvalues --    4.57795   4.62080   4.63961   4.73294   4.79743
 Alpha virt. eigenvalues --    4.97104   5.00550   5.03178   5.12916
          Condensed to atoms (all electrons):
               1          2          3          4          5          6
     1  O    8.313109   0.309891  -0.079372  -0.086106   0.004182  -0.000022
     2  N    0.309891   5.740019   0.291996   0.258933  -0.043629   0.001329
     3  O   -0.079372   0.291996   8.352911  -0.088979   0.002444   0.000667
     4  C   -0.086106   0.258933  -0.088979   5.236570   0.547155  -0.053858
     5  C    0.004182  -0.043629   0.002444   0.547155   4.702826   0.319098
     6  N   -0.000022   0.001329   0.000667  -0.053858   0.319098   7.200987
     7  C    0.000005  -0.000111   0.000005   0.003653  -0.029257   0.168958
     8  H   -0.000000   0.000002  -0.000000  -0.000253   0.003105  -0.052308
     9  C   -0.000000  -0.000003  -0.000000   0.000887   0.000649  -0.060605
    10  C    0.000000   0.000000  -0.000000  -0.000038  -0.000049   0.003744
    11  C   -0.000000  -0.000000  -0.000000  -0.000025   0.000019  -0.000177
    12  C   -0.000000   0.000003  -0.000000   0.000057  -0.000104   0.003455
    13  C   -0.000037  -0.000100  -0.000009  -0.015049  -0.001141  -0.042352
    14  H   -0.000007  -0.000158   0.000000   0.004176   0.005154  -0.006652
    15  N    0.000208   0.002298  -0.000021  -0.066598  -0.003533   0.001225
    16  C    0.001662  -0.034609   0.002977   0.337487  -0.051210  -0.004449
    17  H    0.000205  -0.007701   0.016631  -0.025132   0.375840  -0.036502
    18  H    0.000001  -0.000053   0.000009   0.001676  -0.030384   0.336852
    19  H    0.000000  -0.000002   0.000000  -0.001024   0.000957   0.000186
    20  H    0.000000  -0.000000   0.000000  -0.000044   0.000162  -0.000956
    21  H   -0.000000   0.000000   0.000000   0.000000   0.000001  -0.000075
    22  H   -0.000000   0.000000  -0.000000  -0.000000  -0.000003  -0.000117
    23  H    0.000000  -0.000000   0.000000   0.000032  -0.000001  -0.000029
    24  H    0.000000   0.000000   0.000000   0.000000  -0.000000   0.000006
    25  H    0.000000  -0.000000   0.000000   0.000014   0.000004  -0.000085
    26  H   -0.000000  -0.000000   0.000000   0.000009  -0.000001  -0.000052
    27  H    0.006474  -0.000913   0.000024  -0.060573   0.001972   0.000129
               7          8          9         10         11         12
     1  O    0.000005  -0.000000  -0.000000   0.000000  -0.000000  -0.000000
     2  N   -0.000111   0.000002  -0.000003   0.000000  -0.000000   0.000003
     3  O    0.000005  -0.000000  -0.000000  -0.000000  -0.000000  -0.000000
     4  C    0.003653  -0.000253   0.000887  -0.000038  -0.000025   0.000057
     5  C   -0.029257   0.003105   0.000649  -0.000049   0.000019  -0.000104
     6  N    0.168958  -0.052308  -0.060605   0.003744  -0.000177   0.003455
     7  C    5.008001   0.419074   0.348824  -0.054528  -0.008982  -0.059064
     8  H    0.419074   0.542156  -0.057620   0.001258  -0.000471  -0.001909
     9  C    0.348824  -0.057620   5.162685   0.323253  -0.049794  -0.005933
    10  C   -0.054528   0.001258   0.323253   5.120017   0.336897  -0.060271
    11  C   -0.008982  -0.000471  -0.049794   0.336897   5.118150   0.336126
    12  C   -0.059064  -0.001909  -0.005933  -0.060271   0.336126   5.113619
    13  C    0.345824  -0.039828  -0.057436  -0.000719  -0.051152   0.367826
    14  H   -0.045737  -0.000699   0.004383  -0.000413   0.004112  -0.034950
    15  N   -0.057101   0.003967  -0.015098   0.001506  -0.012209  -0.078508
    16  C   -0.004862   0.000297  -0.002562   0.000055  -0.000057   0.003584
    17  H    0.001636  -0.000014  -0.000086   0.000001   0.000000   0.000000
    18  H   -0.020783  -0.003893   0.000909  -0.000083   0.000004  -0.000106
    19  H   -0.036924   0.004440   0.389058  -0.031272  -0.002310   0.000767
    20  H   -0.042884  -0.002208   0.399921  -0.035784   0.003965  -0.000395
    21  H    0.004582  -0.000083  -0.036199   0.402386  -0.034890   0.004322
    22  H   -0.004697   0.003566  -0.047020   0.397965  -0.045588  -0.001012
    23  H    0.000500   0.000034  -0.001921  -0.038996   0.399288  -0.037633
    24  H   -0.000130  -0.000100   0.004388  -0.038533   0.402341  -0.038854
    25  H    0.005089  -0.000024  -0.000415   0.004176  -0.033707   0.399197
    26  H   -0.004066   0.001813   0.000933  -0.002157  -0.041451   0.397270
    27  H   -0.000448   0.000012  -0.000090   0.000010   0.000005  -0.000037
              13         14         15         16         17         18
     1  O   -0.000037  -0.000007   0.000208   0.001662   0.000205   0.000001
     2  N   -0.000100  -0.000158   0.002298  -0.034609  -0.007701  -0.000053
     3  O   -0.000009   0.000000  -0.000021   0.002977   0.016631   0.000009
     4  C   -0.015049   0.004176  -0.066598   0.337487  -0.025132   0.001676
     5  C   -0.001141   0.005154  -0.003533  -0.051210   0.375840  -0.030384
     6  N   -0.042352  -0.006652   0.001225  -0.004449  -0.036502   0.336852
     7  C    0.345824  -0.045737  -0.057101  -0.004862   0.001636  -0.020783
     8  H   -0.039828  -0.000699   0.003967   0.000297  -0.000014  -0.003893
     9  C   -0.057436   0.004383  -0.015098  -0.002562  -0.000086   0.000909
    10  C   -0.000719  -0.000413   0.001506   0.000055   0.000001  -0.000083
    11  C   -0.051152   0.004112  -0.012209  -0.000057   0.000000   0.000004
    12  C    0.367826  -0.034950  -0.078508   0.003584   0.000000  -0.000106
    13  C    5.049198   0.400387   0.247046  -0.075963  -0.000002   0.002946
    14  H    0.400387   0.521705  -0.037596  -0.004160   0.000174  -0.000116
    15  N    0.247046  -0.037596   6.948587   0.574916  -0.000117  -0.000133
    16  C   -0.075963  -0.004160   0.574916   4.750522   0.002760  -0.000243
    17  H   -0.000002   0.000174  -0.000117   0.002760   0.384940  -0.002704
    18  H    0.002946  -0.000116  -0.000133  -0.000243  -0.002704   0.311385
    19  H   -0.007220   0.000107   0.007747   0.003558   0.000019  -0.000147
    20  H    0.004256  -0.000061   0.000120  -0.000038   0.000005   0.001134
    21  H   -0.000419   0.000010  -0.000037   0.000003  -0.000000   0.000001
    22  H    0.000079  -0.000057   0.000010  -0.000003   0.000000   0.000001
    23  H   -0.007013  -0.000001   0.008032  -0.000012   0.000000   0.000000
    24  H    0.004694  -0.000052   0.000150   0.000009   0.000000  -0.000000
    25  H   -0.036063  -0.002805  -0.000180  -0.000010  -0.000000   0.000002
    26  H   -0.046851  -0.001090   0.004662  -0.000105   0.000000  -0.000001
    27  H    0.005333  -0.000216  -0.039573   0.400885  -0.000079   0.000002
              19         20         21         22         23         24
     1  O    0.000000   0.000000  -0.000000  -0.000000   0.000000   0.000000
     2  N   -0.000002  -0.000000   0.000000   0.000000  -0.000000   0.000000
     3  O    0.000000   0.000000   0.000000  -0.000000   0.000000   0.000000
     4  C   -0.001024  -0.000044   0.000000  -0.000000   0.000032   0.000000
     5  C    0.000957   0.000162   0.000001  -0.000003  -0.000001  -0.000000
     6  N    0.000186  -0.000956  -0.000075  -0.000117  -0.000029   0.000006
     7  C   -0.036924  -0.042884   0.004582  -0.004697   0.000500  -0.000130
     8  H    0.004440  -0.002208  -0.000083   0.003566   0.000034  -0.000100
     9  C    0.389058   0.399921  -0.036199  -0.047020  -0.001921   0.004388
    10  C   -0.031272  -0.035784   0.402386   0.397965  -0.038996  -0.038533
    11  C   -0.002310   0.003965  -0.034890  -0.045588   0.399288   0.402341
    12  C    0.000767  -0.000395   0.004322  -0.001012  -0.037633  -0.038854
    13  C   -0.007220   0.004256  -0.000419   0.000079  -0.007013   0.004694
    14  H    0.000107  -0.000061   0.000010  -0.000057  -0.000001  -0.000052
    15  N    0.007747   0.000120  -0.000037   0.000010   0.008032   0.000150
    16  C    0.003558  -0.000038   0.000003  -0.000003  -0.000012   0.000009
    17  H    0.000019   0.000005  -0.000000   0.000000   0.000000   0.000000
    18  H   -0.000147   0.001134   0.000001   0.000001   0.000000  -0.000000
    19  H    0.503091  -0.024908  -0.002817   0.003931   0.001486  -0.000063
    20  H   -0.024908   0.544916  -0.002670  -0.003048  -0.000046  -0.000084
    21  H   -0.002817  -0.002670   0.524043  -0.027412  -0.002913  -0.002223
    22  H    0.003931  -0.003048  -0.027412   0.571137   0.004150  -0.003697
    23  H    0.001486  -0.000046  -0.002913   0.004150   0.499460  -0.025543
    24  H   -0.000063  -0.000084  -0.002223  -0.003697  -0.025543   0.538582
    25  H   -0.000029   0.000012  -0.000087  -0.000079  -0.002381  -0.002252
    26  H    0.000020  -0.000031  -0.000082   0.002381   0.004041  -0.003112
    27  H    0.000112   0.000000  -0.000000   0.000000  -0.000030  -0.000000
              25         26         27
     1  O    0.000000  -0.000000   0.006474
     2  N   -0.000000  -0.000000  -0.000913
     3  O    0.000000   0.000000   0.000024
     4  C    0.000014   0.000009  -0.060573
     5  C    0.000004  -0.000001   0.001972
     6  N   -0.000085  -0.000052   0.000129
     7  C    0.005089  -0.004066  -0.000448
     8  H   -0.000024   0.001813   0.000012
     9  C   -0.000415   0.000933  -0.000090
    10  C    0.004176  -0.002157   0.000010
    11  C   -0.033707  -0.041451   0.000005
    12  C    0.399197   0.397270  -0.000037
    13  C   -0.036063  -0.046851   0.005333
    14  H   -0.002805  -0.001090  -0.000216
    15  N   -0.000180   0.004662  -0.039573
    16  C   -0.000010  -0.000105   0.400885
    17  H   -0.000000   0.000000  -0.000079
    18  H    0.000002  -0.000001   0.000002
    19  H   -0.000029   0.000020   0.000112
    20  H    0.000012  -0.000031   0.000000
    21  H   -0.000087  -0.000082  -0.000000
    22  H   -0.000079   0.002381   0.000000
    23  H   -0.002381   0.004041  -0.000030
    24  H   -0.002252  -0.003112  -0.000000
    25  H    0.506959  -0.024152  -0.000007
    26  H   -0.024152   0.559988   0.000001
    27  H   -0.000007   0.000001   0.439525
 Mulliken charges:
               1
     1  O   -0.470192
     2  N    0.482808
     3  O   -0.499283
     4  C    0.007030
     5  C    0.195742
     6  N   -0.778396
     7  C    0.063426
     8  H    0.179687
     9  C   -0.301107
    10  C   -0.328425
    11  C   -0.320092
    12  C   -0.307450
    13  C   -0.046235
    14  H    0.194562
    15  N   -0.489772
    16  C    0.099568
    17  H    0.290125
    18  H    0.403724
    19  H    0.191237
    20  H    0.158665
    21  H    0.174559
    22  H    0.149514
    23  H    0.199496
    24  H    0.164472
    25  H    0.186823
    26  H    0.152034
    27  H    0.247482
 Sum of Mulliken charges =  -0.00000
 Mulliken charges with hydrogens summed into heavy atoms:
               1
     1  O   -0.470192
     2  N    0.482808
     3  O   -0.499283
     4  C    0.007030
     5  C    0.485867
     6  N   -0.374673
     7  C    0.243113
     9  C    0.048795
    10  C   -0.004352
    11  C    0.043877
    12  C    0.031406
    13  C    0.148326
    15  N   -0.489772
    16  C    0.347050
 Electronic spatial extent (au):  <R**2>=           2993.2139
 Charge=              0.0000 electrons
 Dipole moment (field-independent basis, Debye):
    X=              5.4278    Y=              5.0267    Z=              0.5195  Tot=              7.4162
 Quadrupole moment (field-independent basis, Debye-Ang):
   XX=           -105.9809   YY=            -78.8127   ZZ=            -82.1198
   XY=             -2.9811   XZ=              2.6540   YZ=              0.4120
 Traceless Quadrupole moment (field-independent basis, Debye-Ang):
   XX=            -17.0098   YY=             10.1584   ZZ=              6.8514
   XY=             -2.9811   XZ=              2.6540   YZ=              0.4120
 Octapole moment (field-independent basis, Debye-Ang**2):
  XXX=             90.6781  YYY=             40.5140  ZZZ=             -7.3312  XYY=             -5.3114
  XXY=             13.9991  XXZ=             -7.7494  XZZ=             -8.6807  YZZ=             -1.2625
  YYZ=              4.4664  XYZ=              1.8058
 Hexadecapole moment (field-independent basis, Debye-Ang**3):
 XXXX=          -3365.3663 YYYY=           -590.2415 ZZZZ=           -305.4490 XXXY=            -49.1007
 XXXZ=             73.8433 YYYX=            -26.8619 YYYZ=             17.4848 ZZZX=             46.5652
 ZZZY=              8.4881 XXYY=           -620.8096 XXZZ=           -528.2398 YYZZ=           -158.5721
 XXYZ=            -11.2642 YYXZ=             17.7112 ZZXY=              2.7642
 N-N= 9.326947172668D+02 E-N=-3.412117773386D+03  KE= 6.596314035862D+02
 Unable to Open any file for archive entry.
 1\1\GINC-LOTUS\FOpt\RMP2-FC\6-31G(d)\C9H13N3O2\ALEXEY\02-Jul-2023\0\\#
 MP2/6-31G* SCF=Tight Opt=(ModRedun, MaxCycle=20 ) NoSymm\\MolName:\\0,
 1\O,-3.4743564618,-1.4278886619,-0.297729514\N,-3.1038577087,-0.301054
 3774,0.0867871767\O,-3.8827828947,0.5835217716,0.4932185966\C,-1.67872
 35715,-0.0401572816,0.0911852236\C,-1.3234033875,1.275948313,0.2392675
 953\N,-0.0723517461,1.7638972905,0.2523288905\C,1.1875048501,1.0189751
 486,0.2946963269\H,1.8010546609,1.5462035588,1.0425272739\C,1.96503671
 61,1.0303591503,-1.0192643246\C,3.3514622451,0.4218808239,-0.778248925
 6\C,3.2677395201,-0.9748167485,-0.1565723712\C,2.4015151741,-0.9872376
 098,1.1051860127\C,1.0085255888,-0.4271178358,0.8024593021\H,0.3855828
 512,-0.4043765822,1.7117093878\N,0.4014972262,-1.2956909121,-0.2069498
 29\C,-0.8268204573,-1.0475985372,-0.5264883855\H,-2.1155705989,2.00080
 80815,0.4090312474\H,0.0070464879,2.7670177479,0.3727817067\H,1.412424
 4823,0.4578742068,-1.7710013575\H,2.0560012483,2.0598043516,-1.3886527
 142\H,3.9089793486,0.3839967002,-1.7210540806\H,3.9157712425,1.0866188
 591,-0.1087442612\H,2.8304089796,-1.6701417841,-0.8795112519\H,4.27537
 72718,-1.3383384582,0.0774959937\H,2.2921427383,-2.0106299617,1.479820
 7234\H,2.8721425583,-0.3963223624,1.9030428197\H,-1.2993163638,-1.7125
 14891,-1.2493212616\\Version=ES64L-G16RevC.02\HF=-661.2951844\MP2=-663
 .3305639\RMSD=6.894e-09\RMSF=3.521e-03\Dipole=1.9765456,1.7546547,0.22
 58384\PG=C01 [X(C9H13N3O2)]\\@
 The archive entry for this job was punched.


 LENDING MONEY TO FRIENDS CAUSES THEM TO LOSE THEIR MEMORIES.

    --  PETER'S THEORY OF RECIPROCAL INHIBITION OF FISCAL RECALL
 Job cpu time:       0 days  1 hours 10 minutes 10.4 seconds.
 Elapsed time:       0 days  0 hours 21 minutes  7.2 seconds.
 File lengths (MBytes):  RWF=     36 Int=      0 D2E=      0 Chk=      7 Scr=      1
 Normal termination of Gaussian 16 at Sun Jul  2 09:46:15 2023.
