 Entering Gaussian System, Link 0=g16
 Initial command:
 /home/alexey/programs//g16/l1.exe "/home/alexey/tmp/Gau-1247829.inp" -scrdir="/home/alexey/tmp/"
 Entering Link 1 = /home/alexey/programs//g16/l1.exe PID=   1247831.
  
 Copyright (c) 1988-2021, Gaussian, Inc.  All Rights Reserved.
  
 This is part of the Gaussian(R) 16 program.  It is based on
 the Gaussian(R) 09 system (copyright 2009, Gaussian, Inc.),
 the Gaussian(R) 03 system (copyright 2003, Gaussian, Inc.),
 the Gaussian(R) 98 system (copyright 1998, Gaussian, Inc.),
 the Gaussian(R) 94 system (copyright 1995, Gaussian, Inc.),
 the Gaussian 92(TM) system (copyright 1992, Gaussian, Inc.),
 the Gaussian 90(TM) system (copyright 1990, Gaussian, Inc.),
 the Gaussian 88(TM) system (copyright 1988, Gaussian, Inc.),
 the Gaussian 86(TM) system (copyright 1986, Carnegie Mellon
 University), and the Gaussian 82(TM) system (copyright 1983,
 Carnegie Mellon University). Gaussian is a federally registered
 trademark of Gaussian, Inc.
  
 This software contains proprietary and confidential information,
 including trade secrets, belonging to Gaussian, Inc.
  
 This software is provided under written license and may be
 used, copied, transmitted, or stored only in accord with that
 written license.
  
 The following legend is applicable only to US Government
 contracts under FAR:
  
                    RESTRICTED RIGHTS LEGEND
  
 Use, reproduction and disclosure by the US Government is
 subject to restrictions as set forth in subparagraphs (a)
 and (c) of the Commercial Computer Software - Restricted
 Rights clause in FAR 52.227-19.
  
 Gaussian, Inc.
 340 Quinnipiac St., Bldg. 40, Wallingford CT 06492
  
  
 ---------------------------------------------------------------
 Warning -- This program may not be used in any manner that
 competes with the business of Gaussian, Inc. or will provide
 assistance to any competitor of Gaussian, Inc.  The licensee
 of this program is prohibited from giving any competitor of
 Gaussian, Inc. access to this program.  By using this program,
 the user acknowledges that Gaussian, Inc. is engaged in the
 business of creating and licensing software in the field of
 computational chemistry and represents and warrants to the
 licensee that it is not a competitor of Gaussian, Inc. and that
 it will not use this program in any manner prohibited above.
 ---------------------------------------------------------------
  

 Cite this work as:
 Gaussian 16, Revision C.02,
 M. J. Frisch, G. W. Trucks, H. B. Schlegel, G. E. Scuseria, 
 M. A. Robb, J. R. Cheeseman, G. Scalmani, V. Barone, 
 G. A. Petersson, H. Nakatsuji, X. Li, M. Caricato, A. V. Marenich, 
 J. Bloino, B. G. Janesko, R. Gomperts, B. Mennucci, H. P. Hratchian, 
 J. V. Ortiz, A. F. Izmaylov, J. L. Sonnenberg, D. Williams-Young, 
 F. Ding, F. Lipparini, F. Egidi, J. Goings, B. Peng, A. Petrone, 
 T. Henderson, D. Ranasinghe, V. G. Zakrzewski, J. Gao, N. Rega, 
 G. Zheng, W. Liang, M. Hada, M. Ehara, K. Toyota, R. Fukuda, 
 J. Hasegawa, M. Ishida, T. Nakajima, Y. Honda, O. Kitao, H. Nakai, 
 T. Vreven, K. Throssell, J. A. Montgomery, Jr., J. E. Peralta, 
 F. Ogliaro, M. J. Bearpark, J. J. Heyd, E. N. Brothers, K. N. Kudin, 
 V. N. Staroverov, T. A. Keith, R. Kobayashi, J. Normand, 
 K. Raghavachari, A. P. Rendell, J. C. Burant, S. S. Iyengar, 
 J. Tomasi, M. Cossi, J. M. Millam, M. Klene, C. Adamo, R. Cammi, 
 J. W. Ochterski, R. L. Martin, K. Morokuma, O. Farkas, 
 J. B. Foresman, and D. J. Fox, Gaussian, Inc., Wallingford CT, 2019.
 
 ******************************************
 Gaussian 16:  ES64L-G16RevC.02  7-Dec-2021
                 1-Jul-2023 
 ******************************************
 %mem=8GB
 %NPROCS=4
 Will use up to    4 processors via shared memory.
 %NoSave
 ---------------------------------------------------------
 #MP2/6-31G* SCF=Tight Opt=(ModRedun, MaxCycle=20 ) NoSymm
 ---------------------------------------------------------
 1/6=20,18=120,19=15,38=1/1,3;
 2/9=110,12=2,15=1,17=6,18=5,40=1/2;
 3/5=1,6=6,7=1,11=9,25=1,30=1,71=1/1,2,3;
 4//1;
 5/5=2,32=2,38=5/2;
 8/6=4,10=2/1;
 9/15=2,16=-3/6;
 10/5=1,31=1/2;
 6/7=2,8=2,9=2,10=2/1;
 7/12=2,30=1/1,2,3,16;
 1/6=20,18=20,19=15/3(2);
 2/9=110,15=1/2;
 99//99;
 2/9=110,15=1/2;
 3/5=1,6=6,7=1,11=9,25=1,30=1,71=1/1,2,3;
 4/5=5,16=3,69=1/1;
 5/5=2,32=2,38=5/2;
 8/6=4,10=2/1;
 9/15=2,16=-3/6;
 10/5=1,31=1/2;
 7/12=2,30=1/1,2,3,16;
 1/6=20,18=20,19=15/3(-8);
 2/9=110,15=1/2;
 6/7=2,8=2,9=2,10=2/1;
 99/9=10/99;
 --------
 MolName:
 --------
 Symbolic Z-matrix:
 Charge =  0 Multiplicity = 1
 8                    0    -3.65103  -1.32677  -0.48902 
 7                    0    -3.23215  -0.17957  -0.34473 
 8                    0    -3.9442    0.82047  -0.44659 
 6                    0    -1.73838   0.00567  -0.05787 
 6                    0    -1.34175   1.30774   0.26934 
 7                    0    -0.07967   1.71178   0.60704 
 6                    0     1.20513   0.97258   0.46199 
 1                    0     1.92288   1.47948   1.15856 
 6                    0     1.85183   1.03963  -0.94404 
 6                    0     3.28524   0.47939  -0.87404 
 6                    0     3.29785  -0.93793  -0.27943 
 6                    0     2.55996  -0.98678   1.07603 
 6                    0     1.09817  -0.47753   0.94626 
 1                    0     0.62726  -0.52293   1.95624 
 7                    0     0.37891  -1.37007   0.03572 
 6                    0    -0.88853  -1.21536  -0.16769 
 1                    0    -2.11021   2.0983    0.28387 
 1                    0     0.15476   2.70715   0.62999 
 1                    0     1.25027   0.4522   -1.66999 
 1                    0     1.88682   2.09139  -1.29933 
 1                    0     3.73698   0.46544  -1.89006 
 1                    0     3.90616   1.14328  -0.23198 
 1                    0     2.80181  -1.63452  -0.9925 
 1                    0     4.34649  -1.28367  -0.14911 
 1                    0     2.55172  -2.03369   1.45096 
 1                    0     3.10552  -0.36634   1.81748 
 1                    0    -1.42085  -2.07633  -0.59908 
 
 The following ModRedundant input section has been read:
 D       5       4      16      15 F                                           
 D       1       2       4      16 F                                           
 D       7      13      15      16 F                                           
 D       7       9      10      11 F                                           
 D       9      10      11      12 F                                           
 D       6       7      13      15 F                                           
 

 GradGradGradGradGradGradGradGradGradGradGradGradGradGradGradGradGradGrad
 Berny optimization.
 Initialization pass.
                           ----------------------------
                           !    Initial Parameters    !
                           ! (Angstroms and Degrees)  !
 --------------------------                            --------------------------
 ! Name  Definition              Value          Derivative Info.                !
 --------------------------------------------------------------------------------
 ! R1    R(1,2)                  1.2298         estimate D2E/DX2                !
 ! R2    R(2,3)                  1.2319         estimate D2E/DX2                !
 ! R3    R(2,4)                  1.5323         estimate D2E/DX2                !
 ! R4    R(4,5)                  1.3999         estimate D2E/DX2                !
 ! R5    R(4,16)                 1.4917         estimate D2E/DX2                !
 ! R6    R(5,6)                  1.3675         estimate D2E/DX2                !
 ! R7    R(5,17)                 1.1026         estimate D2E/DX2                !
 ! R8    R(6,7)                  1.4894         estimate D2E/DX2                !
 ! R9    R(6,18)                 1.0229         estimate D2E/DX2                !
 ! R10   R(7,8)                  1.1213         estimate D2E/DX2                !
 ! R11   R(7,9)                  1.5491         estimate D2E/DX2                !
 ! R12   R(7,13)                 1.5326         estimate D2E/DX2                !
 ! R13   R(9,10)                 1.5406         estimate D2E/DX2                !
 ! R14   R(9,19)                 1.1108         estimate D2E/DX2                !
 ! R15   R(9,20)                 1.1107         estimate D2E/DX2                !
 ! R16   R(10,11)                1.537          estimate D2E/DX2                !
 ! R17   R(10,21)                1.112          estimate D2E/DX2                !
 ! R18   R(10,22)                1.1129         estimate D2E/DX2                !
 ! R19   R(11,12)                1.5441         estimate D2E/DX2                !
 ! R20   R(11,23)                1.1134         estimate D2E/DX2                !
 ! R21   R(11,24)                1.1118         estimate D2E/DX2                !
 ! R22   R(12,13)                1.5534         estimate D2E/DX2                !
 ! R23   R(12,25)                1.1121         estimate D2E/DX2                !
 ! R24   R(12,26)                1.1101         estimate D2E/DX2                !
 ! R25   R(13,14)                1.1153         estimate D2E/DX2                !
 ! R26   R(13,15)                1.4639         estimate D2E/DX2                !
 ! R27   R(15,16)                1.2929         estimate D2E/DX2                !
 ! R28   R(16,27)                1.1003         estimate D2E/DX2                !
 ! A1    A(1,2,3)              123.4162         estimate D2E/DX2                !
 ! A2    A(1,2,4)              117.826          estimate D2E/DX2                !
 ! A3    A(3,2,4)              118.7399         estimate D2E/DX2                !
 ! A4    A(2,4,5)              115.6198         estimate D2E/DX2                !
 ! A5    A(2,4,16)             116.2731         estimate D2E/DX2                !
 ! A6    A(5,4,16)             128.1063         estimate D2E/DX2                !
 ! A7    A(4,5,6)              126.4412         estimate D2E/DX2                !
 ! A8    A(4,5,17)             118.1966         estimate D2E/DX2                !
 ! A9    A(6,5,17)             115.3482         estimate D2E/DX2                !
 ! A10   A(5,6,7)              128.7151         estimate D2E/DX2                !
 ! A11   A(5,6,18)             120.3028         estimate D2E/DX2                !
 ! A12   A(7,6,18)             106.7057         estimate D2E/DX2                !
 ! A13   A(6,7,8)              105.5048         estimate D2E/DX2                !
 ! A14   A(6,7,9)              115.2807         estimate D2E/DX2                !
 ! A15   A(6,7,13)             112.2493         estimate D2E/DX2                !
 ! A16   A(8,7,9)              106.0846         estimate D2E/DX2                !
 ! A17   A(8,7,13)             106.0287         estimate D2E/DX2                !
 ! A18   A(9,7,13)             110.9098         estimate D2E/DX2                !
 ! A19   A(7,9,10)             109.3567         estimate D2E/DX2                !
 ! A20   A(7,9,19)             110.1331         estimate D2E/DX2                !
 ! A21   A(7,9,20)             110.15           estimate D2E/DX2                !
 ! A22   A(10,9,19)            109.9531         estimate D2E/DX2                !
 ! A23   A(10,9,20)            109.2431         estimate D2E/DX2                !
 ! A24   A(19,9,20)            107.9851         estimate D2E/DX2                !
 ! A25   A(9,10,11)            111.1331         estimate D2E/DX2                !
 ! A26   A(9,10,21)            109.9391         estimate D2E/DX2                !
 ! A27   A(9,10,22)            109.1714         estimate D2E/DX2                !
 ! A28   A(11,10,21)           109.7891         estimate D2E/DX2                !
 ! A29   A(11,10,22)           108.8029         estimate D2E/DX2                !
 ! A30   A(21,10,22)           107.9362         estimate D2E/DX2                !
 ! A31   A(10,11,12)           111.3984         estimate D2E/DX2                !
 ! A32   A(10,11,23)           108.9948         estimate D2E/DX2                !
 ! A33   A(10,11,24)           109.8661         estimate D2E/DX2                !
 ! A34   A(12,11,23)           109.2384         estimate D2E/DX2                !
 ! A35   A(12,11,24)           109.7547         estimate D2E/DX2                !
 ! A36   A(23,11,24)           107.4997         estimate D2E/DX2                !
 ! A37   A(11,12,13)           111.4692         estimate D2E/DX2                !
 ! A38   A(11,12,25)           109.2259         estimate D2E/DX2                !
 ! A39   A(11,12,26)           109.4987         estimate D2E/DX2                !
 ! A40   A(13,12,25)           109.2579         estimate D2E/DX2                !
 ! A41   A(13,12,26)           109.5751         estimate D2E/DX2                !
 ! A42   A(25,12,26)           107.7352         estimate D2E/DX2                !
 ! A43   A(7,13,12)            105.7187         estimate D2E/DX2                !
 ! A44   A(7,13,14)            110.7403         estimate D2E/DX2                !
 ! A45   A(7,13,15)            114.4966         estimate D2E/DX2                !
 ! A46   A(12,13,14)           107.959          estimate D2E/DX2                !
 ! A47   A(12,13,15)           108.327          estimate D2E/DX2                !
 ! A48   A(14,13,15)           109.3287         estimate D2E/DX2                !
 ! A49   A(13,15,16)           120.4331         estimate D2E/DX2                !
 ! A50   A(4,16,15)            130.1533         estimate D2E/DX2                !
 ! A51   A(4,16,27)            113.1864         estimate D2E/DX2                !
 ! A52   A(15,16,27)           116.25           estimate D2E/DX2                !
 ! D1    D(1,2,4,5)           -172.0423         estimate D2E/DX2                !
 ! D2    D(1,2,4,16)             8.2581         Frozen                          !
 ! D3    D(3,2,4,5)              9.4455         estimate D2E/DX2                !
 ! D4    D(3,2,4,16)          -170.2541         estimate D2E/DX2                !
 ! D5    D(2,4,5,6)            177.6946         estimate D2E/DX2                !
 ! D6    D(2,4,5,17)            -0.8784         estimate D2E/DX2                !
 ! D7    D(16,4,5,6)            -2.6476         estimate D2E/DX2                !
 ! D8    D(16,4,5,17)          178.7793         estimate D2E/DX2                !
 ! D9    D(2,4,16,15)         -178.643          estimate D2E/DX2                !
 ! D10   D(2,4,16,27)            9.1029         estimate D2E/DX2                !
 ! D11   D(5,4,16,15)            1.7012         Frozen                          !
 ! D12   D(5,4,16,27)         -170.5529         estimate D2E/DX2                !
 ! D13   D(4,5,6,7)             13.0442         estimate D2E/DX2                !
 ! D14   D(4,5,6,18)           166.5745         estimate D2E/DX2                !
 ! D15   D(17,5,6,7)          -168.3474         estimate D2E/DX2                !
 ! D16   D(17,5,6,18)          -14.8171         estimate D2E/DX2                !
 ! D17   D(5,6,7,8)           -160.9091         estimate D2E/DX2                !
 ! D18   D(5,6,7,9)             82.4119         estimate D2E/DX2                !
 ! D19   D(5,6,7,13)           -45.8794         estimate D2E/DX2                !
 ! D20   D(18,6,7,8)            42.7806         estimate D2E/DX2                !
 ! D21   D(18,6,7,9)           -73.8984         estimate D2E/DX2                !
 ! D22   D(18,6,7,13)          157.8103         estimate D2E/DX2                !
 ! D23   D(6,7,9,10)           168.9009         estimate D2E/DX2                !
 ! D24   D(6,7,9,19)           -70.1668         estimate D2E/DX2                !
 ! D25   D(6,7,9,20)            48.8343         estimate D2E/DX2                !
 ! D26   D(8,7,9,10)            52.5506         estimate D2E/DX2                !
 ! D27   D(8,7,9,19)           173.483          estimate D2E/DX2                !
 ! D28   D(8,7,9,20)           -67.5159         estimate D2E/DX2                !
 ! D29   D(13,7,9,10)          -62.1445         estimate D2E/DX2                !
 ! D30   D(13,7,9,19)           58.7878         estimate D2E/DX2                !
 ! D31   D(13,7,9,20)          177.7889         estimate D2E/DX2                !
 ! D32   D(6,7,13,12)         -165.8201         estimate D2E/DX2                !
 ! D33   D(6,7,13,14)          -49.1351         estimate D2E/DX2                !
 ! D34   D(6,7,13,15)           75.0228         Frozen                          !
 ! D35   D(8,7,13,12)          -51.1096         estimate D2E/DX2                !
 ! D36   D(8,7,13,14)           65.5754         estimate D2E/DX2                !
 ! D37   D(8,7,13,15)         -170.2667         estimate D2E/DX2                !
 ! D38   D(9,7,13,12)           63.6206         estimate D2E/DX2                !
 ! D39   D(9,7,13,14)         -179.6944         estimate D2E/DX2                !
 ! D40   D(9,7,13,15)          -55.5365         estimate D2E/DX2                !
 ! D41   D(7,9,10,11)           54.8125         Frozen                          !
 ! D42   D(7,9,10,21)          176.5708         estimate D2E/DX2                !
 ! D43   D(7,9,10,22)          -65.2028         estimate D2E/DX2                !
 ! D44   D(19,9,10,11)         -66.2292         estimate D2E/DX2                !
 ! D45   D(19,9,10,21)          55.5291         estimate D2E/DX2                !
 ! D46   D(19,9,10,22)         173.7556         estimate D2E/DX2                !
 ! D47   D(20,9,10,11)         175.4337         estimate D2E/DX2                !
 ! D48   D(20,9,10,21)         -62.808          estimate D2E/DX2                !
 ! D49   D(20,9,10,22)          55.4184         estimate D2E/DX2                !
 ! D50   D(9,10,11,12)         -52.8227         Frozen                          !
 ! D51   D(9,10,11,23)          67.7855         estimate D2E/DX2                !
 ! D52   D(9,10,11,24)        -174.6648         estimate D2E/DX2                !
 ! D53   D(21,10,11,12)       -174.6684         estimate D2E/DX2                !
 ! D54   D(21,10,11,23)        -54.0602         estimate D2E/DX2                !
 ! D55   D(21,10,11,24)         63.4895         estimate D2E/DX2                !
 ! D56   D(22,10,11,12)         67.4111         estimate D2E/DX2                !
 ! D57   D(22,10,11,23)       -171.9807         estimate D2E/DX2                !
 ! D58   D(22,10,11,24)        -54.431          estimate D2E/DX2                !
 ! D59   D(10,11,12,13)         56.6872         estimate D2E/DX2                !
 ! D60   D(10,11,12,25)        177.518          estimate D2E/DX2                !
 ! D61   D(10,11,12,26)        -64.7248         estimate D2E/DX2                !
 ! D62   D(23,11,12,13)        -63.7779         estimate D2E/DX2                !
 ! D63   D(23,11,12,25)         57.0529         estimate D2E/DX2                !
 ! D64   D(23,11,12,26)        174.8101         estimate D2E/DX2                !
 ! D65   D(24,11,12,13)        178.5938         estimate D2E/DX2                !
 ! D66   D(24,11,12,25)        -60.5754         estimate D2E/DX2                !
 ! D67   D(24,11,12,26)         57.1818         estimate D2E/DX2                !
 ! D68   D(11,12,13,7)         -60.5947         estimate D2E/DX2                !
 ! D69   D(11,12,13,14)       -179.1466         estimate D2E/DX2                !
 ! D70   D(11,12,13,15)         62.5659         estimate D2E/DX2                !
 ! D71   D(25,12,13,7)         178.5933         estimate D2E/DX2                !
 ! D72   D(25,12,13,14)         60.0413         estimate D2E/DX2                !
 ! D73   D(25,12,13,15)        -58.2461         estimate D2E/DX2                !
 ! D74   D(26,12,13,7)          60.7729         estimate D2E/DX2                !
 ! D75   D(26,12,13,14)        -57.779          estimate D2E/DX2                !
 ! D76   D(26,12,13,15)       -176.0665         estimate D2E/DX2                !
 ! D77   D(7,13,15,16)         -67.1607         Frozen                          !
 ! D78   D(12,13,15,16)        175.1581         estimate D2E/DX2                !
 ! D79   D(14,13,15,16)         57.7453         estimate D2E/DX2                !
 ! D80   D(13,15,16,4)          26.1491         estimate D2E/DX2                !
 ! D81   D(13,15,16,27)       -161.7911         estimate D2E/DX2                !
 --------------------------------------------------------------------------------
 Trust Radius=3.00D-01 FncErr=1.00D-07 GrdErr=1.00D-07 EigMax=2.50D+02 EigMin=1.00D-04
 Number of steps in this run=     20 maximum allowed number of steps=    162.
 GradGradGradGradGradGradGradGradGradGradGradGradGradGradGradGradGradGrad

                          Input orientation:                          
 ---------------------------------------------------------------------
 Center     Atomic      Atomic             Coordinates (Angstroms)
 Number     Number       Type             X           Y           Z
 ---------------------------------------------------------------------
      1          8           0       -3.651030   -1.326770   -0.489020
      2          7           0       -3.232150   -0.179570   -0.344730
      3          8           0       -3.944200    0.820470   -0.446590
      4          6           0       -1.738380    0.005670   -0.057870
      5          6           0       -1.341750    1.307740    0.269340
      6          7           0       -0.079670    1.711780    0.607040
      7          6           0        1.205130    0.972580    0.461990
      8          1           0        1.922880    1.479480    1.158560
      9          6           0        1.851830    1.039630   -0.944040
     10          6           0        3.285240    0.479390   -0.874040
     11          6           0        3.297850   -0.937930   -0.279430
     12          6           0        2.559960   -0.986780    1.076030
     13          6           0        1.098170   -0.477530    0.946260
     14          1           0        0.627260   -0.522930    1.956240
     15          7           0        0.378910   -1.370070    0.035720
     16          6           0       -0.888530   -1.215360   -0.167690
     17          1           0       -2.110210    2.098300    0.283870
     18          1           0        0.154760    2.707150    0.629990
     19          1           0        1.250270    0.452200   -1.669990
     20          1           0        1.886820    2.091390   -1.299330
     21          1           0        3.736980    0.465440   -1.890060
     22          1           0        3.906160    1.143280   -0.231980
     23          1           0        2.801810   -1.634520   -0.992500
     24          1           0        4.346490   -1.283670   -0.149110
     25          1           0        2.551720   -2.033690    1.450960
     26          1           0        3.105520   -0.366340    1.817480
     27          1           0       -1.420850   -2.076330   -0.599080
 ---------------------------------------------------------------------
                    Distance matrix (angstroms):
                    1          2          3          4          5
     1  O    0.000000
     2  N    1.229776   0.000000
     3  O    2.167577   1.231857   0.000000
     4  C    2.370552   1.532303   2.383410   0.000000
     5  C    3.584484   2.482496   2.742760   1.399917   0.000000
     6  N    4.815469   3.797526   4.103555   2.470675   1.367529
     7  C    5.456530   4.654858   5.231085   3.141563   2.576052
     8  H    6.454303   5.620201   6.118286   4.129969   3.387922
     9  C    6.007359   5.262364   5.821465   3.839789   3.426825
    10  C    7.177903   6.571968   7.250093   5.111487   4.837615
    11  C    6.962906   6.574213   7.454341   5.128653   5.183635
    12  C    6.414154   6.018196   6.920161   4.554823   4.597707
    13  C    5.033502   4.528477   5.389836   3.047585   3.098164
    14  H    4.992917   4.506374   5.336344   3.151557   3.173954
    15  N    4.064190   3.821228   4.870356   2.526724   3.191538
    16  C    2.783356   2.568416   3.682324   1.491717   2.600469
    17  H    3.834396   2.615832   2.351583   2.152706   1.102600
    18  H    5.657626   4.555699   4.638972   3.369737   2.080375
    19  H    5.346229   4.716729   5.349285   3.424960   3.348360
    20  H    6.558064   5.680878   6.028532   4.362743   3.674030
    21  H    7.730305   7.167486   7.823693   5.792053   5.582650
    22  H    7.954768   7.260724   7.859925   5.760669   5.274365
    23  H    6.479764   6.240606   7.199559   4.917020   5.236241
    24  H    8.004856   7.661141   8.558706   6.220640   6.264709
    25  H    6.537382   6.333673   7.344651   4.984026   5.265025
    26  H    7.203703   6.698962   7.498872   5.207561   4.997749
    27  H    2.355346   2.634995   3.844736   2.174502   3.494616
                    6          7          8          9         10
     6  N    0.000000
     7  C    1.489351   0.000000
     8  H    2.090058   1.121304   0.000000
     9  C    2.566774   1.549076   2.149289   0.000000
    10  C    3.877500   2.520926   2.643420   1.540595   0.000000
    11  C    4.383427   2.929032   3.130851   2.538390   1.537048
    12  C    3.803922   2.460021   2.548553   2.947621   2.545282
    13  C    2.509075   1.532572   2.134269   2.538309   3.002076
    14  H    2.704444   2.191636   2.514870   3.514654   4.009986
    15  N    3.167728   2.520388   3.429949   2.989327   3.562993
    16  C    3.134104   3.093055   4.114016   3.632805   4.559766
    17  H    2.092111   3.505774   4.172989   4.280924   5.750870
    18  H    1.022861   2.034757   2.216486   2.852760   4.126127
    19  H    2.922353   2.195033   3.083570   1.110834   2.185264
    20  H    2.765038   2.195150   2.533171   1.110700   2.176004
    21  H    4.728180   3.492792   3.689623   2.185964   1.112007
    22  H    4.112662   2.793975   2.445410   2.176705   1.112894
    23  H    4.696720   3.385543   3.885431   2.838290   2.171717
    24  H    5.397720   3.915642   3.901139   3.500424   2.181778
    25  H    4.654563   3.439335   3.580964   3.958682   3.501321
    26  H    3.991138   2.691011   2.289075   3.342826   2.826984
    27  H    4.195625   4.161429   5.187833   4.531957   5.362331
                   11         12         13         14         15
    11  C    0.000000
    12  C    1.544066   0.000000
    13  C    2.559859   1.553385   0.000000
    14  H    3.507491   2.173765   1.115292   0.000000
    15  N    2.967537   2.446658   1.463915   2.113698   0.000000
    16  C    4.197050   3.673033   2.394213   2.699659   1.292948
    17  H    6.227609   5.652939   4.167417   4.142633   4.276317
    18  H    4.898231   4.430469   3.336501   3.523579   4.126393
    19  H    2.838785   3.365498   2.780701   3.806385   2.643744
    20  H    3.493992   3.945958   3.501998   4.361181   4.004729
    21  H    2.180920   3.505996   3.987132   5.043933   4.284199
    22  H    2.168808   2.839067   3.449650   4.279690   4.339364
    23  H    1.113446   2.181026   2.828393   3.828755   2.645300
    24  H    1.111830   2.186504   3.521545   4.340956   3.972822
    25  H    2.179828   1.112053   2.188416   2.498249   2.676640
    26  H    2.181911   1.110103   2.191082   2.487076   3.408305
    27  H    4.864593   4.454207   3.360015   3.624564   2.034923
                   16         17         18         19         20
    16  C    0.000000
    17  H    3.560443   0.000000
    18  H    4.136524   2.370778   0.000000
    19  H    3.100343   4.221379   3.402183   0.000000
    20  H    4.462933   4.299165   2.664858   1.797089   0.000000
    21  H    5.214114   6.448398   4.920185   2.496464   2.532937
    22  H    5.343816   6.113499   4.154718   3.098260   2.473031
    23  H    3.804552   6.300080   5.337551   2.687130   3.848864
    24  H    5.235499   7.301655   5.839884   3.861722   4.331745
    25  H    3.889089   6.337904   5.375404   4.196874   5.002247
    26  H    4.540283   5.969108   4.423060   4.034155   4.152128
    27  H    1.100332   4.322309   5.184095   3.830822   5.366649
                   21         22         23         24         25
    21  H    0.000000
    22  H    1.799255   0.000000
    23  H    2.467790   3.084502   0.000000
    24  H    2.542006   2.467964   1.794558   0.000000
    25  H    4.337385   3.841866   2.488449   2.518721   0.000000
    26  H    3.851812   2.668382   3.097823   2.499795   1.794739
    27  H    5.893253   6.235197   4.263899   5.838921   4.470547
                   26         27
    26  H    0.000000
    27  H    5.408498   0.000000
 Symmetry turned off by external request.
 Stoichiometry    C9H13N3O2
 Framework group  C1[X(C9H13N3O2)]
 Deg. of freedom    75
 Full point group                 C1      NOp   1
 Rotational constants (GHZ):           1.6222722           0.4018191           0.3591620
 Standard basis: 6-31G(d) (6D, 7F)
   236 basis functions,   444 primitive gaussians,   236 cartesian basis functions
    52 alpha electrons       52 beta electrons
       nuclear repulsion energy       917.2215896035 Hartrees.
 NAtoms=   27 NActive=   27 NUniq=   27 SFac= 1.00D+00 NAtFMM=   60 NAOKFM=F Big=F
 Integral buffers will be    131072 words long.
 Raffenetti 1 integral format.
 Two-electron integral symmetry is turned off.
 One-electron integrals computed using PRISM.
 NBasis=   236 RedAO= T EigKep=  1.26D-03  NBF=   236
 NBsUse=   236 1.00D-06 EigRej= -1.00D+00 NBFU=   236
 ExpMin= 1.61D-01 ExpMax= 5.48D+03 ExpMxC= 8.25D+02 IAcc=3 IRadAn=         5 AccDes= 0.00D+00
 Harris functional with IExCor=  205 and IRadAn=       5 diagonalized for initial guess.
 HarFok:  IExCor=  205 AccDes= 0.00D+00 IRadAn=         5 IDoV= 1 UseB2=F ITyADJ=14
 ICtDFT=  3500011 ScaDFX=  1.000000  1.000000  1.000000  1.000000
 FoFCou: FMM=F IPFlag=           0 FMFlag=      100000 FMFlg1=           0
         NFxFlg=           0 DoJE=T BraDBF=F KetDBF=T FulRan=T
         wScrn=  0.000000 ICntrl=       500 IOpCl=  0 I1Cent=   200000004 NGrid=           0
         NMat0=    1 NMatS0=      1 NMatT0=    0 NMatD0=    1 NMtDS0=    0 NMtDT0=    0
 Symmetry not used in FoFCou.
 Keep R1 ints in memory in canonical form, NReq=397720213.
 Requested convergence on RMS density matrix=1.00D-08 within 128 cycles.
 Requested convergence on MAX density matrix=1.00D-06.
 Requested convergence on             energy=1.00D-06.
 No special actions if energy rises.
 SCF Done:  E(RHF) =  -661.278288895     A.U. after   16 cycles
            NFock= 16  Conv=0.70D-08     -V/T= 2.0037
 ExpMin= 1.61D-01 ExpMax= 5.48D+03 ExpMxC= 8.25D+02 IAcc=3 IRadAn=         5 AccDes= 0.00D+00
 HarFok:  IExCor=  205 AccDes= 0.00D+00 IRadAn=         5 IDoV=-2 UseB2=F ITyADJ=14
 ICtDFT= 12500011 ScaDFX=  1.000000  1.000000  1.000000  1.000000
 Range of M.O.s used for correlation:    15   236
 NBasis=   236 NAE=    52 NBE=    52 NFC=    14 NFV=     0
 NROrb=    222 NOA=    38 NOB=    38 NVA=   184 NVB=   184
 Fully direct method using O(ONN) memory.
 JobTyp=1 Pass  1:  I=  15 to  52 NPSUse=  4 ParTrn=T ParDer=T DoDerP=T.
 Spin components of T(2) and E(2):
     alpha-alpha T2 =       0.9212281039D-01 E2=     -0.2719434369D+00
     alpha-beta  T2 =       0.4996214966D+00 E2=     -0.1493656972D+01
     beta-beta   T2 =       0.9212281039D-01 E2=     -0.2719434369D+00
 ANorm=    0.1297639055D+01
 E2 =    -0.2037543846D+01 EUMP2 =    -0.66331583274118D+03
          IDoAtm=111111111111111111111111111
          Differentiating once with respect to electric field.
                with respect to dipole field.
          Differentiating once with respect to nuclear coordinates.
 Keep R1 ints in memory in canonical form, NReq=397723379.
          There are     1 degrees of freedom in the 1st order CPHF.  IDoFFX=0 NUNeed=     1.
 LinEq1:  Iter=  0 NonCon=     1 RMS=4.66D-03 Max=1.26D-01 NDo=     1
 AX will form     1 AO Fock derivatives at one time.
 LinEq1:  Iter=  1 NonCon=     1 RMS=1.59D-03 Max=4.36D-02 NDo=     1
 LinEq1:  Iter=  2 NonCon=     1 RMS=6.54D-04 Max=2.06D-02 NDo=     1
 LinEq1:  Iter=  3 NonCon=     1 RMS=2.98D-04 Max=9.60D-03 NDo=     1
 LinEq1:  Iter=  4 NonCon=     1 RMS=9.39D-05 Max=2.53D-03 NDo=     1
 LinEq1:  Iter=  5 NonCon=     1 RMS=3.88D-05 Max=1.80D-03 NDo=     1
 LinEq1:  Iter=  6 NonCon=     1 RMS=1.60D-05 Max=5.55D-04 NDo=     1
 LinEq1:  Iter=  7 NonCon=     1 RMS=6.06D-06 Max=6.74D-05 NDo=     1
 LinEq1:  Iter=  8 NonCon=     1 RMS=2.40D-06 Max=4.99D-05 NDo=     1
 LinEq1:  Iter=  9 NonCon=     1 RMS=8.85D-07 Max=2.47D-05 NDo=     1
 LinEq1:  Iter= 10 NonCon=     1 RMS=4.21D-07 Max=1.32D-05 NDo=     1
 LinEq1:  Iter= 11 NonCon=     1 RMS=1.59D-07 Max=5.54D-06 NDo=     1
 LinEq1:  Iter= 12 NonCon=     1 RMS=5.64D-08 Max=9.50D-07 NDo=     1
 LinEq1:  Iter= 13 NonCon=     1 RMS=1.77D-08 Max=3.69D-07 NDo=     1
 LinEq1:  Iter= 14 NonCon=     1 RMS=5.49D-09 Max=1.49D-07 NDo=     1
 LinEq1:  Iter= 15 NonCon=     1 RMS=2.00D-09 Max=6.37D-08 NDo=     1
 LinEq1:  Iter= 16 NonCon=     1 RMS=7.32D-10 Max=1.28D-08 NDo=     1
 LinEq1:  Iter= 17 NonCon=     1 RMS=2.48D-10 Max=4.42D-09 NDo=     1
 LinEq1:  Iter= 18 NonCon=     1 RMS=8.94D-11 Max=1.53D-09 NDo=     1
 LinEq1:  Iter= 19 NonCon=     0 RMS=3.20D-11 Max=7.19D-10 NDo=     1
 Linear equations converged to 1.000D-10 1.000D-09 after    19 iterations.
 End of Minotr F.D. properties file   721 does not exist.
 End of Minotr F.D. properties file   722 does not exist.
 End of Minotr F.D. properties file   788 does not exist.

 **********************************************************************

            Population analysis using the SCF Density.

 **********************************************************************

 Alpha  occ. eigenvalues --  -20.59779 -20.59421 -15.85302 -15.63817 -15.56118
 Alpha  occ. eigenvalues --  -11.36012 -11.30494 -11.30180 -11.30010 -11.27543
 Alpha  occ. eigenvalues --  -11.24655 -11.23897 -11.23275 -11.22845  -1.58479
 Alpha  occ. eigenvalues --   -1.37953  -1.29004  -1.22436  -1.13284  -1.08411
 Alpha  occ. eigenvalues --   -1.01717  -1.00734  -0.93714  -0.88901  -0.84905
 Alpha  occ. eigenvalues --   -0.81516  -0.78002  -0.77035  -0.74418  -0.71238
 Alpha  occ. eigenvalues --   -0.70278  -0.69797  -0.67354  -0.64045  -0.63314
 Alpha  occ. eigenvalues --   -0.61874  -0.59834  -0.57437  -0.56504  -0.54800
 Alpha  occ. eigenvalues --   -0.54139  -0.50514  -0.49809  -0.48602  -0.47857
 Alpha  occ. eigenvalues --   -0.47753  -0.46388  -0.45387  -0.44044  -0.42200
 Alpha  occ. eigenvalues --   -0.38997  -0.33536
 Alpha virt. eigenvalues --    0.07344   0.11496   0.17337   0.21581   0.23776
 Alpha virt. eigenvalues --    0.25100   0.25915   0.27973   0.28593   0.28883
 Alpha virt. eigenvalues --    0.29882   0.31471   0.31786   0.32409   0.33191
 Alpha virt. eigenvalues --    0.33925   0.34625   0.35666   0.37705   0.38776
 Alpha virt. eigenvalues --    0.40357   0.41124   0.43791   0.45183   0.45313
 Alpha virt. eigenvalues --    0.46993   0.49851   0.53366   0.57641   0.59139
 Alpha virt. eigenvalues --    0.63306   0.68412   0.69435   0.72462   0.74091
 Alpha virt. eigenvalues --    0.74855   0.75720   0.75845   0.78245   0.78612
 Alpha virt. eigenvalues --    0.80946   0.82518   0.84662   0.84990   0.87871
 Alpha virt. eigenvalues --    0.88535   0.90665   0.91684   0.92405   0.93768
 Alpha virt. eigenvalues --    0.94974   0.97407   0.99367   1.00925   1.01951
 Alpha virt. eigenvalues --    1.03039   1.04967   1.06148   1.07155   1.08634
 Alpha virt. eigenvalues --    1.09848   1.10642   1.11793   1.12727   1.13199
 Alpha virt. eigenvalues --    1.13381   1.14321   1.15394   1.15877   1.16633
 Alpha virt. eigenvalues --    1.17917   1.20507   1.21511   1.21815   1.22943
 Alpha virt. eigenvalues --    1.23417   1.24858   1.25664   1.27274   1.28365
 Alpha virt. eigenvalues --    1.29030   1.31450   1.34203   1.36611   1.38983
 Alpha virt. eigenvalues --    1.42047   1.47898   1.51123   1.52613   1.53564
 Alpha virt. eigenvalues --    1.54340   1.58559   1.60753   1.63649   1.65253
 Alpha virt. eigenvalues --    1.67294   1.69111   1.72012   1.72523   1.76631
 Alpha virt. eigenvalues --    1.79270   1.82186   1.83913   1.87470   1.91215
 Alpha virt. eigenvalues --    1.93443   1.95963   1.97868   1.99893   2.01081
 Alpha virt. eigenvalues --    2.02920   2.03180   2.05633   2.09530   2.11676
 Alpha virt. eigenvalues --    2.11915   2.13246   2.16983   2.18152   2.19708
 Alpha virt. eigenvalues --    2.20414   2.22175   2.23879   2.24736   2.25857
 Alpha virt. eigenvalues --    2.29010   2.31955   2.32855   2.35236   2.36896
 Alpha virt. eigenvalues --    2.39593   2.41557   2.42494   2.44767   2.45627
 Alpha virt. eigenvalues --    2.48722   2.50662   2.50819   2.56308   2.57250
 Alpha virt. eigenvalues --    2.60383   2.63970   2.65749   2.67833   2.68388
 Alpha virt. eigenvalues --    2.69266   2.70143   2.74113   2.75299   2.81329
 Alpha virt. eigenvalues --    2.84849   2.86579   2.89794   2.91437   2.94181
 Alpha virt. eigenvalues --    2.97693   2.98041   3.02192   3.05678   3.06860
 Alpha virt. eigenvalues --    3.07837   3.14630   3.18507   3.22773   3.27201
 Alpha virt. eigenvalues --    3.31737   3.32207   3.38216   3.42435   3.60757
 Alpha virt. eigenvalues --    4.10475   4.23106   4.32231   4.36515   4.44437
 Alpha virt. eigenvalues --    4.52145   4.59358   4.60088   4.70674   4.78226
 Alpha virt. eigenvalues --    4.96912   4.99222   5.04582   5.08983
          Condensed to atoms (all electrons):
               1          2          3          4          5          6
     1  O    8.302354   0.310041  -0.090366  -0.077171   0.003520  -0.000011
     2  N    0.310041   5.678823   0.312053   0.264080  -0.048708   0.000728
     3  O   -0.090366   0.312053   8.329184  -0.088270   0.008119   0.000488
     4  C   -0.077171   0.264080  -0.088270   5.258648   0.563497  -0.050798
     5  C    0.003520  -0.048708   0.008119   0.563497   4.685098   0.315588
     6  N   -0.000011   0.000728   0.000488  -0.050798   0.315588   7.156492
     7  C    0.000001  -0.000100   0.000001   0.006067  -0.029533   0.204542
     8  H   -0.000000   0.000001  -0.000000  -0.000257   0.002873  -0.045912
     9  C    0.000000  -0.000005  -0.000000   0.000661   0.000696  -0.058354
    10  C   -0.000000   0.000000   0.000000  -0.000025  -0.000033   0.003358
    11  C   -0.000000  -0.000000  -0.000000  -0.000011   0.000011  -0.000150
    12  C   -0.000000   0.000001  -0.000000  -0.000252  -0.000141   0.003862
    13  C   -0.000009   0.000017  -0.000001  -0.007827  -0.000612  -0.051578
    14  H    0.000000  -0.000030   0.000000   0.001859   0.002916  -0.005084
    15  N    0.000416   0.001474  -0.000009  -0.062715  -0.004823   0.002147
    16  C    0.001403  -0.021992   0.002087   0.310972  -0.044201   0.000976
    17  H    0.000153  -0.004498   0.012849  -0.023852   0.374428  -0.031745
    18  H    0.000000  -0.000033   0.000008   0.001582  -0.026405   0.331593
    19  H    0.000000  -0.000003  -0.000000  -0.000989   0.001226  -0.000256
    20  H    0.000000   0.000000   0.000000  -0.000037  -0.000024  -0.000565
    21  H   -0.000000  -0.000000  -0.000000   0.000001   0.000001  -0.000063
    22  H   -0.000000   0.000000  -0.000000  -0.000000  -0.000001  -0.000092
    23  H    0.000000  -0.000000   0.000000   0.000025  -0.000000  -0.000024
    24  H    0.000000   0.000000   0.000000  -0.000000  -0.000000   0.000005
    25  H    0.000000  -0.000000   0.000000   0.000023  -0.000001  -0.000075
    26  H    0.000000  -0.000000   0.000000   0.000004  -0.000001  -0.000077
    27  H    0.006794  -0.000112   0.000057  -0.068121   0.001991  -0.000017
               7          8          9         10         11         12
     1  O    0.000001  -0.000000   0.000000  -0.000000  -0.000000  -0.000000
     2  N   -0.000100   0.000001  -0.000005   0.000000  -0.000000   0.000001
     3  O    0.000001  -0.000000  -0.000000   0.000000  -0.000000  -0.000000
     4  C    0.006067  -0.000257   0.000661  -0.000025  -0.000011  -0.000252
     5  C   -0.029533   0.002873   0.000696  -0.000033   0.000011  -0.000141
     6  N    0.204542  -0.045912  -0.058354   0.003358  -0.000150   0.003862
     7  C    5.046757   0.413380   0.342691  -0.049194  -0.008170  -0.065234
     8  H    0.413380   0.543771  -0.057376   0.000671  -0.000196  -0.003309
     9  C    0.342691  -0.057376   5.173598   0.319919  -0.053699  -0.005398
    10  C   -0.049194   0.000671   0.319919   5.126417   0.332573  -0.060777
    11  C   -0.008170  -0.000196  -0.053699   0.332573   5.125070   0.330415
    12  C   -0.065234  -0.003309  -0.005398  -0.060777   0.330415   5.141897
    13  C    0.314595  -0.037801  -0.054900  -0.000926  -0.047097   0.367961
    14  H   -0.042176  -0.000845   0.003784  -0.000385   0.003965  -0.041233
    15  N   -0.063784   0.004031  -0.011571   0.001221  -0.007277  -0.075838
    16  C   -0.000406  -0.000161  -0.000057  -0.000084  -0.000008   0.002370
    17  H    0.001442  -0.000048  -0.000046   0.000001  -0.000000   0.000001
    18  H   -0.030118  -0.004173   0.001104  -0.000114   0.000010  -0.000157
    19  H   -0.035253   0.003973   0.388471  -0.033435  -0.002111   0.000529
    20  H   -0.042004  -0.001806   0.397094  -0.036927   0.004124  -0.000385
    21  H    0.004090  -0.000068  -0.035964   0.400110  -0.035770   0.004241
    22  H   -0.004517   0.003542  -0.045555   0.395763  -0.045505  -0.001239
    23  H    0.000502   0.000034  -0.002035  -0.040240   0.396581  -0.036766
    24  H   -0.000146  -0.000106   0.004408  -0.038474   0.400400  -0.037712
    25  H    0.005200  -0.000017  -0.000390   0.004110  -0.033662   0.394687
    26  H   -0.004399   0.001455   0.001100  -0.002440  -0.042542   0.393989
    27  H   -0.000388   0.000008  -0.000042   0.000003   0.000007  -0.000022
              13         14         15         16         17         18
     1  O   -0.000009   0.000000   0.000416   0.001403   0.000153   0.000000
     2  N    0.000017  -0.000030   0.001474  -0.021992  -0.004498  -0.000033
     3  O   -0.000001   0.000000  -0.000009   0.002087   0.012849   0.000008
     4  C   -0.007827   0.001859  -0.062715   0.310972  -0.023852   0.001582
     5  C   -0.000612   0.002916  -0.004823  -0.044201   0.374428  -0.026405
     6  N   -0.051578  -0.005084   0.002147   0.000976  -0.031745   0.331593
     7  C    0.314595  -0.042176  -0.063784  -0.000406   0.001442  -0.030118
     8  H   -0.037801  -0.000845   0.004031  -0.000161  -0.000048  -0.004173
     9  C   -0.054900   0.003784  -0.011571  -0.000057  -0.000046   0.001104
    10  C   -0.000926  -0.000385   0.001221  -0.000084   0.000001  -0.000114
    11  C   -0.047097   0.003965  -0.007277  -0.000008  -0.000000   0.000010
    12  C    0.367961  -0.041233  -0.075838   0.002370   0.000001  -0.000157
    13  C    5.017736   0.408748   0.250057  -0.066361  -0.000077   0.004035
    14  H    0.408748   0.517008  -0.034007  -0.007437   0.000009  -0.000009
    15  N    0.250057  -0.034007   6.963031   0.579876  -0.000054  -0.000124
    16  C   -0.066361  -0.007437   0.579876   4.707320   0.001394  -0.000173
    17  H   -0.000077   0.000009  -0.000054   0.001394   0.380157  -0.002568
    18  H    0.004035  -0.000009  -0.000124  -0.000173  -0.002568   0.325990
    19  H   -0.005835   0.000059   0.006564   0.001756   0.000005  -0.000131
    20  H    0.003949  -0.000053   0.000088  -0.000042  -0.000012   0.002070
    21  H   -0.000412   0.000009  -0.000034   0.000003  -0.000000   0.000000
    22  H    0.000322  -0.000042   0.000009  -0.000000   0.000000   0.000002
    23  H   -0.006026   0.000002   0.006794   0.000097   0.000000   0.000000
    24  H    0.004157  -0.000061   0.000010   0.000005   0.000000  -0.000000
    25  H   -0.034308  -0.002738   0.001461  -0.000063  -0.000000   0.000003
    26  H   -0.045127  -0.000902   0.004245  -0.000027   0.000000  -0.000001
    27  H    0.004700  -0.000139  -0.041199   0.404552  -0.000063   0.000001
              19         20         21         22         23         24
     1  O    0.000000   0.000000  -0.000000  -0.000000   0.000000   0.000000
     2  N   -0.000003   0.000000  -0.000000   0.000000  -0.000000   0.000000
     3  O   -0.000000   0.000000  -0.000000  -0.000000   0.000000   0.000000
     4  C   -0.000989  -0.000037   0.000001  -0.000000   0.000025  -0.000000
     5  C    0.001226  -0.000024   0.000001  -0.000001  -0.000000  -0.000000
     6  N   -0.000256  -0.000565  -0.000063  -0.000092  -0.000024   0.000005
     7  C   -0.035253  -0.042004   0.004090  -0.004517   0.000502  -0.000146
     8  H    0.003973  -0.001806  -0.000068   0.003542   0.000034  -0.000106
     9  C    0.388471   0.397094  -0.035964  -0.045555  -0.002035   0.004408
    10  C   -0.033435  -0.036927   0.400110   0.395763  -0.040240  -0.038474
    11  C   -0.002111   0.004124  -0.035770  -0.045505   0.396581   0.400400
    12  C    0.000529  -0.000385   0.004241  -0.001239  -0.036766  -0.037712
    13  C   -0.005835   0.003949  -0.000412   0.000322  -0.006026   0.004157
    14  H    0.000059  -0.000053   0.000009  -0.000042   0.000002  -0.000061
    15  N    0.006564   0.000088  -0.000034   0.000009   0.006794   0.000010
    16  C    0.001756  -0.000042   0.000003  -0.000000   0.000097   0.000005
    17  H    0.000005  -0.000012  -0.000000   0.000000   0.000000   0.000000
    18  H   -0.000131   0.002070   0.000000   0.000002   0.000000  -0.000000
    19  H    0.505463  -0.023697  -0.002549   0.003759   0.001679  -0.000074
    20  H   -0.023697   0.546933  -0.002662  -0.002920  -0.000049  -0.000090
    21  H   -0.002549  -0.002662   0.525493  -0.024679  -0.002823  -0.002066
    22  H    0.003759  -0.002920  -0.024679   0.569424   0.004067  -0.003550
    23  H    0.001679  -0.000049  -0.002823   0.004067   0.510244  -0.024896
    24  H   -0.000074  -0.000090  -0.002066  -0.003550  -0.024896   0.540487
    25  H   -0.000028   0.000011  -0.000086  -0.000083  -0.002055  -0.002413
    26  H    0.000023  -0.000035  -0.000072   0.002453   0.003845  -0.002760
    27  H    0.000062   0.000000  -0.000000   0.000000  -0.000021  -0.000000
              25         26         27
     1  O    0.000000   0.000000   0.006794
     2  N   -0.000000  -0.000000  -0.000112
     3  O    0.000000   0.000000   0.000057
     4  C    0.000023   0.000004  -0.068121
     5  C   -0.000001  -0.000001   0.001991
     6  N   -0.000075  -0.000077  -0.000017
     7  C    0.005200  -0.004399  -0.000388
     8  H   -0.000017   0.001455   0.000008
     9  C   -0.000390   0.001100  -0.000042
    10  C    0.004110  -0.002440   0.000003
    11  C   -0.033662  -0.042542   0.000007
    12  C    0.394687   0.393989  -0.000022
    13  C   -0.034308  -0.045127   0.004700
    14  H   -0.002738  -0.000902  -0.000139
    15  N    0.001461   0.004245  -0.041199
    16  C   -0.000063  -0.000027   0.404552
    17  H   -0.000000   0.000000  -0.000063
    18  H    0.000003  -0.000001   0.000001
    19  H   -0.000028   0.000023   0.000062
    20  H    0.000011  -0.000035   0.000000
    21  H   -0.000086  -0.000072  -0.000000
    22  H   -0.000083   0.002453   0.000000
    23  H   -0.002055   0.003845  -0.000021
    24  H   -0.002413  -0.002760  -0.000000
    25  H    0.509705  -0.023211  -0.000016
    26  H   -0.023211   0.564690   0.000001
    27  H   -0.000016   0.000001   0.441558
 Mulliken charges:
               1
     1  O   -0.457126
     2  N    0.508262
     3  O   -0.486200
     4  C   -0.027095
     5  C    0.194519
     6  N   -0.774975
     7  C    0.036153
     8  H    0.178337
     9  C   -0.308136
    10  C   -0.321093
    11  C   -0.316956
    12  C   -0.311488
    13  C   -0.017383
    14  H    0.196781
    15  N   -0.519990
    16  C    0.128202
    17  H    0.292523
    18  H    0.397607
    19  H    0.190792
    20  H    0.157041
    21  H    0.173298
    22  H    0.148843
    23  H    0.191064
    24  H    0.162877
    25  H    0.183946
    26  H    0.149790
    27  H    0.250409
 Sum of Mulliken charges =  -0.00000
 Mulliken charges with hydrogens summed into heavy atoms:
               1
     1  O   -0.457126
     2  N    0.508262
     3  O   -0.486200
     4  C   -0.027095
     5  C    0.487041
     6  N   -0.377369
     7  C    0.214490
     9  C    0.039697
    10  C    0.001048
    11  C    0.036984
    12  C    0.022248
    13  C    0.179398
    15  N   -0.519990
    16  C    0.378612
 Electronic spatial extent (au):  <R**2>=           3114.4070
 Charge=              0.0000 electrons
 Dipole moment (field-independent basis, Debye):
    X=              5.3483    Y=              4.4540    Z=              1.5090  Tot=              7.1218
 Quadrupole moment (field-independent basis, Debye-Ang):
   XX=           -104.9068   YY=            -79.7432   ZZ=            -82.9969
   XY=             -0.5871   XZ=             -2.9613   YZ=              1.1217
 Traceless Quadrupole moment (field-independent basis, Debye-Ang):
   XX=            -15.6911   YY=              9.4724   ZZ=              6.2187
   XY=             -0.5871   XZ=             -2.9613   YZ=              1.1217
 Octapole moment (field-independent basis, Debye-Ang**2):
  XXX=             96.5715  YYY=             33.4254  ZZZ=              1.4348  XYY=             -3.2699
  XXY=              7.2627  XXZ=             19.1445  XZZ=             -5.1838  YZZ=             -2.2019
  YYZ=              7.1835  XYZ=             -0.5201
 Hexadecapole moment (field-independent basis, Debye-Ang**3):
 XXXX=          -3491.4137 YYYY=           -616.3751 ZZZZ=           -326.8619 XXXY=             -5.2655
 XXXZ=           -118.7267 YYYX=              9.9962 YYYZ=             24.2140 ZZZX=            -50.0845
 ZZZY=              8.2174 XXYY=           -648.1924 XXZZ=           -552.0566 YYZZ=           -169.4604
 XXYZ=              6.7170 YYXZ=            -17.5682 ZZXY=              8.5105
 N-N= 9.172215896035D+02 E-N=-3.380476615056D+03  KE= 6.588680270347D+02
 Calling FoFJK, ICntrl=  10002127 FMM=F ISym2X=0 I1Cent= 0 IOpClX= 0 NMat=1 NMatS=1 NMatT=0.
 -------------------------------------------------------------------
 Center     Atomic                   Forces (Hartrees/Bohr)
 Number     Number              X              Y              Z
 -------------------------------------------------------------------
      1        8           0.000534783   -0.018951279    0.000055483
      2        7           0.039557945    0.008972756    0.005988453
      3        8          -0.003578795    0.016838485    0.001307882
      4        6          -0.003090674    0.002786429    0.011905958
      5        6           0.002532501   -0.014017768   -0.005610465
      6        7           0.016261472   -0.002948616   -0.010158161
      7        6          -0.003694734    0.005815002    0.005425282
      8        1          -0.012261492   -0.001783595   -0.006835648
      9        6          -0.004284633    0.001172554   -0.002169303
     10        6           0.002705243   -0.001322423    0.000682754
     11        6          -0.001127676   -0.004221707   -0.001824944
     12        6           0.000654115   -0.009413796   -0.002860703
     13        6           0.012509514    0.000052769   -0.001268000
     14        1           0.001177055    0.003417133   -0.011301232
     15        7          -0.000493918   -0.008070123    0.020446956
     16        6          -0.021034329    0.015451276   -0.015348287
     17        1           0.007029116   -0.008228556   -0.000238154
     18        1          -0.018516269   -0.002557397    0.000810979
     19        1           0.003347985    0.005712158    0.007310151
     20        1          -0.002930029   -0.007760926    0.002913868
     21        1          -0.003590210    0.002372020    0.009907276
     22        1          -0.004544886   -0.004017682   -0.006996170
     23        1           0.004493949    0.005963326    0.008799567
     24        1          -0.009613641    0.002332740   -0.001450364
     25        1          -0.001240570    0.010604895   -0.002515623
     26        1          -0.004931156   -0.004708313   -0.003958952
     27        1           0.004129335    0.006510638   -0.003018601
 -------------------------------------------------------------------
 Cartesian Forces:  Max     0.039557945 RMS     0.009003944

 GradGradGradGradGradGradGradGradGradGradGradGradGradGradGradGradGradGrad
 Berny optimization.
 FormGI is forming the generalized inverse of G from B-inverse, IUseBI=4.
 Internal  Forces:  Max     0.037801344 RMS     0.007024694
 Search for a local minimum.
 Step number   1 out of a maximum of   20
 All quantities printed in internal units (Hartrees-Bohrs-Radians)
 Mixed Optimization -- RFO/linear search
 Second derivative matrix not updated -- first step.
 ITU=  0
     Eigenvalues ---    0.00232   0.00779   0.01105   0.01149   0.01274
     Eigenvalues ---    0.01543   0.01609   0.01835   0.02046   0.02106
     Eigenvalues ---    0.02708   0.03659   0.04516   0.04686   0.04838
     Eigenvalues ---    0.05081   0.05140   0.05308   0.05882   0.06248
     Eigenvalues ---    0.07089   0.07684   0.07698   0.07825   0.07985
     Eigenvalues ---    0.08034   0.08045   0.10439   0.11584   0.11983
     Eigenvalues ---    0.12501   0.14393   0.15088   0.15944   0.15998
     Eigenvalues ---    0.20100   0.22267   0.23351   0.25000   0.25000
     Eigenvalues ---    0.25000   0.25406   0.26412   0.26650   0.27975
     Eigenvalues ---    0.28086   0.28535   0.29212   0.31432   0.32046
     Eigenvalues ---    0.32054   0.32238   0.32296   0.32384   0.32388
     Eigenvalues ---    0.32407   0.32512   0.32526   0.32589   0.33317
     Eigenvalues ---    0.33396   0.33645   0.35524   0.43885   0.44347
     Eigenvalues ---    0.50232   0.67270   0.90317   0.911801000.00000
     Eigenvalues --- 1000.000001000.000001000.000001000.000001000.00000
     Eigenvalues --- 1000.000001000.000001000.000001000.000001000.00000
     Eigenvalues --- 1000.000001000.000001000.000001000.000001000.00000
     Eigenvalues --- 1000.000001000.000001000.000001000.000001000.00000
     Eigenvalues --- 1000.000001000.000001000.000001000.000001000.00000
     Eigenvalues --- 1000.000001000.000001000.000001000.000001000.00000
     Eigenvalues --- 1000.000001000.000001000.000001000.000001000.00000
     Eigenvalues --- 1000.000001000.000001000.000001000.000001000.00000
     Eigenvalues --- 1000.000001000.000001000.000001000.000001000.00000
     Eigenvalues --- 1000.000001000.000001000.000001000.000001000.00000
     Eigenvalues --- 1000.000001000.000001000.000001000.000001000.00000
     Eigenvalues --- 1000.000001000.000001000.000001000.000001000.00000
     Eigenvalues --- 1000.000001000.000001000.000001000.000001000.00000
     Eigenvalues --- 1000.000001000.000001000.000001000.000001000.00000
     Eigenvalues --- 1000.000001000.000001000.000001000.000001000.00000
     Eigenvalues --- 1000.000001000.000001000.000001000.000001000.00000
     Eigenvalues --- 1000.000001000.000001000.000001000.000001000.00000
     Eigenvalues --- 1000.000001000.000001000.000001000.000001000.00000
     Eigenvalues --- 1000.00000
 RFO step:  Lambda=-2.51373976D-02 EMin= 2.32402296D-03
 Linear search not attempted -- first point.
 Iteration  1 RMS(Cart)=  0.06098008 RMS(Int)=  0.00141394
 Iteration  2 RMS(Cart)=  0.00171916 RMS(Int)=  0.00029886
 Iteration  3 RMS(Cart)=  0.00000118 RMS(Int)=  0.00029886
 Iteration  4 RMS(Cart)=  0.00000000 RMS(Int)=  0.00029886
 Iteration  1 RMS(Cart)=  0.00003269 RMS(Int)=  0.00003460
 Iteration  2 RMS(Cart)=  0.00002394 RMS(Int)=  0.00003713
 Iteration  3 RMS(Cart)=  0.00001903 RMS(Int)=  0.00004188
 Iteration  4 RMS(Cart)=  0.00001566 RMS(Int)=  0.00004692
 Iteration  5 RMS(Cart)=  0.00001307 RMS(Int)=  0.00005167
 Iteration  6 RMS(Cart)=  0.00001099 RMS(Int)=  0.00005595
 Iteration  7 RMS(Cart)=  0.00000926 RMS(Int)=  0.00005971
 Iteration  8 RMS(Cart)=  0.00000781 RMS(Int)=  0.00006298
 Iteration  9 RMS(Cart)=  0.00000660 RMS(Int)=  0.00006579
 Iteration 10 RMS(Cart)=  0.00000557 RMS(Int)=  0.00006821
 Iteration 11 RMS(Cart)=  0.00000470 RMS(Int)=  0.00007028
 Iteration 12 RMS(Cart)=  0.00000397 RMS(Int)=  0.00007205
 Iteration 13 RMS(Cart)=  0.00000336 RMS(Int)=  0.00007355
 Iteration 14 RMS(Cart)=  0.00000284 RMS(Int)=  0.00007483
 Iteration 15 RMS(Cart)=  0.00000240 RMS(Int)=  0.00007591
 Iteration 16 RMS(Cart)=  0.00000202 RMS(Int)=  0.00007683
 Iteration 17 RMS(Cart)=  0.00000171 RMS(Int)=  0.00007761
 Iteration 18 RMS(Cart)=  0.00000144 RMS(Int)=  0.00007827
 Iteration 19 RMS(Cart)=  0.00000122 RMS(Int)=  0.00007883
 Iteration 20 RMS(Cart)=  0.00000103 RMS(Int)=  0.00007931
 Iteration 21 RMS(Cart)=  0.00000087 RMS(Int)=  0.00007971
 Variable       Old X    -DE/DX   Delta X   Delta X   Delta X     New X
                                 (Linear)    (Quad)   (Total)
    R1        2.32394   0.01749   0.00000   0.01867   0.01867   2.34261
    R2        2.32787   0.01563   0.00000   0.01684   0.01684   2.34471
    R3        2.89563  -0.03780   0.00000  -0.11915  -0.11915   2.77648
    R4        2.64546  -0.03217   0.00000  -0.06904  -0.06880   2.57666
    R5        2.81894  -0.02610   0.00000  -0.07620  -0.07591   2.74303
    R6        2.58426  -0.02365   0.00000  -0.04413  -0.04411   2.54015
    R7        2.08361  -0.01080   0.00000  -0.03008  -0.03008   2.05353
    R8        2.81447  -0.01745   0.00000  -0.04569  -0.04596   2.76851
    R9        1.93293  -0.00671   0.00000  -0.01447  -0.01447   1.91846
   R10        2.11896  -0.01290   0.00000  -0.03801  -0.03801   2.08095
   R11        2.92733  -0.01293   0.00000  -0.04353  -0.04349   2.88384
   R12        2.89614  -0.00148   0.00000  -0.00032  -0.00033   2.89581
   R13        2.91130  -0.00426   0.00000  -0.01437  -0.01442   2.89689
   R14        2.09917  -0.00961   0.00000  -0.02744  -0.02744   2.07173
   R15        2.09892  -0.00837   0.00000  -0.02390  -0.02390   2.07502
   R16        2.90460  -0.00144   0.00000  -0.00685  -0.00690   2.89770
   R17        2.10139  -0.01054   0.00000  -0.03020  -0.03020   2.07119
   R18        2.10306  -0.00897   0.00000  -0.02577  -0.02577   2.07730
   R19        2.91786  -0.00932   0.00000  -0.02966  -0.02970   2.88816
   R20        2.10411  -0.01137   0.00000  -0.03271  -0.03271   2.07140
   R21        2.10105  -0.00996   0.00000  -0.02853  -0.02853   2.07252
   R22        2.93547  -0.01108   0.00000  -0.03660  -0.03654   2.89893
   R23        2.10147  -0.01082   0.00000  -0.03101  -0.03101   2.07046
   R24        2.09779  -0.00770   0.00000  -0.02193  -0.02193   2.07586
   R25        2.10760  -0.01087   0.00000  -0.03145  -0.03145   2.07614
   R26        2.76640  -0.00464   0.00000  -0.00919  -0.00948   2.75692
   R27        2.44332  -0.00157   0.00000  -0.00272  -0.00261   2.44071
   R28        2.07933  -0.00591   0.00000  -0.01634  -0.01634   2.06299
    A1        2.15402   0.01121   0.00000   0.04109   0.04069   2.19471
    A2        2.05645  -0.00562   0.00000  -0.02009  -0.02050   2.03595
    A3        2.07240  -0.00554   0.00000  -0.01978  -0.02019   2.05222
    A4        2.01795  -0.00974   0.00000  -0.03191  -0.03227   1.98568
    A5        2.02935  -0.00270   0.00000  -0.00637  -0.00674   2.02261
    A6        2.23588   0.01243   0.00000   0.03831   0.03902   2.27489
    A7        2.20682   0.00647   0.00000   0.02367   0.02408   2.23089
    A8        2.06292  -0.00397   0.00000  -0.01563  -0.01588   2.04704
    A9        2.01321  -0.00250   0.00000  -0.00773  -0.00798   2.00522
   A10        2.24650  -0.00724   0.00000  -0.02001  -0.02050   2.22600
   A11        2.09968  -0.01232   0.00000  -0.07342  -0.07392   2.02576
   A12        1.86237   0.01974   0.00000   0.10738   0.10781   1.97018
   A13        1.84141  -0.00237   0.00000  -0.01778  -0.01747   1.82394
   A14        2.01203  -0.00105   0.00000  -0.01609  -0.01648   1.99555
   A15        1.95912   0.00197   0.00000  -0.00467  -0.00517   1.95395
   A16        1.85152   0.00328   0.00000   0.02906   0.02895   1.88048
   A17        1.85055   0.00157   0.00000   0.02863   0.02821   1.87876
   A18        1.93574  -0.00297   0.00000  -0.01256  -0.01227   1.92347
   A19        1.90863   0.00025   0.00000  -0.00608  -0.00616   1.90248
   A20        1.92219  -0.00066   0.00000  -0.01416  -0.01417   1.90802
   A21        1.92248  -0.00188   0.00000  -0.00584  -0.00586   1.91662
   A22        1.91904  -0.00073   0.00000   0.00407   0.00395   1.92300
   A23        1.90665   0.00340   0.00000   0.02717   0.02717   1.93382
   A24        1.88470  -0.00036   0.00000  -0.00471  -0.00495   1.87974
   A25        1.93964  -0.00075   0.00000   0.00592   0.00584   1.94548
   A26        1.91880  -0.00080   0.00000  -0.00744  -0.00746   1.91134
   A27        1.90540   0.00029   0.00000  -0.00299  -0.00308   1.90232
   A28        1.91618   0.00056   0.00000   0.00664   0.00668   1.92286
   A29        1.89897   0.00192   0.00000   0.01155   0.01157   1.91054
   A30        1.88384  -0.00119   0.00000  -0.01414  -0.01422   1.86962
   A31        1.94427   0.00150   0.00000   0.00747   0.00756   1.95183
   A32        1.90232   0.00014   0.00000   0.00542   0.00544   1.90776
   A33        1.91753   0.00041   0.00000   0.00509   0.00502   1.92255
   A34        1.90657  -0.00142   0.00000  -0.01530  -0.01535   1.89122
   A35        1.91558  -0.00072   0.00000   0.00019   0.00010   1.91568
   A36        1.87622   0.00002   0.00000  -0.00337  -0.00341   1.87282
   A37        1.94551  -0.00404   0.00000  -0.02155  -0.02157   1.92394
   A38        1.90635   0.00258   0.00000   0.01535   0.01520   1.92155
   A39        1.91111   0.00189   0.00000   0.01518   0.01512   1.92623
   A40        1.90691   0.00077   0.00000  -0.00290  -0.00278   1.90413
   A41        1.91245  -0.00014   0.00000  -0.00294  -0.00281   1.90963
   A42        1.88033  -0.00095   0.00000  -0.00250  -0.00269   1.87765
   A43        1.84514   0.00582   0.00000   0.02231   0.02231   1.86745
   A44        1.93278  -0.00469   0.00000  -0.02402  -0.02447   1.90832
   A45        1.99834  -0.00001   0.00000   0.01366   0.01418   2.01252
   A46        1.88424   0.00200   0.00000   0.02633   0.02653   1.91077
   A47        1.89066  -0.00419   0.00000  -0.03431  -0.03441   1.85625
   A48        1.90815   0.00132   0.00000  -0.00234  -0.00224   1.90591
   A49        2.10195  -0.00438   0.00000  -0.00802  -0.00872   2.09324
   A50        2.27160  -0.00647   0.00000  -0.03255  -0.03293   2.23868
   A51        1.97548   0.00316   0.00000   0.01109   0.00985   1.98533
   A52        2.02895   0.00338   0.00000   0.01264   0.01138   2.04033
    D1       -3.00270   0.00038   0.00000   0.00670   0.00658  -2.99613
    D2        0.14413   0.00149   0.00000   0.00000  -0.00000   0.14413
    D3        0.16486  -0.00186   0.00000  -0.04434  -0.04440   0.12046
    D4       -2.97150  -0.00076   0.00000  -0.05104  -0.05097  -3.02247
    D5        3.10136   0.00117   0.00000   0.01843   0.01864   3.12000
    D6       -0.01533   0.00110   0.00000   0.00266   0.00253  -0.01281
    D7       -0.04621  -0.00016   0.00000   0.02586   0.02619  -0.02002
    D8        3.12029  -0.00023   0.00000   0.01009   0.01008   3.13036
    D9       -3.11791   0.00297   0.00000   0.00740   0.00761  -3.11029
   D10        0.15888   0.00197   0.00000   0.08863   0.08863   0.24751
   D11        0.02969   0.00433   0.00000   0.00000   0.00000   0.02969
   D12       -2.97671   0.00333   0.00000   0.08123   0.08102  -2.89569
   D13        0.22766  -0.00227   0.00000  -0.04317  -0.04272   0.18495
   D14        2.90727   0.00295   0.00000   0.02272   0.02129   2.92856
   D15       -2.93822  -0.00223   0.00000  -0.02791  -0.02704  -2.96526
   D16       -0.25861   0.00300   0.00000   0.03799   0.03697  -0.22164
   D17       -2.80839   0.00004   0.00000   0.01723   0.01745  -2.79094
   D18        1.43836  -0.00184   0.00000   0.00206   0.00229   1.44065
   D19       -0.80075   0.00151   0.00000   0.03862   0.03826  -0.76249
   D20        0.74666   0.00119   0.00000  -0.00787  -0.00852   0.73815
   D21       -1.28977  -0.00069   0.00000  -0.02304  -0.02368  -1.31345
   D22        2.75431   0.00266   0.00000   0.01352   0.01229   2.76660
   D23        2.94788   0.00263   0.00000   0.03788   0.03764   2.98552
   D24       -1.22464   0.00148   0.00000   0.03012   0.02991  -1.19473
   D25        0.85232  -0.00055   0.00000   0.01184   0.01169   0.86401
   D26        0.91718   0.00396   0.00000   0.04936   0.04937   0.96655
   D27        3.02785   0.00281   0.00000   0.04160   0.04164   3.06949
   D28       -1.17838   0.00078   0.00000   0.02333   0.02342  -1.15496
   D29       -1.08463   0.00176   0.00000   0.00574   0.00588  -1.07875
   D30        1.02604   0.00061   0.00000  -0.00202  -0.00186   1.02418
   D31        3.10300  -0.00142   0.00000  -0.02029  -0.02008   3.08292
   D32       -2.89411  -0.00087   0.00000  -0.01956  -0.01930  -2.91341
   D33       -0.85757   0.00242   0.00000   0.01206   0.01199  -0.84558
   D34        1.30939   0.00039   0.00000   0.00000  -0.00001   1.30939
   D35       -0.89203  -0.00179   0.00000  -0.02644  -0.02641  -0.91844
   D36        1.14451   0.00150   0.00000   0.00517   0.00488   1.14939
   D37       -2.97171  -0.00053   0.00000  -0.00689  -0.00712  -2.97883
   D38        1.11039   0.00148   0.00000   0.01745   0.01754   1.12793
   D39       -3.13626   0.00476   0.00000   0.04906   0.04883  -3.08743
   D40       -0.96930   0.00273   0.00000   0.03700   0.03684  -0.93246
   D41        0.95666   0.00103   0.00000   0.00000   0.00000   0.95666
   D42        3.08174   0.00069   0.00000   0.00727   0.00723   3.08897
   D43       -1.13800  -0.00107   0.00000  -0.01610  -0.01607  -1.15407
   D44       -1.15592   0.00215   0.00000   0.01880   0.01887  -1.13704
   D45        0.96917   0.00180   0.00000   0.02608   0.02610   0.99527
   D46        3.03261   0.00005   0.00000   0.00271   0.00280   3.03541
   D47        3.06190   0.00098   0.00000   0.00582   0.00579   3.06768
   D48       -1.09621   0.00063   0.00000   0.01309   0.01302  -1.08319
   D49        0.96723  -0.00112   0.00000  -0.01028  -0.01028   0.95695
   D50       -0.92193  -0.00083   0.00000   0.00000   0.00000  -0.92193
   D51        1.18308  -0.00156   0.00000  -0.01077  -0.01077   1.17231
   D52       -3.04848  -0.00121   0.00000  -0.00873  -0.00875  -3.05722
   D53       -3.04854   0.00031   0.00000   0.00094   0.00095  -3.04758
   D54       -0.94353  -0.00042   0.00000  -0.00983  -0.00981  -0.95334
   D55        1.10810  -0.00007   0.00000  -0.00778  -0.00780   1.10030
   D56        1.17655   0.00030   0.00000   0.00742   0.00745   1.18400
   D57       -3.00163  -0.00043   0.00000  -0.00335  -0.00332  -3.00495
   D58       -0.95000  -0.00008   0.00000  -0.00130  -0.00130  -0.95130
   D59        0.98938  -0.00137   0.00000  -0.01018  -0.01015   0.97923
   D60        3.09827  -0.00129   0.00000  -0.01739  -0.01750   3.08077
   D61       -1.12966   0.00017   0.00000  -0.00264  -0.00256  -1.13222
   D62       -1.11313  -0.00157   0.00000  -0.01160  -0.01155  -1.12468
   D63        0.99576  -0.00148   0.00000  -0.01881  -0.01890   0.97686
   D64        3.05101  -0.00003   0.00000  -0.00406  -0.00395   3.04706
   D65        3.11705  -0.00034   0.00000   0.00136   0.00139   3.11844
   D66       -1.05724  -0.00026   0.00000  -0.00584  -0.00596  -1.06320
   D67        0.99801   0.00120   0.00000   0.00891   0.00899   1.00700
   D68       -1.05758  -0.00003   0.00000  -0.00425  -0.00426  -1.06183
   D69       -3.12670   0.00139   0.00000  -0.00105  -0.00137  -3.12807
   D70        1.09198   0.00102   0.00000   0.00597   0.00604   1.09803
   D71        3.11704  -0.00118   0.00000  -0.00771  -0.00768   3.10936
   D72        1.04792   0.00024   0.00000  -0.00451  -0.00479   1.04313
   D73       -1.01659  -0.00013   0.00000   0.00251   0.00262  -1.01396
   D74        1.06069  -0.00040   0.00000  -0.00127  -0.00119   1.05950
   D75       -1.00843   0.00102   0.00000   0.00193   0.00170  -1.00673
   D76       -3.07294   0.00065   0.00000   0.00895   0.00912  -3.06382
   D77       -1.17218   0.00756   0.00000   0.00000  -0.00001  -1.17218
   D78        3.05709   0.00312   0.00000  -0.01283  -0.01273   3.04436
   D79        1.00785   0.00238   0.00000  -0.02358  -0.02379   0.98405
   D80        0.45639  -0.00699   0.00000  -0.01331  -0.01336   0.44303
   D81       -2.82379  -0.00600   0.00000  -0.09680  -0.09679  -2.92057
         Item               Value     Threshold  Converged?
 Maximum Force            0.037801     0.000450     NO 
 RMS     Force            0.007026     0.000300     NO 
 Maximum Displacement     0.307267     0.001800     NO 
 RMS     Displacement     0.061072     0.001200     NO 
 Predicted change in Energy=-1.420039D-02
 GradGradGradGradGradGradGradGradGradGradGradGradGradGradGradGradGradGrad

                          Input orientation:                          
 ---------------------------------------------------------------------
 Center     Atomic      Atomic             Coordinates (Angstroms)
 Number     Number       Type             X           Y           Z
 ---------------------------------------------------------------------
      1          8           0       -3.509724   -1.321884   -0.483762
      2          7           0       -3.091380   -0.164225   -0.336948
      3          8           0       -3.781601    0.866162   -0.374366
      4          6           0       -1.655971   -0.011963   -0.062882
      5          6           0       -1.290994    1.260159    0.265219
      6          7           0       -0.065994    1.708507    0.589564
      7          6           0        1.207556    0.995117    0.465216
      8          1           0        1.888016    1.524040    1.150664
      9          6           0        1.822459    1.044661   -0.930603
     10          6           0        3.239521    0.462789   -0.872757
     11          6           0        3.242901   -0.947624   -0.271069
     12          6           0        2.532072   -0.990348    1.081241
     13          6           0        1.100465   -0.456216    0.945213
     14          1           0        0.606018   -0.479484    1.926033
     15          7           0        0.407863   -1.363963    0.037092
     16          6           0       -0.857134   -1.218343   -0.179058
     17          1           0       -2.072673    2.014928    0.278671
     18          1           0        0.047397    2.717011    0.616036
     19          1           0        1.202063    0.461478   -1.621189
     20          1           0        1.841029    2.081173   -1.292571
     21          1           0        3.669248    0.444659   -1.880864
     22          1           0        3.872675    1.122747   -0.262887
     23          1           0        2.728300   -1.633969   -0.953439
     24          1           0        4.272542   -1.308728   -0.160318
     25          1           0        2.496684   -2.019441    1.455601
     26          1           0        3.078174   -0.387344    1.819383
     27          1           0       -1.368521   -2.036889   -0.689197
 ---------------------------------------------------------------------
                    Distance matrix (angstroms):
                    1          2          3          4          5
     1  O    0.000000
     2  N    1.239654   0.000000
     3  O    2.207585   1.240767   0.000000
     4  C    2.308557   1.469251   2.320869   0.000000
     5  C    3.485783   2.373366   2.601428   1.363508   0.000000
     6  N    4.711112   3.676753   3.929942   2.431816   1.344187
     7  C    5.340579   4.524201   5.060950   3.081052   2.520515
     8  H    6.317138   5.464212   5.907883   4.048684   3.310551
     9  C    5.850844   5.095061   5.634426   3.737495   3.342158
    10  C    6.992044   6.384399   7.050337   4.984689   4.738813
    11  C    6.766332   6.382881   7.255627   4.991768   5.071303
    12  C    6.249996   5.858068   6.740022   4.450388   4.510711
    13  C    4.903590   4.393264   5.227289   2.968426   3.021161
    14  H    4.843148   4.346404   5.133596   3.048106   3.063220
    15  N    3.952284   3.718062   4.763860   2.469273   3.134354
    16  C    2.672040   2.475470   3.596640   1.451547   2.555111
    17  H    3.712242   2.483034   2.160222   2.097281   1.086682
    18  H    5.493209   4.365962   4.366665   3.287809   2.009174
    19  H    5.164790   4.524869   5.153179   3.289502   3.226726
    20  H    6.392615   5.503062   5.825232   4.257037   3.593096
    21  H    7.523975   6.961358   7.613301   5.645486   5.465776
    22  H    7.779770   7.082362   7.659387   5.647432   5.192423
    23  H    6.263460   6.033978   6.997485   4.758763   5.100572
    24  H    7.788995   7.454424   8.345369   6.069461   6.142735
    25  H    6.350169   6.154797   7.147891   4.855955   5.149689
    26  H    7.041182   6.539338   7.310289   5.108420   4.921313
    27  H    2.266757   2.568890   3.788111   2.138977   3.433286
                    6          7          8          9         10
     6  N    0.000000
     7  C    1.465031   0.000000
     8  H    2.041327   1.101192   0.000000
     9  C    2.513534   1.526064   2.136767   0.000000
    10  C    3.823170   2.490467   2.654628   1.532966   0.000000
    11  C    4.329493   2.908434   3.156923   2.534135   1.533397
    12  C    3.778295   2.464935   2.596493   2.948276   2.535784
    13  C    2.484581   1.532395   2.140995   2.508505   2.953835
    14  H    2.650482   2.161084   2.501764   3.458774   3.956822
    15  N    3.157504   2.527460   3.430955   2.956178   3.490434
    16  C    3.127800   3.094743   4.101789   3.586952   4.482187
    17  H    2.053608   3.440161   4.085143   4.192351   5.652815
    18  H    1.015204   2.081738   2.257628   2.887852   4.181827
    19  H    2.837337   2.153575   3.046759   1.096313   2.170572
    20  H    2.705190   2.161162   2.506392   1.098054   2.179723
    21  H    4.653210   3.444855   3.678045   2.161857   1.096026
    22  H    4.072211   2.765734   2.469420   2.157621   1.099259
    23  H    4.621805   3.352214   3.886689   2.827743   2.159688
    24  H    5.337502   3.884988   3.928003   3.483488   2.170938
    25  H    4.605968   3.424949   3.608285   3.941735   3.483465
    26  H    3.973769   2.691501   2.348840   3.345128   2.827787
    27  H    4.166509   4.142693   5.164333   4.442587   5.245582
                   11         12         13         14         15
    11  C    0.000000
    12  C    1.528347   0.000000
    13  C    2.512141   1.534047   0.000000
    14  H    3.464038   2.164333   1.098648   0.000000
    15  N    2.881968   2.396267   1.458898   2.095153   0.000000
    16  C    4.109992   3.623127   2.382649   2.667983   1.291566
    17  H    6.110176   5.556931   4.076719   4.013886   4.198609
    18  H    4.942444   4.487153   3.359566   3.499390   4.137566
    19  H    2.823723   3.343629   2.727436   3.717992   2.590924
    20  H    3.490319   3.942940   3.463302   4.294372   3.961178
    21  H    2.170637   3.482310   3.923892   4.972915   4.193602
    22  H    2.164051   2.840610   3.411419   4.246123   4.275352
    23  H    1.096135   2.143053   2.764385   3.758760   2.537417
    24  H    1.096733   2.161497   3.465695   4.299291   3.870112
    25  H    2.164953   1.095641   2.157219   2.483423   2.608638
    26  H    2.170493   1.098497   2.163388   2.476170   3.355727
    27  H    4.756736   4.409572   3.356444   3.628187   2.033683
                   16         17         18         19         20
    16  C    0.000000
    17  H    3.484407   0.000000
    18  H    4.115502   2.258635   0.000000
    19  H    3.023547   4.092257   3.380216   0.000000
    20  H    4.405315   4.217849   2.695215   1.771914   0.000000
    21  H    5.113693   6.332376   4.951353   2.480870   2.523223
    22  H    5.278146   6.036260   4.236382   3.068294   2.471117
    23  H    3.691578   6.154826   5.346169   2.676974   3.834651
    24  H    5.130506   7.176430   5.887372   3.833485   4.322694
    25  H    3.816014   6.208085   5.397949   4.159043   4.979696
    26  H    4.491211   5.888626   4.502296   4.009717   4.160332
    27  H    1.091685   4.224905   5.129135   3.703829   5.255826
                   21         22         23         24         25
    21  H    0.000000
    22  H    1.766079   0.000000
    23  H    2.462965   3.063648   0.000000
    24  H    2.529547   2.466269   1.766212   0.000000
    25  H    4.310301   3.836652   2.450655   2.503993   0.000000
    26  H    3.838415   2.692110   3.060234   2.488912   1.770370
    27  H    5.740842   6.134751   4.125058   5.712401   4.420438
                   26         27
    26  H    0.000000
    27  H    5.365358   0.000000
 Symmetry turned off by external request.
 Stoichiometry    C9H13N3O2
 Framework group  C1[X(C9H13N3O2)]
 Deg. of freedom    75
 Full point group                 C1      NOp   1
 Rotational constants (GHZ):           1.6341726           0.4247426           0.3771867
 Standard basis: 6-31G(d) (6D, 7F)
   236 basis functions,   444 primitive gaussians,   236 cartesian basis functions
    52 alpha electrons       52 beta electrons
       nuclear repulsion energy       932.2325629707 Hartrees.
 NAtoms=   27 NActive=   27 NUniq=   27 SFac= 1.00D+00 NAtFMM=   60 NAOKFM=F Big=F
 Integral buffers will be    131072 words long.
 Raffenetti 1 integral format.
 Two-electron integral symmetry is turned off.
 One-electron integrals computed using PRISM.
 NBasis=   236 RedAO= T EigKep=  1.00D-03  NBF=   236
 NBsUse=   236 1.00D-06 EigRej= -1.00D+00 NBFU=   236
 Initial guess from the checkpoint file:  "/home/alexey/tmp/Gau-1247831.chk"
 B after Tr=     0.059722    0.003829    0.009772
         Rot=    0.999999   -0.000682   -0.000684    0.000643 Ang=  -0.13 deg.
 ExpMin= 1.61D-01 ExpMax= 5.48D+03 ExpMxC= 8.25D+02 IAcc=3 IRadAn=         5 AccDes= 0.00D+00
 Harris functional with IExCor=  205 and IRadAn=       5 diagonalized for initial guess.
 HarFok:  IExCor=  205 AccDes= 0.00D+00 IRadAn=         5 IDoV= 1 UseB2=F ITyADJ=14
 ICtDFT=  3500011 ScaDFX=  1.000000  1.000000  1.000000  1.000000
 FoFCou: FMM=F IPFlag=           0 FMFlag=      100000 FMFlg1=           0
         NFxFlg=           0 DoJE=T BraDBF=F KetDBF=T FulRan=T
         wScrn=  0.000000 ICntrl=       500 IOpCl=  0 I1Cent=   200000004 NGrid=           0
         NMat0=    1 NMatS0=      1 NMatT0=    0 NMatD0=    1 NMtDS0=    0 NMtDT0=    0
 Symmetry not used in FoFCou.
 Keep R1 ints in memory in canonical form, NReq=397720213.
 Requested convergence on RMS density matrix=1.00D-08 within 128 cycles.
 Requested convergence on MAX density matrix=1.00D-06.
 Requested convergence on             energy=1.00D-06.
 No special actions if energy rises.
 SCF Done:  E(RHF) =  -661.295221922     A.U. after   15 cycles
            NFock= 15  Conv=0.46D-08     -V/T= 2.0024
 ExpMin= 1.61D-01 ExpMax= 5.48D+03 ExpMxC= 8.25D+02 IAcc=3 IRadAn=         5 AccDes= 0.00D+00
 HarFok:  IExCor=  205 AccDes= 0.00D+00 IRadAn=         5 IDoV=-2 UseB2=F ITyADJ=14
 ICtDFT= 12500011 ScaDFX=  1.000000  1.000000  1.000000  1.000000
 Range of M.O.s used for correlation:    15   236
 NBasis=   236 NAE=    52 NBE=    52 NFC=    14 NFV=     0
 NROrb=    222 NOA=    38 NOB=    38 NVA=   184 NVB=   184
 Fully direct method using O(ONN) memory.
 JobTyp=1 Pass  1:  I=  15 to  52 NPSUse=  4 ParTrn=T ParDer=T DoDerP=T.
 Spin components of T(2) and E(2):
     alpha-alpha T2 =       0.9145965603D-01 E2=     -0.2725876150D+00
     alpha-beta  T2 =       0.4916430950D+00 E2=     -0.1488325529D+01
     beta-beta   T2 =       0.9145965603D-01 E2=     -0.2725876150D+00
 ANorm=    0.1294048843D+01
 E2 =    -0.2033500759D+01 EUMP2 =    -0.66332872268125D+03
          IDoAtm=111111111111111111111111111
          Differentiating once with respect to electric field.
                with respect to dipole field.
          Differentiating once with respect to nuclear coordinates.
 Keep R1 ints in memory in canonical form, NReq=397723379.
          There are     1 degrees of freedom in the 1st order CPHF.  IDoFFX=0 NUNeed=     1.
[...]
                   16         17         18         19         20
    16  C    0.000000
    17  H    3.473371   0.000000
    18  H    4.122939   2.234440   0.000000
    19  H    2.999926   4.189639   3.557312   0.000000
    20  H    4.401398   4.354070   2.954487   1.768943   0.000000
    21  H    5.097966   6.430495   5.134417   2.500104   2.521339
    22  H    5.263228   6.073692   4.344928   3.070478   2.463419
    23  H    3.674380   6.185559   5.432557   2.701924   3.842947
    24  H    5.123344   7.184236   5.945426   3.847941   4.318350
    25  H    3.813423   6.127570   5.338599   4.169024   4.985159
    26  H    4.503288   5.829488   4.451889   4.029366   4.177966
    27  H    1.090017   4.240913   5.147191   3.645806   5.220168
                   21         22         23         24         25
    21  H    0.000000
    22  H    1.758949   0.000000
    23  H    2.470579   3.063099   0.000000
    24  H    2.517521   2.461001   1.764308   0.000000
    25  H    4.311915   3.838352   2.444483   2.519110   0.000000
    26  H    3.844461   2.701028   3.060459   2.495039   1.769015
    27  H    5.683724   6.089964   4.072489   5.675464   4.410921
                   26         27
    26  H    0.000000
    27  H    5.366294   0.000000
 Symmetry turned off by external request.
 Stoichiometry    C9H13N3O2
 Framework group  C1[X(C9H13N3O2)]
 Deg. of freedom    75
 Full point group                 C1      NOp   1
 Rotational constants (GHZ):           1.6444599           0.4225039           0.3754222

 **********************************************************************

            Population analysis using the SCF Density.

 **********************************************************************

 Alpha  occ. eigenvalues --  -20.59298 -20.58984 -15.84715 -15.64205 -15.55877
 Alpha  occ. eigenvalues --  -11.35069 -11.29599 -11.29563 -11.28747 -11.27082
 Alpha  occ. eigenvalues --  -11.23747 -11.23196 -11.22594 -11.22058  -1.57146
 Alpha  occ. eigenvalues --   -1.36751  -1.31000  -1.22826  -1.14698  -1.09804
 Alpha  occ. eigenvalues --   -1.02766  -1.01277  -0.94514  -0.89690  -0.85470
 Alpha  occ. eigenvalues --   -0.82498  -0.78707  -0.77374  -0.75221  -0.72077
 Alpha  occ. eigenvalues --   -0.69848  -0.69297  -0.67738  -0.64721  -0.63915
 Alpha  occ. eigenvalues --   -0.62229  -0.60245  -0.57797  -0.56821  -0.55146
 Alpha  occ. eigenvalues --   -0.54545  -0.50559  -0.50355  -0.48786  -0.48115
 Alpha  occ. eigenvalues --   -0.47409  -0.46151  -0.45897  -0.43695  -0.41963
 Alpha  occ. eigenvalues --   -0.39268  -0.33642
 Alpha virt. eigenvalues --    0.07409   0.11325   0.17184   0.21882   0.24375
 Alpha virt. eigenvalues --    0.26052   0.26772   0.28685   0.29253   0.29415
 Alpha virt. eigenvalues --    0.30781   0.32007   0.32064   0.32834   0.33973
 Alpha virt. eigenvalues --    0.34419   0.35984   0.37532   0.38637   0.40493
 Alpha virt. eigenvalues --    0.41099   0.42014   0.44540   0.46031   0.46530
 Alpha virt. eigenvalues --    0.47371   0.49053   0.54170   0.57553   0.60263
 Alpha virt. eigenvalues --    0.63797   0.69415   0.69840   0.72995   0.74044
 Alpha virt. eigenvalues --    0.74961   0.75647   0.76491   0.78629   0.79684
 Alpha virt. eigenvalues --    0.81560   0.83559   0.85451   0.85853   0.88739
 Alpha virt. eigenvalues --    0.89096   0.91563   0.91825   0.92984   0.94585
 Alpha virt. eigenvalues --    0.95356   0.97847   1.00194   1.02016   1.02160
 Alpha virt. eigenvalues --    1.03406   1.05940   1.07308   1.08351   1.09058
 Alpha virt. eigenvalues --    1.10662   1.11101   1.12081   1.12226   1.13864
 Alpha virt. eigenvalues --    1.14107   1.15206   1.15579   1.17267   1.18344
 Alpha virt. eigenvalues --    1.18810   1.21580   1.22256   1.23283   1.24053
 Alpha virt. eigenvalues --    1.25208   1.26145   1.27942   1.28096   1.29576
 Alpha virt. eigenvalues --    1.30161   1.33329   1.35255   1.37287   1.40095
 Alpha virt. eigenvalues --    1.42559   1.48077   1.49558   1.49806   1.54787
 Alpha virt. eigenvalues --    1.57241   1.60179   1.60458   1.63525   1.65648
 Alpha virt. eigenvalues --    1.66675   1.67641   1.72447   1.75883   1.79252
 Alpha virt. eigenvalues --    1.80708   1.84319   1.87832   1.89938   1.92359
 Alpha virt. eigenvalues --    1.94262   1.95700   1.99920   2.01041   2.03277
 Alpha virt. eigenvalues --    2.04023   2.06515   2.08439   2.09504   2.12633
 Alpha virt. eigenvalues --    2.12910   2.15775   2.18609   2.20135   2.22403
 Alpha virt. eigenvalues --    2.23012   2.23932   2.25210   2.28351   2.28867
 Alpha virt. eigenvalues --    2.31389   2.33381   2.35145   2.36609   2.38027
 Alpha virt. eigenvalues --    2.39468   2.42775   2.44656   2.46341   2.46654
 Alpha virt. eigenvalues --    2.49896   2.52507   2.54203   2.55633   2.59611
 Alpha virt. eigenvalues --    2.62555   2.66092   2.66935   2.69213   2.70436
 Alpha virt. eigenvalues --    2.71348   2.72595   2.76697   2.77927   2.83652
 Alpha virt. eigenvalues --    2.88010   2.89367   2.92178   2.93565   2.95911
 Alpha virt. eigenvalues --    2.99234   3.01287   3.04042   3.06282   3.09023
 Alpha virt. eigenvalues --    3.09598   3.15723   3.21038   3.24080   3.27450
 Alpha virt. eigenvalues --    3.32975   3.36148   3.39146   3.51561   3.66632
 Alpha virt. eigenvalues --    4.12658   4.26208   4.34028   4.38405   4.46546
 Alpha virt. eigenvalues --    4.55504   4.61566   4.62153   4.73662   4.79360
 Alpha virt. eigenvalues --    4.99588   5.00772   5.07383   5.09869
          Condensed to atoms (all electrons):
               1          2          3          4          5          6
     1  O    8.316666   0.304948  -0.082459  -0.083257   0.003982  -0.000018
     2  N    0.304948   5.727190   0.300130   0.260056  -0.053503   0.001068
     3  O   -0.082459   0.300130   8.350319  -0.091986   0.002932   0.000734
     4  C   -0.083257   0.260056  -0.091986   5.229135   0.555459  -0.052408
     5  C    0.003982  -0.053503   0.002932   0.555459   4.721761   0.325087
     6  N   -0.000018   0.001068   0.000734  -0.052408   0.325087   7.186317
     7  C    0.000003  -0.000166   0.000000   0.005036  -0.031317   0.170367
     8  H   -0.000000   0.000002  -0.000000  -0.000190   0.002853  -0.048468
     9  C   -0.000000  -0.000007   0.000000   0.000614   0.000960  -0.062563
    10  C   -0.000000   0.000000   0.000000  -0.000029  -0.000062   0.003734
    11  C   -0.000000  -0.000000  -0.000000  -0.000036   0.000024  -0.000195
    12  C   -0.000000   0.000002  -0.000000  -0.000207  -0.000171   0.004108
    13  C   -0.000017  -0.000002  -0.000001  -0.009715  -0.001226  -0.051855
    14  H   -0.000002  -0.000048   0.000001   0.002332   0.004882  -0.006286
    15  N    0.000535   0.002397  -0.000018  -0.061474  -0.008576   0.002074
    16  C    0.001412  -0.027717   0.002695   0.332206  -0.052940   0.000768
    17  H    0.000246  -0.007158   0.017657  -0.023374   0.374265  -0.032901
    18  H    0.000001  -0.000053   0.000011   0.001541  -0.030909   0.338504
    19  H    0.000000  -0.000004  -0.000000  -0.001133   0.001297  -0.000875
    20  H    0.000000  -0.000000   0.000000  -0.000116   0.000144  -0.000005
    21  H   -0.000000  -0.000000  -0.000000   0.000001   0.000001  -0.000079
    22  H   -0.000000   0.000000  -0.000000  -0.000000  -0.000003  -0.000113
    23  H    0.000000  -0.000000   0.000000   0.000041   0.000001  -0.000032
    24  H    0.000000   0.000000   0.000000   0.000000  -0.000000   0.000006
    25  H    0.000000  -0.000000   0.000000   0.000032  -0.000002  -0.000094
    26  H    0.000000  -0.000000   0.000000   0.000002   0.000002  -0.000066
    27  H    0.005695  -0.000900   0.000000  -0.064675   0.002653  -0.000006
               7          8          9         10         11         12
     1  O    0.000003  -0.000000  -0.000000  -0.000000  -0.000000  -0.000000
     2  N   -0.000166   0.000002  -0.000007   0.000000  -0.000000   0.000002
     3  O    0.000000  -0.000000   0.000000   0.000000  -0.000000  -0.000000
     4  C    0.005036  -0.000190   0.000614  -0.000029  -0.000036  -0.000207
     5  C   -0.031317   0.002853   0.000960  -0.000062   0.000024  -0.000171
     6  N    0.170367  -0.048468  -0.062563   0.003734  -0.000195   0.004108
     7  C    5.034860   0.416627   0.351519  -0.054662  -0.009209  -0.062431
     8  H    0.416627   0.532971  -0.051844   0.000224  -0.000199  -0.002375
     9  C    0.351519  -0.051844   5.152251   0.326534  -0.050892  -0.004932
    10  C   -0.054662   0.000224   0.326534   5.118322   0.336932  -0.061463
    11  C   -0.009209  -0.000199  -0.050892   0.336932   5.121664   0.335999
    12  C   -0.062431  -0.002375  -0.004932  -0.061463   0.335999   5.123158
    13  C    0.329051  -0.036508  -0.062139  -0.000068  -0.050261   0.372178
    14  H   -0.047660  -0.000653   0.004371  -0.000395   0.004227  -0.036771
    15  N   -0.060838   0.003776  -0.013103   0.001474  -0.013664  -0.084522
    16  C   -0.000011  -0.000177  -0.000358  -0.000094   0.000067   0.002368
    17  H    0.001541  -0.000072  -0.000033   0.000001   0.000000   0.000001
    18  H   -0.021386  -0.004715   0.001624  -0.000083   0.000003  -0.000117
    19  H   -0.036755   0.004234   0.391986  -0.032755  -0.002116   0.000664
    20  H   -0.042182  -0.001988   0.399211  -0.034895   0.003901  -0.000433
    21  H    0.004628  -0.000069  -0.036567   0.402501  -0.034877   0.004369
    22  H   -0.004951   0.003533  -0.046917   0.397599  -0.045238  -0.001043
    23  H    0.000664   0.000036  -0.002029  -0.039029   0.399168  -0.038108
    24  H   -0.000132  -0.000103   0.004391  -0.038364   0.402413  -0.038474
    25  H    0.005235  -0.000031  -0.000431   0.004202  -0.033223   0.397781
    26  H   -0.003747   0.001657   0.000960  -0.002259  -0.041592   0.396049
    27  H   -0.000393   0.000007  -0.000035   0.000004   0.000016  -0.000038
              13         14         15         16         17         18
     1  O   -0.000017  -0.000002   0.000535   0.001412   0.000246   0.000001
     2  N   -0.000002  -0.000048   0.002397  -0.027717  -0.007158  -0.000053
     3  O   -0.000001   0.000001  -0.000018   0.002695   0.017657   0.000011
     4  C   -0.009715   0.002332  -0.061474   0.332206  -0.023374   0.001541
     5  C   -0.001226   0.004882  -0.008576  -0.052940   0.374265  -0.030909
     6  N   -0.051855  -0.006286   0.002074   0.000768  -0.032901   0.338504
     7  C    0.329051  -0.047660  -0.060838  -0.000011   0.001541  -0.021386
     8  H   -0.036508  -0.000653   0.003776  -0.000177  -0.000072  -0.004715
     9  C   -0.062139   0.004371  -0.013103  -0.000358  -0.000033   0.001624
    10  C   -0.000068  -0.000395   0.001474  -0.000094   0.000001  -0.000083
    11  C   -0.050261   0.004227  -0.013664   0.000067   0.000000   0.000003
    12  C    0.372178  -0.036771  -0.084522   0.002368   0.000001  -0.000117
    13  C    5.040495   0.406692   0.248720  -0.066663  -0.000046   0.002922
    14  H    0.406692   0.526691  -0.035954  -0.006847   0.000017  -0.000088
    15  N    0.248720  -0.035954   6.983498   0.576278  -0.000082  -0.000126
    16  C   -0.066663  -0.006847   0.576278   4.704821   0.001643  -0.000156
    17  H   -0.000046   0.000017  -0.000082   0.001643   0.374493  -0.002739
    18  H    0.002922  -0.000088  -0.000126  -0.000156  -0.002739   0.309931
    19  H   -0.007768   0.000106   0.007476   0.002026   0.000007  -0.000140
    20  H    0.004408  -0.000069   0.000138  -0.000041  -0.000004   0.000589
    21  H   -0.000444   0.000010  -0.000045   0.000004  -0.000000   0.000002
    22  H    0.000021  -0.000052   0.000027  -0.000001   0.000000   0.000000
    23  H   -0.007838   0.000001   0.008819   0.000171   0.000000   0.000000
    24  H    0.004705  -0.000060   0.000112   0.000006   0.000000  -0.000000
    25  H   -0.035421  -0.002882   0.000987  -0.000044  -0.000000   0.000003
    26  H   -0.047645  -0.001037   0.005009  -0.000031   0.000000   0.000000
    27  H    0.004970  -0.000146  -0.041933   0.405756  -0.000079   0.000001
              19         20         21         22         23         24
     1  O    0.000000   0.000000  -0.000000  -0.000000   0.000000   0.000000
     2  N   -0.000004  -0.000000  -0.000000   0.000000  -0.000000   0.000000
     3  O   -0.000000   0.000000  -0.000000  -0.000000   0.000000   0.000000
     4  C   -0.001133  -0.000116   0.000001  -0.000000   0.000041   0.000000
     5  C    0.001297   0.000144   0.000001  -0.000003   0.000001  -0.000000
     6  N   -0.000875  -0.000005  -0.000079  -0.000113  -0.000032   0.000006
     7  C   -0.036755  -0.042182   0.004628  -0.004951   0.000664  -0.000132
     8  H    0.004234  -0.001988  -0.000069   0.003533   0.000036  -0.000103
     9  C    0.391986   0.399211  -0.036567  -0.046917  -0.002029   0.004391
    10  C   -0.032755  -0.034895   0.402501   0.397599  -0.039029  -0.038364
    11  C   -0.002116   0.003901  -0.034877  -0.045238   0.399168   0.402413
    12  C    0.000664  -0.000433   0.004369  -0.001043  -0.038108  -0.038474
    13  C   -0.007768   0.004408  -0.000444   0.000021  -0.007838   0.004705
    14  H    0.000106  -0.000069   0.000010  -0.000052   0.000001  -0.000060
    15  N    0.007476   0.000138  -0.000045   0.000027   0.008819   0.000112
    16  C    0.002026  -0.000041   0.000004  -0.000001   0.000171   0.000006
    17  H    0.000007  -0.000004  -0.000000   0.000000   0.000000   0.000000
    18  H   -0.000140   0.000589   0.000002   0.000000   0.000000  -0.000000
    19  H    0.504649  -0.024547  -0.002744   0.003967   0.001544  -0.000070
    20  H   -0.024547   0.537808  -0.002714  -0.002948  -0.000045  -0.000082
    21  H   -0.002744  -0.002714   0.523838  -0.027385  -0.002895  -0.002254
    22  H    0.003967  -0.002948  -0.027385   0.571302   0.004129  -0.003618
    23  H    0.001544  -0.000045  -0.002895   0.004129   0.498923  -0.025413
    24  H   -0.000070  -0.000082  -0.002254  -0.003618  -0.025413   0.537527
    25  H   -0.000029   0.000013  -0.000087  -0.000081  -0.002256  -0.002324
    26  H    0.000021  -0.000030  -0.000080   0.002387   0.004082  -0.002996
    27  H    0.000057   0.000000  -0.000000   0.000000  -0.000036  -0.000000
              25         26         27
     1  O    0.000000   0.000000   0.005695
     2  N   -0.000000  -0.000000  -0.000900
     3  O    0.000000   0.000000   0.000000
     4  C    0.000032   0.000002  -0.064675
     5  C   -0.000002   0.000002   0.002653
     6  N   -0.000094  -0.000066  -0.000006
     7  C    0.005235  -0.003747  -0.000393
     8  H   -0.000031   0.001657   0.000007
     9  C   -0.000431   0.000960  -0.000035
    10  C    0.004202  -0.002259   0.000004
    11  C   -0.033223  -0.041592   0.000016
    12  C    0.397781   0.396049  -0.000038
    13  C   -0.035421  -0.047645   0.004970
    14  H   -0.002882  -0.001037  -0.000146
    15  N    0.000987   0.005009  -0.041933
    16  C   -0.000044  -0.000031   0.405756
    17  H   -0.000000   0.000000  -0.000079
    18  H    0.000003   0.000000   0.000001
    19  H   -0.000029   0.000021   0.000057
    20  H    0.000013  -0.000030   0.000000
    21  H   -0.000087  -0.000080  -0.000000
    22  H   -0.000081   0.002387   0.000000
    23  H   -0.002256   0.004082  -0.000036
    24  H   -0.002324  -0.002996  -0.000000
    25  H    0.505290  -0.023993  -0.000018
    26  H   -0.023993   0.564546   0.000001
    27  H   -0.000018   0.000001   0.441173
 Mulliken charges:
               1
     1  O   -0.467736
     2  N    0.493765
     3  O   -0.500014
     4  C    0.002145
     5  C    0.182405
     6  N   -0.776803
     7  C    0.056311
     8  H    0.181471
     9  C   -0.302570
    10  C   -0.327369
    11  C   -0.322912
    12  C   -0.305592
    13  C   -0.036545
    14  H    0.189619
    15  N   -0.520983
    16  C    0.124859
    17  H    0.296615
    18  H    0.405379
    19  H    0.190904
    20  H    0.163884
    21  H    0.174886
    22  H    0.149386
    23  H    0.200102
    24  H    0.164732
    25  H    0.187375
    26  H    0.148761
    27  H    0.247928
 Sum of Mulliken charges =  -0.00000
 Mulliken charges with hydrogens summed into heavy atoms:
               1
     1  O   -0.467736
     2  N    0.493765
     3  O   -0.500014
     4  C    0.002145
     5  C    0.479020
     6  N   -0.371425
     7  C    0.237782
     9  C    0.052218
    10  C   -0.003097
    11  C    0.041921
    12  C    0.030544
    13  C    0.153075
    15  N   -0.520983
    16  C    0.372788
 Electronic spatial extent (au):  <R**2>=           2991.2655
 Charge=              0.0000 electrons
 Dipole moment (field-independent basis, Debye):
    X=              5.3174    Y=              4.6409    Z=              1.9671  Tot=              7.3268
 Quadrupole moment (field-independent basis, Debye-Ang):
   XX=           -105.4594   YY=            -79.6172   ZZ=            -81.3972
   XY=             -0.9854   XZ=             -2.6049   YZ=              3.2147
 Traceless Quadrupole moment (field-independent basis, Debye-Ang):
   XX=            -16.6347   YY=              9.2074   ZZ=              7.4274
   XY=             -0.9854   XZ=             -2.6049   YZ=              3.2147
 Octapole moment (field-independent basis, Debye-Ang**2):
  XXX=             86.9569  YYY=             32.4498  ZZZ=              3.7720  XYY=             -5.0716
  XXY=              7.1454  XXZ=             15.8944  XZZ=             -9.2672  YZZ=              0.2218
  YYZ=             11.2753  XYZ=             -1.9630
 Hexadecapole moment (field-independent basis, Debye-Ang**3):
 XXXX=          -3322.7492 YYYY=           -609.9911 ZZZZ=           -317.3350 XXXY=             -3.5227
 XXXZ=            -89.9896 YYYX=              6.9279 YYYZ=             34.3547 ZZZX=            -36.9149
 ZZZY=             10.8064 XXYY=           -623.6550 XXZZ=           -523.5519 YYZZ=           -158.5322
 XXYZ=              6.9030 YYXZ=            -13.6878 ZZXY=              8.4201
 N-N= 9.313678622362D+02 E-N=-3.409457404571D+03  KE= 6.596233801551D+02
 Unable to Open any file for archive entry.
 1\1\GINC-LOTUS\FOpt\RMP2-FC\6-31G(d)\C9H13N3O2\ALEXEY\01-Jul-2023\0\\#
 MP2/6-31G* SCF=Tight Opt=(ModRedun, MaxCycle=20 ) NoSymm\\MolName:\\0,
 1\O,-3.5200230263,-1.3421613954,-0.4130157424\N,-3.0928243875,-0.17710
 22098,-0.298669216\O,-3.8229686876,0.8319949956,-0.3532908176\C,-1.658
 4892107,-0.0065029851,-0.1062399859\C,-1.2875995857,1.2514256734,0.300
 5226456\N,-0.0521356848,1.7339197322,0.5013504755\C,1.2150762937,1.023
 0137441,0.4171286052\H,1.887698315,1.5542385168,1.1057395864\C,1.85122
 46898,1.0380087522,-0.9714592082\C,3.2578681427,0.4358654177,-0.875634
 5894\C,3.2444791106,-0.9608098566,-0.2487776821\C,2.5133727652,-0.9740
 186958,1.0952339645\C,1.0901273842,-0.4298523214,0.9186342019\H,0.5535
 336647,-0.4173996382,1.8786354829\N,0.414978155,-1.3437648369,0.002156
 2169\C,-0.8482659443,-1.1969365985,-0.2517010032\H,-2.0861500895,1.979
 7511801,0.4120806855\H,-0.0087320057,2.6951307203,0.818636879\H,1.2237
 992296,0.4565293771,-1.6560351532\H,1.8932843427,2.06555825,-1.3527600
 561\H,3.7139541836,0.4003053158,-1.8716455946\H,3.8853808307,1.1039039
 032,-0.2686911079\H,2.7350211647,-1.6590932716,-0.9206826495\H,4.27191
 63276,-1.3221478036,-0.1224326674\H,2.4520285026,-1.9955700756,1.48393
 70863\H,3.0549274303,-0.3703025656,1.8366865923\H,-1.3204919102,-2.010
 9733243,-0.8016869484\\Version=ES64L-G16RevC.02\HF=-661.2960856\MP2=-6
 63.3315584\RMSD=8.590e-09\RMSF=3.300e-03\Dipole=1.9635652,1.6497129,0.
 6846949\PG=C01 [X(C9H13N3O2)]\\@
 The archive entry for this job was punched.


 NEVER LISTEN TO CRITICISM
 OR YOU'LL BE DOIN' EVERYBODY ELSE'S THING BUT BUT YOUR OWN.

                                               -- ANDY CAPP
 Job cpu time:       0 days  1 hours 43 minutes  9.3 seconds.
 Elapsed time:       0 days  0 hours 31 minutes  8.2 seconds.
 File lengths (MBytes):  RWF=     36 Int=      0 D2E=      0 Chk=      7 Scr=      1
 Normal termination of Gaussian 16 at Sat Jul  1 02:06:26 2023.
