 Entering Gaussian System, Link 0=g09
 Initial command:
 /home/ana/programs/g09/l1.exe /home/ana/programs/g09/scratch/Gau-697199.inp -scrdir=/home/ana/programs/g09/scratch/
 Entering Link 1 = /home/ana/programs/g09/l1.exe PID=    697201.
  
 Copyright (c) 1988,1990,1992,1993,1995,1998,2003,2009, Gaussian, Inc.
                  All Rights Reserved.
  
 This is part of the Gaussian(R) 09 program.  It is based on
 the Gaussian(R) 03 system (copyright 2003, Gaussian, Inc.),
 the Gaussian(R) 98 system (copyright 1998, Gaussian, Inc.),
 the Gaussian(R) 94 system (copyright 1995, Gaussian, Inc.),
 the Gaussian 92(TM) system (copyright 1992, Gaussian, Inc.),
 the Gaussian 90(TM) system (copyright 1990, Gaussian, Inc.),
 the Gaussian 88(TM) system (copyright 1988, Gaussian, Inc.),
 the Gaussian 86(TM) system (copyright 1986, Carnegie Mellon
 University), and the Gaussian 82(TM) system (copyright 1983,
 Carnegie Mellon University). Gaussian is a federally registered
 trademark of Gaussian, Inc.
  
 This software contains proprietary and confidential information,
 including trade secrets, belonging to Gaussian, Inc.
  
 This software is provided under written license and may be
 used, copied, transmitted, or stored only in accord with that
 written license.
  
 The following legend is applicable only to US Government
 contracts under FAR:
  
                    RESTRICTED RIGHTS LEGEND
  
 Use, reproduction and disclosure by the US Government is
 subject to restrictions as set forth in subparagraphs (a)
 and (c) of the Commercial Computer Software - Restricted
 Rights clause in FAR 52.227-19.
  
 Gaussian, Inc.
 340 Quinnipiac St., Bldg. 40, Wallingford CT 06492
  
  
 ---------------------------------------------------------------
 Warning -- This program may not be used in any manner that
 competes with the business of Gaussian, Inc. or will provide
 assistance to any competitor of Gaussian, Inc.  The licensee
 of this program is prohibited from giving any competitor of
 Gaussian, Inc. access to this program.  By using this program,
 the user acknowledges that Gaussian, Inc. is engaged in the
 business of creating and licensing software in the field of
 computational chemistry and represents and warrants to the
 licensee that it is not a competitor of Gaussian, Inc. and that
 it will not use this program in any manner prohibited above.
 ---------------------------------------------------------------
  

 Cite this work as:
 Gaussian 09, Revision A.01,
 M. J. Frisch, G. W. Trucks, H. B. Schlegel, G. E. Scuseria, 
 M. A. Robb, J. R. Cheeseman, G. Scalmani, V. Barone, B. Mennucci, 
 G. A. Petersson, H. Nakatsuji, M. Caricato, X. Li, H. P. Hratchian, 
 A. F. Izmaylov, J. Bloino, G. Zheng, J. L. Sonnenberg, M. Hada, 
 M. Ehara, K. Toyota, R. Fukuda, J. Hasegawa, M. Ishida, T. Nakajima, 
 Y. Honda, O. Kitao, H. Nakai, T. Vreven, J. A. Montgomery, Jr., 
 J. E. Peralta, F. Ogliaro, M. Bearpark, J. J. Heyd, E. Brothers, 
 K. N. Kudin, V. N. Staroverov, R. Kobayashi, J. Normand, 
 K. Raghavachari, A. Rendell, J. C. Burant, S. S. Iyengar, J. Tomasi, 
 M. Cossi, N. Rega, J. M. Millam, M. Klene, J. E. Knox, J. B. Cross, 
 V. Bakken, C. Adamo, J. Jaramillo, R. Gomperts, R. E. Stratmann, 
 O. Yazyev, A. J. Austin, R. Cammi, C. Pomelli, J. W. Ochterski, 
 R. L. Martin, K. Morokuma, V. G. Zakrzewski, G. A. Voth, 
 P. Salvador, J. J. Dannenberg, S. Dapprich, A. D. Daniels, 
 O. Farkas, J. B. Foresman, J. V. Ortiz, J. Cioslowski, 
 and D. J. Fox, Gaussian, Inc., Wallingford CT, 2009.
 
 ******************************************
 Gaussian 09:  EM64L-G09RevA.01  8-May-2009
                24-Sep-2021 
 ******************************************
 %NPROC=4
 Will use up to    4 processors via shared memory.
 %NoSave
 ------------------------------
 #HF/6-31G* Opt=Z-matrix NoSymm
 ------------------------------
 1/10=7,18=40,38=1/1,3;
 2/12=2,15=1,17=6,18=5,29=3,40=1/2;
 3/5=1,6=6,7=1,11=9,16=1,25=1,30=1,71=1/1,2,3;
 4//1;
 5/5=2,38=5/2;
 6/7=2,8=2,9=2,10=2,28=1/1;
 7/29=1,30=1/1,2,3,16;
 1/10=7,18=40/3(2);
 2/15=1,29=3/2;
 99//99;
 2/15=1,29=3/2;
 3/5=1,6=6,7=1,11=9,16=1,25=1,30=1,71=1/1,2,3;
 4/5=5,16=3/1;
 5/5=2,38=5/2;
 7/30=1/1,2,3,16;
 1/18=40/3(-5);
 2/15=1,29=3/2;
 6/7=2,8=2,9=2,10=2,19=2,28=1/1;
 99/9=1/99;
 ------------------------------
 water interaction with atom F1
 ------------------------------
 Symbolic Z-matrix:
 Charge =  0 Multiplicity = 1
 9                    -1   -1.9693    2.05368   0.00007 
 6                    -1   -1.22225   0.94423   0.00003 
 6                    -1    0.14003   1.0574   -0.00002 
 6                    -1    0.92795  -0.12364  -0.00008 
 6                    -1    2.41466  -0.01865  -0.00001 
 9                    -1    3.00708  -1.23461  -0.00056 
 9                    -1    2.85829   0.65448  -1.08602 
 9                    -1    2.85827   0.6535    1.08665 
 6                    -1    0.30654  -1.34149  -0.00009 
 7                    -1   -1.05417  -1.38997  -0.00006 
 6                    -1   -1.9305   -0.3121    0. 
 16                   -1   -3.57098  -0.50661   0.00003 
 1                    -1    0.59686   2.0431   -0.00002 
 1                    -1    0.83176  -2.28899  -0.00015 
 1                    -1   -1.52148  -2.29639  -0.00009 
 X                    1    RDUM     2    ADUM     3    DDUM     0
 X                    16   RDUM     1    ADUM     2    DDUM     0
 H1                   1    RX       16   ADUM     17   DH1      0
 X                    18   RDUM     1    ADUM     16   DDUM     0
 OH2                  18   ROH      19   ADUM     1    DOH2     0
 H2                   20   ROH      18   AHOH     16   DH2      0
       Variables:
  RX                    2.2                      
       Constants:
  RDUM                  1.                       
  ROH                   0.9572                   
  ADUM                 90.                       
  AHOH                104.52                     
  DDUM                  0.                       
  DH1                 180.                       
  DOH2                180.                       
  DH2                   0.                       
 

 GradGradGradGradGradGradGradGradGradGradGradGradGradGradGradGradGradGrad
 Berny optimization.
 Initialization pass.
                       ----------------------------
                       !    Initial Parameters    !
                       ! (Angstroms and Degrees)  !
 ----------------------                            ----------------------
 !      Name          Value   Derivative information (Atomic Units)     !
 ------------------------------------------------------------------------
 !       RX          2.2      estimate D2E/DX2                          !
 !      RDUM         1.0      Frozen                                    !
 !       ROH         0.9572   Frozen                                    !
 !      ADUM        90.0      Frozen                                    !
 !      AHOH       104.52     Frozen                                    !
 !      DDUM         0.0      Frozen                                    !
 !       DH1       180.0      Frozen                                    !
 !      DOH2       180.0      Frozen                                    !
 !       DH2         0.0      Frozen                                    !
 ------------------------------------------------------------------------
 Trust Radius=3.00D-01 FncErr=1.00D-07 GrdErr=1.00D-07
 Number of steps in this run=  20 maximum allowed number of steps= 100.
 GradGradGradGradGradGradGradGradGradGradGradGradGradGradGradGradGradGrad

 ---------------------------------------------------------------------------------------------------
                            Z-MATRIX (ANGSTROMS AND DEGREES)
   CD    Cent   Atom    N1       Length/X        N2       Alpha/Y        N3        Beta/Z          J
 ---------------------------------------------------------------------------------------------------
      1      1  F       -1  -1.969300          2.053680          0.000070
      2      2  C       -1  -1.222250          0.944230          0.000030
      3      3  C       -1   0.140030          1.057400         -0.000020
      4      4  C       -1   0.927950         -0.123640         -0.000080
      5      5  C       -1   2.414660         -0.018650         -0.000010
      6      6  F       -1   3.007080         -1.234610         -0.000560
      7      7  F       -1   2.858290          0.654480         -1.086020
      8      8  F       -1   2.858270          0.653500          1.086650
      9      9  C       -1   0.306540         -1.341490         -0.000090
     10     10  N       -1  -1.054170         -1.389970         -0.000060
     11     11  C       -1  -1.930500         -0.312100          0.000000
     12     12  S       -1  -3.570980         -0.506610          0.000030
     13     13  H       -1   0.596860          2.043100         -0.000020
     14     14  H       -1   0.831760         -2.288990         -0.000150
     15     15  H       -1  -1.521480         -2.296390         -0.000090
     16         X        1   1.000000(    15)      2   90.000(    34)      3    0.000(    52)      0
     17         X       16   1.000000(    16)      1   90.000(    35)      2    0.000(    53)      0
     18     16  H        1   2.200000(    17)     16   90.000(    36)     17  180.000(    54)      0
     19         X       18   1.000000(    18)      1   90.000(    37)     16    0.000(    55)      0
     20     17  O       18   0.957200(    19)     19   90.000(    38)      1  180.000(    56)      0
     21     18  H       20   0.957200(    20)     18  104.520(    39)     16    0.000(    57)      0
 ---------------------------------------------------------------------------------------------------
                         Z-Matrix orientation:                         
 ---------------------------------------------------------------------
 Center     Atomic      Atomic             Coordinates (Angstroms)
 Number     Number       Type             X           Y           Z
 ---------------------------------------------------------------------
      1          9           0       -1.969300    2.053680    0.000070
      2          6           0       -1.222250    0.944230    0.000030
      3          6           0        0.140030    1.057400   -0.000020
      4          6           0        0.927950   -0.123640   -0.000080
      5          6           0        2.414660   -0.018650   -0.000010
      6          9           0        3.007080   -1.234610   -0.000560
      7          9           0        2.858290    0.654480   -1.086020
      8          9           0        2.858270    0.653500    1.086650
      9          6           0        0.306540   -1.341490   -0.000090
     10          7           0       -1.054170   -1.389970   -0.000060
     11          6           0       -1.930500   -0.312100    0.000000
     12         16           0       -3.570980   -0.506610    0.000030
     13          1           0        0.596860    2.043100   -0.000020
     14          1           0        0.831760   -2.288990   -0.000150
     15          1           0       -1.521480   -2.296390   -0.000090
     16         -1           0       -1.139818    2.612213    0.000045
     17         -1           0       -0.581285    1.782731    0.000015
     18          1           0       -3.198073    3.878541    0.000136
     19         -1           0       -2.368591    4.437074    0.000111
     20          8           0       -3.732701    4.672521    0.000164
     21          1           0       -3.098121    5.389138    0.000148
 ---------------------------------------------------------------------
                    Distance matrix (angstroms):
                    1          2          3          4          5
     1  F    0.000000
     2  C    1.337521   0.000000
     3  C    2.332777   1.366973   0.000000
     4  C    3.624194   2.400772   1.419744   0.000000
     5  C    4.849088   3.762214   2.516312   1.490413   0.000000
     6  F    5.964663   4.757581   3.670597   2.357337   1.352598
     7  F    5.142274   4.232525   2.954772   2.347541   1.352527
     8  F    5.142625   4.232719   2.955134   2.347566   1.352555
     9  C    4.087374   2.749857   2.404662   1.367227   2.488790
    10  N    3.563171   2.340244   2.723184   2.352104   3.730054
    11  C    2.366098   1.442215   2.482463   2.864656   4.355058
    12  S    3.020011   2.760701   4.027123   4.515201   6.005497
    13  H    2.566182   2.125247   1.086415   2.191890   2.748674
    14  H    5.167661   3.830492   3.417136   2.167485   2.767673
    15  H    4.373060   3.254406   3.742796   3.274225   4.547669
    16  X    1.000000   1.670019   2.013816   3.429367   4.422189
    17  X    1.414214   1.055424   1.022937   2.431469   3.495806
    18  H    2.200000   3.537521   4.370557   5.748175   6.833072
    19  X    2.416609   3.676147   4.208964   5.627370   6.537046
    20  O    3.157200   4.494721   5.297844   6.687662   7.732861
    21  H    3.521295   4.824531   5.408288   6.826417   7.722366
                    6          7          8          9         10
     6  F    0.000000
     7  F    2.183809   0.000000
     8  F    2.183834   2.172670   0.000000
     9  C    2.702654   3.416807   3.416477   0.000000
    10  N    4.064221   4.546034   4.545756   1.361573   0.000000
    11  C    5.023019   5.004620   5.004549   2.462517   1.389157
    12  S    6.618222   6.622926   6.622828   3.966382   2.667332
    13  H    4.068482   2.867355   2.868068   3.397019   3.809445
    14  H    2.417382   3.734964   3.734451   1.083334   2.089251
    15  H    4.651369   5.391592   5.391203   2.062399   1.019792
    16  X    5.656396   4.582262   4.582791   4.209955   4.003100
    17  X    4.688359   3.779298   3.779745   3.247921   3.207749
    18  H    8.040413   6.946498   6.946992   6.287371   5.688016
    19  X    7.814463   6.542781   6.543399   6.367741   5.973453
    20  O    8.962078   7.795230   7.795760   7.244570   6.627845
    21  H    9.008192   7.686064   7.686700   7.542750   7.080540
                   11         12         13         14         15
    11  C    0.000000
    12  S    1.651971   0.000000
    13  H    3.454637   4.885889   0.000000
    14  H    3.396789   4.749842   4.338454   0.000000
    15  H    2.026007   2.720986   4.828927   2.353252   0.000000
    16  X    3.029321   3.954442   1.827550   5.282889   4.923419
    17  X    2.491726   3.765549   1.206572   4.309943   4.186072
    18  H    4.378152   4.400978   4.215490   7.367360   6.398495
    19  X    4.769337   5.087804   3.811169   7.448636   6.786541
    20  O    5.300413   5.181655   5.065467   8.324478   7.311308
    21  H    5.819575   5.914680   4.984863   8.625405   7.845581
                   16         17         18         19         20
    16  X    0.000000
    17  X    1.000000   0.000000
    18  H    2.416609   3.352611   0.000000
    19  X    2.200000   3.200000   1.000000   0.000000
    20  O    3.311784   4.275782   0.957200   1.384280   0.000000
    21  H    3.397979   4.397799   1.513901   1.199434   0.957200
                   21
    21  H    0.000000
 Symmetry turned off by external request.
 Stoichiometry    C6H5F4NOS
 Framework group  C1[X(C6H5F4NOS)]
 Deg. of freedom    48
 Full point group                 C1      NOp   1
 Rotational constants (GHZ):      0.9584710      0.3379694      0.2614570
 Standard basis: 6-31G(d) (6D, 7F)
 Integral buffers will be    131072 words long.
 Raffenetti 1 integral format.
 Two-electron integral symmetry is turned off.
   209 basis functions,   408 primitive gaussians,   209 cartesian basis functions
    54 alpha electrons       54 beta electrons
       nuclear repulsion energy       903.5335348433 Hartrees.
 NAtoms=   18 NActive=   18 NUniq=   18 SFac= 7.50D-01 NAtFMM=   80 NAOKFM=F Big=F
 One-electron integrals computed using PRISM.
 NBasis=   209 RedAO= T  NBF=   209
 NBsUse=   209 1.00D-06 NBFU=   209
 Harris functional with IExCor=  205 diagonalized for initial guess.
 ExpMin= 1.17D-01 ExpMax= 2.19D+04 ExpMxC= 3.30D+03 IAcc=1 IRadAn=         1 AccDes= 0.00D+00
 HarFok:  IExCor=  205 AccDes= 0.00D+00 IRadAn=         1 IDoV= 1
 ScaDFX=  1.000000  1.000000  1.000000  1.000000
 FoFCou: FMM=F IPFlag=           0 FMFlag=      100000 FMFlg1=           0
         NFxFlg=           0 DoJE=T BraDBF=F KetDBF=T FulRan=T
         Omega=  0.000000  0.000000  1.000000  0.000000  0.000000 ICntrl=     500 IOpCl=  0
         NMat0=    1 NMatS0=    1 NMatT0=    0 NMatD0=    1 NMtDS0=    0 NMtDT0=    0
         I1Cent=           4 NGrid=           0.
 Symmetry not used in FoFCou.
 Requested convergence on RMS density matrix=1.00D-08 within 128 cycles.
 Requested convergence on MAX density matrix=1.00D-06.
 Requested convergence on             energy=1.00D-06.
 No special actions if energy rises.
 Integral accuracy reduced to 1.0D-05 until final iterations.
 Initial convergence to 1.0D-05 achieved.  Increase integral accuracy.
 SCF Done:  E(RHF) =  -1154.67450854     A.U. after   15 cycles
             Convg  =    0.6580D-08             -V/T =  2.0018

 **********************************************************************

            Population analysis using the SCF density.

 **********************************************************************

 Alpha  occ. eigenvalues --  -91.90872 -26.37103 -26.36177 -26.36175 -26.35024
 Alpha  occ. eigenvalues --  -20.54165 -15.69116 -11.54487 -11.38309 -11.37926
 Alpha  occ. eigenvalues --  -11.36617 -11.31931 -11.30737  -8.91957  -6.60283
 Alpha  occ. eigenvalues --   -6.60007  -6.59880  -1.74356  -1.66295  -1.65355
 Alpha  occ. eigenvalues --   -1.64675  -1.35976  -1.32394  -1.17619  -1.12648
 Alpha  occ. eigenvalues --   -1.03421  -0.97581  -0.93180  -0.88738  -0.85551
 Alpha  occ. eigenvalues --   -0.84020  -0.83596  -0.77643  -0.76774  -0.74683
 Alpha  occ. eigenvalues --   -0.72930  -0.72415  -0.71985  -0.70872  -0.68731
 Alpha  occ. eigenvalues --   -0.67798  -0.67780  -0.66352  -0.65030  -0.63017
 Alpha  occ. eigenvalues --   -0.61326  -0.59868  -0.55301  -0.52995  -0.48007
 Alpha  occ. eigenvalues --   -0.47058  -0.43876  -0.34497  -0.31423
 Alpha virt. eigenvalues --    0.04002   0.08269   0.17307   0.22816   0.23911
 Alpha virt. eigenvalues --    0.24885   0.26000   0.26191   0.28731   0.32199
 Alpha virt. eigenvalues --    0.34786   0.36573   0.40108   0.40365   0.42233
 Alpha virt. eigenvalues --    0.43156   0.46246   0.49109   0.54225   0.55096
 Alpha virt. eigenvalues --    0.56375   0.59323   0.60934   0.63912   0.66437
 Alpha virt. eigenvalues --    0.67690   0.71459   0.72639   0.73259   0.74827
 Alpha virt. eigenvalues --    0.76727   0.77378   0.82335   0.84078   0.86915
 Alpha virt. eigenvalues --    0.88630   0.89616   0.91810   0.95300   0.99391
 Alpha virt. eigenvalues --    1.01829   1.02264   1.03366   1.04934   1.07547
 Alpha virt. eigenvalues --    1.08824   1.09863   1.13092   1.14760   1.14762
 Alpha virt. eigenvalues --    1.16695   1.17722   1.18477   1.19368   1.24272
 Alpha virt. eigenvalues --    1.28192   1.30740   1.31441   1.33064   1.33727
 Alpha virt. eigenvalues --    1.34541   1.38644   1.39737   1.41657   1.42219
 Alpha virt. eigenvalues --    1.43191   1.46325   1.50877   1.56834   1.60393
 Alpha virt. eigenvalues --    1.61493   1.62173   1.63324   1.63896   1.64976
 Alpha virt. eigenvalues --    1.65954   1.67006   1.68409   1.69399   1.70785
 Alpha virt. eigenvalues --    1.75705   1.75789   1.80311   1.84551   1.89504
 Alpha virt. eigenvalues --    1.89709   1.92184   1.93569   1.99830   2.03675
 Alpha virt. eigenvalues --    2.04029   2.05156   2.05623   2.08358   2.08515
 Alpha virt. eigenvalues --    2.09283   2.12126   2.12393   2.16793   2.19886
 Alpha virt. eigenvalues --    2.22057   2.22105   2.24082   2.28232   2.29181
 Alpha virt. eigenvalues --    2.30068   2.32271   2.33335   2.34607   2.35763
 Alpha virt. eigenvalues --    2.37283   2.38609   2.42429   2.44816   2.45127
 Alpha virt. eigenvalues --    2.46717   2.51766   2.60365   2.61322   2.64833
 Alpha virt. eigenvalues --    2.66375   2.68020   2.74696   2.82270   2.83510
 Alpha virt. eigenvalues --    2.84119   2.90935   2.92358   2.92802   2.96825
 Alpha virt. eigenvalues --    2.99965   3.07094   3.09075   3.16914   3.21784
 Alpha virt. eigenvalues --    3.29179   3.37177   3.38118   3.43712   3.44219
 Alpha virt. eigenvalues --    3.48694   3.70822   4.05206   4.36510   4.39646
 Alpha virt. eigenvalues --    4.44923   4.49909   4.60505   4.64046   4.68444
 Alpha virt. eigenvalues --    4.84140   5.02864   5.15387   5.60778   6.02590
          Condensed to atoms (all electrons):
              1          2          3          4          5          6
     1  F    9.171736   0.252649  -0.032027   0.002089  -0.000014   0.000000
     2  C    0.252649   4.600475   0.569823  -0.027197   0.000905  -0.000019
     3  C   -0.032027   0.569823   5.052069   0.360731  -0.012065   0.002212
     4  C    0.002089  -0.027197   0.360731   5.202496   0.415667  -0.045433
     5  C   -0.000014   0.000905  -0.012065   0.415667   3.547969   0.289628
     6  F    0.000000  -0.000019   0.002212  -0.045433   0.289628   9.187315
     7  F    0.000000   0.000294   0.005028  -0.055353   0.284883  -0.030776
     8  F    0.000000   0.000293   0.005022  -0.055361   0.284891  -0.030777
     9  C    0.000139  -0.023290  -0.055294   0.591754  -0.020760   0.005504
    10  N    0.001335  -0.055316  -0.021001  -0.035847   0.001221   0.000241
    11  C   -0.038910   0.378575  -0.077103  -0.001506   0.000065   0.000002
    12  S    0.003319  -0.085130   0.001520  -0.000019   0.000006   0.000000
    13  H   -0.000179  -0.018496   0.368052  -0.028513  -0.000342   0.000036
    14  H    0.000001  -0.000116   0.001843  -0.022390  -0.000149   0.005056
    15  H   -0.000018   0.003929  -0.000581   0.002339  -0.000015   0.000001
    16  H    0.011378  -0.000076   0.000051  -0.000001   0.000000   0.000000
    17  O   -0.001303   0.000047  -0.000002   0.000000   0.000000   0.000000
    18  H   -0.000020   0.000001   0.000000   0.000000   0.000000   0.000000
              7          8          9         10         11         12
     1  F    0.000000   0.000000   0.000139   0.001335  -0.038910   0.003319
     2  C    0.000294   0.000293  -0.023290  -0.055316   0.378575  -0.085130
     3  C    0.005028   0.005022  -0.055294  -0.021001  -0.077103   0.001520
     4  C   -0.055353  -0.055361   0.591754  -0.035847  -0.001506  -0.000019
     5  C    0.284883   0.284891  -0.020760   0.001221   0.000065   0.000006
     6  F   -0.030776  -0.030777   0.005504   0.000241   0.000002   0.000000
     7  F    9.201361  -0.033995   0.000538  -0.000006  -0.000002   0.000000
     8  F   -0.033995   9.201379   0.000534  -0.000006  -0.000002   0.000000
     9  C    0.000538   0.000534   4.732568   0.265902  -0.038073   0.003162
    10  N   -0.000006  -0.000006   0.265902   7.236591   0.212880  -0.103604
    11  C   -0.000002  -0.000002  -0.038073   0.212880   4.948336   0.448865
    12  S    0.000000   0.000000   0.003162  -0.103604   0.448865  15.937007
    13  H    0.000922   0.000919   0.002449  -0.000253   0.002564  -0.000056
    14  H    0.000084   0.000084   0.379438  -0.031914   0.000954  -0.000130
    15  H    0.000000   0.000000  -0.021421   0.309833  -0.017811   0.013579
    16  H    0.000000   0.000000   0.000000   0.000000   0.000046   0.000162
    17  O    0.000000   0.000000   0.000000   0.000000  -0.000003  -0.000011
    18  H    0.000000   0.000000   0.000000   0.000000   0.000000   0.000000
             13         14         15         16         17         18
     1  F   -0.000179   0.000001  -0.000018   0.011378  -0.001303  -0.000020
     2  C   -0.018496  -0.000116   0.003929  -0.000076   0.000047   0.000001
     3  C    0.368052   0.001843  -0.000581   0.000051  -0.000002   0.000000
     4  C   -0.028513  -0.022390   0.002339  -0.000001   0.000000   0.000000
     5  C   -0.000342  -0.000149  -0.000015   0.000000   0.000000   0.000000
     6  F    0.000036   0.005056   0.000001   0.000000   0.000000   0.000000
     7  F    0.000922   0.000084   0.000000   0.000000   0.000000   0.000000
     8  F    0.000919   0.000084   0.000000   0.000000   0.000000   0.000000
     9  C    0.002449   0.379438  -0.021421   0.000000   0.000000   0.000000
    10  N   -0.000253  -0.031914   0.309833   0.000000   0.000000   0.000000
    11  C    0.002564   0.000954  -0.017811   0.000046  -0.000003   0.000000
    12  S   -0.000056  -0.000130   0.013579   0.000162  -0.000011   0.000000
    13  H    0.393782  -0.000062   0.000008   0.000017   0.000000   0.000000
    14  H   -0.000062   0.379153  -0.002103   0.000000   0.000000   0.000000
    15  H    0.000008  -0.002103   0.269141   0.000000   0.000000   0.000000
    16  H    0.000017   0.000000   0.000000   0.296809   0.261731  -0.018185
    17  O    0.000000   0.000000   0.000000   0.261731   8.359219   0.264213
    18  H    0.000000   0.000000   0.000000  -0.018185   0.264213   0.329832
 Mulliken atomic charges:
              1
     1  F   -0.370172
     2  C    0.402650
     3  C   -0.168279
     4  C   -0.303457
     5  C    1.208110
     6  F   -0.382991
     7  F   -0.372979
     8  F   -0.372983
     9  C    0.176850
    10  N   -0.780057
    11  C    0.181123
    12  S   -0.218671
    13  H    0.279152
    14  H    0.290250
    15  H    0.443117
    16  H    0.448068
    17  O   -0.883891
    18  H    0.424159
 Sum of Mulliken atomic charges =   0.00000
 Mulliken charges with hydrogens summed into heavy atoms:
              1
     1  F   -0.370172
     2  C    0.402650
     3  C    0.110873
     4  C   -0.303457
     5  C    1.208110
     6  F   -0.382991
     7  F   -0.372979
     8  F   -0.372983
     9  C    0.467099
    10  N   -0.336939
    11  C    0.181123
    12  S   -0.218671
    17  O   -0.011663
 Sum of Mulliken charges with hydrogens summed into heavy atoms =   0.00000
 Electronic spatial extent (au):  <R**2>=           3908.2544
 Charge=              0.0000 electrons
 Dipole moment (field-independent basis, Debye):
    X=              5.8494    Y=             -3.2446    Z=             -0.0005  Tot=              6.6890
 Quadrupole moment (field-independent basis, Debye-Ang):
   XX=           -120.7521   YY=            -71.7523   ZZ=            -82.4674
   XY=             14.1981   XZ=              0.0005   YZ=             -0.0001
 Traceless Quadrupole moment (field-independent basis, Debye-Ang):
   XX=            -29.0948   YY=             19.9049   ZZ=              9.1899
   XY=             14.1981   XZ=              0.0005   YZ=             -0.0001
 Octapole moment (field-independent basis, Debye-Ang**2):
  XXX=            255.6821  YYY=            -85.8219  ZZZ=             -0.0046  XYY=             98.6505
  XXY=           -105.8422  XXZ=             -0.0061  XZZ=             43.2264  YZZ=            -29.4601
  YYZ=             -0.0024  XYZ=              0.0028
 Hexadecapole moment (field-independent basis, Debye-Ang**3):
 XXXX=          -3581.2566 YYYY=          -1106.5952 ZZZZ=           -143.2559 XXXY=            700.7315
 XXXZ=              0.0320 YYYX=            525.6374 YYYZ=             -0.0231 ZZZX=              0.0138
 ZZZY=             -0.0231 XXYY=          -1100.9772 XXZZ=           -541.5457 YYZZ=           -270.7474
 XXYZ=             -0.0240 YYXZ=              0.0249 ZZXY=            107.8186
 N-N= 9.035335348433D+02 E-N=-4.544632324347D+03  KE= 1.152546864680D+03
 Calling FoFJK, ICntrl=      2127 FMM=F ISym2X=0 I1Cent= 0 IOpClX= 0 NMat=1 NMatS=1 NMatT=0.
 -------------------------------------------------------------------
 Center     Atomic                   Forces (Hartrees/Bohr)
 Number     Number              X              Y              Z
 -------------------------------------------------------------------
      1        9           0.000000000    0.000000000    0.000000000
      2        6           0.000000000    0.000000000    0.000000000
      3        6           0.000000000    0.000000000    0.000000000
      4        6           0.000000000    0.000000000    0.000000000
      5        6           0.000000000    0.000000000    0.000000000
      6        9           0.000000000    0.000000000    0.000000000
      7        9           0.000000000    0.000000000    0.000000000
      8        9           0.000000000    0.000000000    0.000000000
      9        6           0.000000000    0.000000000    0.000000000
     10        7           0.000000000    0.000000000    0.000000000
     11        6           0.000000000    0.000000000    0.000000000
     12       16           0.000000000    0.000000000    0.000000000
     13        1           0.000000000    0.000000000    0.000000000
     14        1           0.000000000    0.000000000    0.000000000
     15        1           0.000000000    0.000000000    0.000000000
     16        1          -0.008591002    0.007233884    0.000000378
     17        8           0.015805220    0.000449602   -0.000000572
     18        1          -0.008226185   -0.007246815    0.000000230
 -------------------------------------------------------------------
 Cartesian Forces:  Max     0.015805220 RMS     0.003031709
 -----------------------------------------------------------------------------------------------
                       Internal Coordinate Forces (Hartree/Bohr or radian)
  Cent   Atom   N1       Length/X         N2         Alpha/Y        N3         Beta/Z          J
 -----------------------------------------------------------------------------------------------
      1  F 
      2  C 
      3  C 
      4  C 
      5  C 
      6  F 
      7  F 
      8  F 
      9  C 
     10  N 
     11  C 
     12  S 
     13  H 
     14  H 
     15  H 
         X        1   0.000000(     1)      2   0.000421(     7)      3   0.000000(    13)     0
         X       16   0.000000(     2)      1   0.000000(     8)      2   0.000000(    14)     0
     16  H        1   0.000927(     3)     16   0.000421(     9)     17   0.000000(    15)     0
         X       18   0.000000(     4)      1  -0.002055(    10)     16   0.000000(    16)     0
     17  O       18  -0.009871(     5)     19  -0.002055(    11)      1   0.000000(    17)     0
     18  H       20  -0.010879(     6)     18   0.002450(    12)     16   0.000000(    18)     0
 -----------------------------------------------------------------------------------------------
 Internal  Forces:  Max     0.010878984 RMS     0.003585885

 GradGradGradGradGradGradGradGradGradGradGradGradGradGradGradGradGradGrad
 Berny optimization.
 Search for a local minimum.
 Step number   1 out of a maximum of   20
 All quantities printed in internal units (Hartrees-Bohrs-Radians)
 Second derivative matrix not updated -- first step.
 The second derivative matrix:
                          RX       RDUM       ROH      ADUM      AHOH
           RX           0.03147
           RDUM         0.00000   0.00000
           ROH          0.00000   0.00000   1.12160
           ADUM         0.00000   0.00000   0.00000   1.64000
           AHOH         0.00000   0.00000   0.00000   0.00000   0.16000
           DDUM         0.00014   0.00000   0.00006   0.00303   0.00030
           DH1         -0.00019   0.00000  -0.00008  -0.00417  -0.00041
           DOH2        -0.00018   0.00000  -0.00008  -0.00398  -0.00039
           DH2         -0.00005   0.00000  -0.00002  -0.00113  -0.00011
                         DDUM       DH1      DOH2       DH2
           DDUM        22.02913
           DH1        -30.20433  41.44578
           DOH2       -28.54765  39.25495  37.75307
           DH2         -8.17520  11.24145  10.70730   3.06625
     Eigenvalues ---    0.031471000.000001000.000001000.000001000.00000
     Eigenvalues --- 1000.000001000.000001000.000001000.00000
 RFO step:  Lambda=-2.73107755D-05 EMin= 3.14665423D-02
 Linear search not attempted -- first point.
 Variable       Old X    -DE/DX   Delta X   Delta X   Delta X     New X
                                 (Linear)    (Quad)   (Total)
    RX        4.15740   0.00093   0.00000   0.02945   0.02945   4.18685
   RDUM       1.88973   0.00000   0.00000   0.00000   0.00000   1.88973
   ROH        1.80885  -0.02075   0.00000   0.00000   0.00000   1.80885
   ADUM       1.57080  -0.00327   0.00000   0.00000   0.00000   1.57080
   AHOH       1.82422   0.00245   0.00000   0.00000   0.00000   1.82422
   DDUM       0.00000   0.00000   0.00000   0.00000   0.00000   0.00000
   DH1        3.14159   0.00000   0.00000   0.00000   0.00000   3.14159
   DOH2       3.14159   0.00000   0.00000   0.00000   0.00000   3.14159
   DH2        0.00000   0.00000   0.00000   0.00000   0.00000   0.00000
         Item               Value     Threshold  Converged?
 Maximum Force            0.000927     0.000450     NO 
 RMS     Force            0.000927     0.000300     NO 
 Maximum Displacement     0.029448     0.001800     NO 
 RMS     Displacement     0.009816     0.001200     NO 
 Predicted change in Energy=-1.366724D-05
 GradGradGradGradGradGradGradGradGradGradGradGradGradGradGradGradGradGrad

 ---------------------------------------------------------------------------------------------------
                            Z-MATRIX (ANGSTROMS AND DEGREES)
   CD    Cent   Atom    N1       Length/X        N2       Alpha/Y        N3        Beta/Z          J
 ---------------------------------------------------------------------------------------------------
      1      1  F       -1  -1.969300          2.053680          0.000070
      2      2  C       -1  -1.222250          0.944230          0.000030
      3      3  C       -1   0.140030          1.057400         -0.000020
      4      4  C       -1   0.927950         -0.123640         -0.000080
      5      5  C       -1   2.414660         -0.018650         -0.000010
      6      6  F       -1   3.007080         -1.234610         -0.000560
      7      7  F       -1   2.858290          0.654480         -1.086020
      8      8  F       -1   2.858270          0.653500          1.086650
      9      9  C       -1   0.306540         -1.341490         -0.000090
     10     10  N       -1  -1.054170         -1.389970         -0.000060
     11     11  C       -1  -1.930500         -0.312100          0.000000
     12     12  S       -1  -3.570980         -0.506610          0.000030
     13     13  H       -1   0.596860          2.043100         -0.000020
     14     14  H       -1   0.831760         -2.288990         -0.000150
     15     15  H       -1  -1.521480         -2.296390         -0.000090
     16         X        1   1.000000(    15)      2   90.000(    34)      3    0.000(    52)      0
     17         X       16   1.000000(    16)      1   90.000(    35)      2    0.000(    53)      0
     18     16  H        1   2.215583(    17)     16   90.000(    36)     17  180.000(    54)      0
     19         X       18   1.000000(    18)      1   90.000(    37)     16    0.000(    55)      0
     20     17  O       18   0.957200(    19)     19   90.000(    38)      1  180.000(    56)      0
     21     18  H       20   0.957200(    20)     18  104.520(    39)     16    0.000(    57)      0
 ---------------------------------------------------------------------------------------------------
                         Z-Matrix orientation:                         
 ---------------------------------------------------------------------
 Center     Atomic      Atomic             Coordinates (Angstroms)
 Number     Number       Type             X           Y           Z
 ---------------------------------------------------------------------
      1          9           0       -1.969300    2.053680    0.000070
      2          6           0       -1.222250    0.944230    0.000030
      3          6           0        0.140030    1.057400   -0.000020
      4          6           0        0.927950   -0.123640   -0.000080
      5          6           0        2.414660   -0.018650   -0.000010
      6          9           0        3.007080   -1.234610   -0.000560
      7          9           0        2.858290    0.654480   -1.086020
      8          9           0        2.858270    0.653500    1.086650
      9          6           0        0.306540   -1.341490   -0.000090
     10          7           0       -1.054170   -1.389970   -0.000060
     11          6           0       -1.930500   -0.312100    0.000000
     12         16           0       -3.570980   -0.506610    0.000030
     13          1           0        0.596860    2.043100   -0.000020
     14          1           0        0.831760   -2.288990   -0.000150
     15          1           0       -1.521480   -2.296390   -0.000090
     16         -1           0       -1.139818    2.612213    0.000045
     17         -1           0       -0.581285    1.782731    0.000015
     18          1           0       -3.206777    3.891467    0.000136
     19         -1           0       -2.377295    4.450000    0.000111
     20          8           0       -3.741405    4.685447    0.000165
     21          1           0       -3.106825    5.402064    0.000149
 ---------------------------------------------------------------------
                    Distance matrix (angstroms):
                    1          2          3          4          5
     1  F    0.000000
     2  C    1.337521   0.000000
     3  C    2.332777   1.366973   0.000000
     4  C    3.624194   2.400772   1.419744   0.000000
     5  C    4.849088   3.762214   2.516312   1.490413   0.000000
     6  F    5.964663   4.757581   3.670597   2.357337   1.352598
     7  F    5.142274   4.232525   2.954772   2.347541   1.352527
     8  F    5.142625   4.232719   2.955134   2.347566   1.352555
     9  C    4.087374   2.749857   2.404662   1.367227   2.488790
    10  N    3.563171   2.340244   2.723184   2.352104   3.730054
    11  C    2.366098   1.442215   2.482463   2.864656   4.355058
    12  S    3.020011   2.760701   4.027123   4.515201   6.005497
    13  H    2.566182   2.125247   1.086415   2.191890   2.748674
    14  H    5.167661   3.830492   3.417136   2.167485   2.767673
    15  H    4.373060   3.254406   3.742796   3.274225   4.547669
    16  X    1.000000   1.670019   2.013816   3.429367   4.422189
    17  X    1.414214   1.055424   1.022937   2.431469   3.495806
    18  H    2.215583   3.553104   4.385550   5.763423   6.847595
    19  X    2.430804   3.691145   4.224530   5.642945   6.552226
    20  O    3.172783   4.510304   5.313027   6.702999   7.747623
    21  H    3.536331   4.839825   5.423852   6.841989   7.737631
                    6          7          8          9         10
     6  F    0.000000
     7  F    2.183809   0.000000
     8  F    2.183834   2.172670   0.000000
     9  C    2.702654   3.416807   3.416477   0.000000
    10  N    4.064221   4.546034   4.545756   1.361573   0.000000
    11  C    5.023019   5.004620   5.004549   2.462517   1.389157
    12  S    6.618222   6.622926   6.622828   3.966382   2.667332
    13  H    4.068482   2.867355   2.868068   3.397019   3.809445
    14  H    2.417382   3.734964   3.734451   1.083334   2.089251
    15  H    4.651369   5.391592   5.391203   2.062399   1.019792
    16  X    5.656396   4.582262   4.582791   4.209955   4.003100
    17  X    4.688359   3.779298   3.779745   3.247921   3.207749
    18  H    8.055351   6.960090   6.960584   6.302954   5.703270
    19  X    7.829833   6.557210   6.557829   6.383128   5.987980
    20  O    8.977144   7.809255   7.809786   7.260153   6.643186
    21  H    9.023596   7.700774   7.701409   7.558213   7.095430
                   11         12         13         14         15
    11  C    0.000000
    12  S    1.651971   0.000000
    13  H    3.454637   4.885889   0.000000
    14  H    3.396789   4.749842   4.338454   0.000000
    15  H    2.026007   2.720986   4.828927   2.353252   0.000000
    16  X    3.029321   3.954442   1.827550   5.282889   4.923419
    17  X    2.491726   3.765549   1.206572   4.309943   4.186072
    18  H    4.393046   4.413131   4.228961   7.382941   6.413252
    19  X    4.783014   5.098320   3.826064   7.464048   6.800456
    20  O    5.315529   5.194853   5.079620   8.340060   7.326262
    21  H    5.833988   5.926877   4.999992   8.640878   7.859995
                   16         17         18         19         20
    16  X    0.000000
    17  X    1.000000   0.000000
    18  H    2.430804   3.367488   0.000000
    19  X    2.215583   3.215583   1.000000   0.000000
    20  O    3.326643   4.290935   0.957200   1.384280   0.000000
    21  H    3.413559   4.413380   1.513901   1.199434   0.957200
                   21
    21  H    0.000000
 Symmetry turned off by external request.
 Stoichiometry    C6H5F4NOS
 Framework group  C1[X(C6H5F4NOS)]
 Deg. of freedom    48
 Full point group                 C1      NOp   1
 Rotational constants (GHZ):      0.9566320      0.3375101      0.2610452
 Standard basis: 6-31G(d) (6D, 7F)
 Integral buffers will be    131072 words long.
 Raffenetti 1 integral format.
 Two-electron integral symmetry is turned off.
   209 basis functions,   408 primitive gaussians,   209 cartesian basis functions
    54 alpha electrons       54 beta electrons
       nuclear repulsion energy       903.2714277133 Hartrees.
 NAtoms=   18 NActive=   18 NUniq=   18 SFac= 7.50D-01 NAtFMM=   80 NAOKFM=F Big=F
 One-electron integrals computed using PRISM.
 NBasis=   209 RedAO= T  NBF=   209
 NBsUse=   209 1.00D-06 NBFU=   209
 Initial guess read from the read-write file.
 B after Tr=     0.000000    0.000000    0.000000
         Rot=    1.000000    0.000000    0.000000    0.000000 Ang=   0.00 deg.
 Harris functional with IExCor=  205 diagonalized for initial guess.
 ExpMin= 1.17D-01 ExpMax= 2.19D+04 ExpMxC= 3.30D+03 IAcc=1 IRadAn=         1 AccDes= 0.00D+00
 HarFok:  IExCor=  205 AccDes= 0.00D+00 IRadAn=         1 IDoV= 1
 ScaDFX=  1.000000  1.000000  1.000000  1.000000
 FoFCou: FMM=F IPFlag=           0 FMFlag=      100000 FMFlg1=           0
         NFxFlg=           0 DoJE=T BraDBF=F KetDBF=T FulRan=T
         Omega=  0.000000  0.000000  1.000000  0.000000  0.000000 ICntrl=     500 IOpCl=  0
         NMat0=    1 NMatS0=    1 NMatT0=    0 NMatD0=    1 NMtDS0=    0 NMtDT0=    0
         I1Cent=           4 NGrid=           0.
 Symmetry not used in FoFCou.
 Requested convergence on RMS density matrix=1.00D-08 within 128 cycles.
 Requested convergence on MAX density matrix=1.00D-06.
 Requested convergence on             energy=1.00D-06.
 No special actions if energy rises.
 Integral accuracy reduced to 1.0D-05 until final iterations.
 Initial convergence to 1.0D-05 achieved.  Increase integral accuracy.
 SCF Done:  E(RHF) =  -1154.67453400     A.U. after    8 cycles
             Convg  =    0.7075D-08             -V/T =  2.0018
 Calling FoFJK, ICntrl=      2127 FMM=F ISym2X=0 I1Cent= 0 IOpClX= 0 NMat=1 NMatS=1 NMatT=0.
 -------------------------------------------------------------------
 Center     Atomic                   Forces (Hartrees/Bohr)
 Number     Number              X              Y              Z
 -------------------------------------------------------------------
      1        9           0.000000000    0.000000000    0.000000000
      2        6           0.000000000    0.000000000    0.000000000
      3        6           0.000000000    0.000000000    0.000000000
      4        6           0.000000000    0.000000000    0.000000000
      5        6           0.000000000    0.000000000    0.000000000
      6        9           0.000000000    0.000000000    0.000000000
      7        9           0.000000000    0.000000000    0.000000000
      8        9           0.000000000    0.000000000    0.000000000
      9        6           0.000000000    0.000000000    0.000000000
     10        7           0.000000000    0.000000000    0.000000000
     11        6           0.000000000    0.000000000    0.000000000
     12       16           0.000000000    0.000000000    0.000000000
     13        1           0.000000000    0.000000000    0.000000000
     14        1           0.000000000    0.000000000    0.000000000
     15        1           0.000000000    0.000000000    0.000000000
     16        1          -0.008508100    0.007152901    0.000000374
     17        8           0.015784169    0.000433369   -0.000000572
     18        1          -0.008214541   -0.007249945    0.000000230
 -------------------------------------------------------------------
 Cartesian Forces:  Max     0.015784169 RMS     0.003021282
 -----------------------------------------------------------------------------------------------
                       Internal Coordinate Forces (Hartree/Bohr or radian)
  Cent   Atom   N1       Length/X         N2         Alpha/Y        N3         Beta/Z          J
 -----------------------------------------------------------------------------------------------
      1  F 
      2  C 
      3  C 
      4  C 
      5  C 
      6  F 
      7  F 
      8  F 
      9  C 
     10  N 
     11  C 
     12  S 
     13  H 
     14  H 
     15  H 
         X        1   0.000000(     1)      2   0.000432(     7)      3   0.000000(    13)     0
         X       16   0.000000(     2)      1   0.000000(     8)      2   0.000000(    14)     0
     16  H        1   0.000803(     3)     16   0.000432(     9)     17   0.000000(    15)     0
         X       18   0.000000(     4)      1  -0.002041(    10)     16   0.000000(    16)     0
     17  O       18  -0.009882(     5)     19  -0.002041(    11)      1   0.000000(    17)     0
     18  H       20  -0.010874(     6)     18   0.002430(    12)     16   0.000000(    18)     0
 -----------------------------------------------------------------------------------------------
 Internal  Forces:  Max     0.010873608 RMS     0.003583477

 GradGradGradGradGradGradGradGradGradGradGradGradGradGradGradGradGradGrad
 Berny optimization.
 Search for a local minimum.
 Step number   2 out of a maximum of   20
 All quantities printed in internal units (Hartrees-Bohrs-Radians)
 Update second derivatives using D2CorN and points    1    2
 DE= -2.55D-05 DEPred=-1.37D-05 R= 1.86D+00
 SS=  1.41D+00  RLast= 2.94D-02 DXNew= 5.0454D-01 8.8344D-02
 Trust test= 1.86D+00 RLast= 2.94D-02 DXMaxT set to 3.00D-01
 The second derivative matrix:
                          RX       RDUM       ROH      ADUM      AHOH
           RX           0.00422
           RDUM         0.00000   0.00000
           ROH          0.00009   0.00000   1.12160
           ADUM        -0.00086   0.00000   0.00000   1.64000
           AHOH         0.00033   0.00000   0.00000   0.00000   0.16000
           DDUM         0.00007   0.00000   0.00006   0.00303   0.00030
           DH1         -0.00010   0.00000  -0.00008  -0.00417  -0.00041
           DOH2        -0.00009   0.00000  -0.00008  -0.00398  -0.00039
           DH2         -0.00003   0.00000  -0.00002  -0.00113  -0.00011
                         DDUM       DH1      DOH2       DH2
           DDUM        22.02913
           DH1        -30.20433  41.44578
           DOH2       -28.54765  39.25495  37.75307
           DH2         -8.17520  11.24145  10.70730   3.06625
     Eigenvalues ---    0.004221000.000001000.000001000.000001000.00000
     Eigenvalues --- 1000.000001000.000001000.000001000.00000
 RFO step:  Lambda= 0.00000000D+00 EMin= 4.22050617D-03
 Quartic linear search produced a step of  2.00000.
 Variable       Old X    -DE/DX   Delta X   Delta X   Delta X     New X
                                 (Linear)    (Quad)   (Total)
    RX        4.18685   0.00080   0.05890   0.00000   0.05890   4.24574
   RDUM       1.88973   0.00000   0.00000   0.00000   0.00000   1.88973
   ROH        1.80885  -0.02076   0.00000   0.00000   0.00000   1.80885
   ADUM       1.57080  -0.00322   0.00000   0.00000   0.00000   1.57080
   AHOH       1.82422   0.00243   0.00000   0.00000   0.00000   1.82422
   DDUM       0.00000   0.00000   0.00000   0.00000   0.00000   0.00000
   DH1        3.14159   0.00000   0.00000   0.00000   0.00000   3.14159
   DOH2       3.14159   0.00000   0.00000   0.00000   0.00000   3.14159
   DH2        0.00000   0.00000   0.00000   0.00000   0.00000   0.00000
         Item               Value     Threshold  Converged?
 Maximum Force            0.000803     0.000450     NO 
 RMS     Force            0.000803     0.000300     NO 
 Maximum Displacement     0.058896     0.001800     NO 
 RMS     Displacement     0.019632     0.001200     NO 
 Predicted change in Energy=-3.998186D-05
 GradGradGradGradGradGradGradGradGradGradGradGradGradGradGradGradGradGrad

 ---------------------------------------------------------------------------------------------------
                            Z-MATRIX (ANGSTROMS AND DEGREES)
   CD    Cent   Atom    N1       Length/X        N2       Alpha/Y        N3        Beta/Z          J
 ---------------------------------------------------------------------------------------------------
      1      1  F       -1  -1.969300          2.053680          0.000070
      2      2  C       -1  -1.222250          0.944230          0.000030
      3      3  C       -1   0.140030          1.057400         -0.000020
      4      4  C       -1   0.927950         -0.123640         -0.000080
      5      5  C       -1   2.414660         -0.018650         -0.000010
      6      6  F       -1   3.007080         -1.234610         -0.000560
      7      7  F       -1   2.858290          0.654480         -1.086020
      8      8  F       -1   2.858270          0.653500          1.086650
      9      9  C       -1   0.306540         -1.341490         -0.000090
     10     10  N       -1  -1.054170         -1.389970         -0.000060
     11     11  C       -1  -1.930500         -0.312100          0.000000
     12     12  S       -1  -3.570980         -0.506610          0.000030
     13     13  H       -1   0.596860          2.043100         -0.000020
     14     14  H       -1   0.831760         -2.288990         -0.000150
     15     15  H       -1  -1.521480         -2.296390         -0.000090
     16         X        1   1.000000(    15)      2   90.000(    34)      3    0.000(    52)      0
     17         X       16   1.000000(    16)      1   90.000(    35)      2    0.000(    53)      0
     18     16  H        1   2.246749(    17)     16   90.000(    36)     17  180.000(    54)      0
     19         X       18   1.000000(    18)      1   90.000(    37)     16    0.000(    55)      0
     20     17  O       18   0.957200(    19)     19   90.000(    38)      1  180.000(    56)      0
     21     18  H       20   0.957200(    20)     18  104.520(    39)     16    0.000(    57)      0
 ---------------------------------------------------------------------------------------------------
                         Z-Matrix orientation:                         
 ---------------------------------------------------------------------
 Center     Atomic      Atomic             Coordinates (Angstroms)
 Number     Number       Type             X           Y           Z
 ---------------------------------------------------------------------
      1          9           0       -1.969300    2.053680    0.000070
      2          6           0       -1.222250    0.944230    0.000030
      3          6           0        0.140030    1.057400   -0.000020
      4          6           0        0.927950   -0.123640   -0.000080
      5          6           0        2.414660   -0.018650   -0.000010
      6          9           0        3.007080   -1.234610   -0.000560
      7          9           0        2.858290    0.654480   -1.086020
      8          9           0        2.858270    0.653500    1.086650
      9          6           0        0.306540   -1.341490   -0.000090
     10          7           0       -1.054170   -1.389970   -0.000060
     11          6           0       -1.930500   -0.312100    0.000000
     12         16           0       -3.570980   -0.506610    0.000030
     13          1           0        0.596860    2.043100   -0.000020
     14          1           0        0.831760   -2.288990   -0.000150
     15          1           0       -1.521480   -2.296390   -0.000090
     16         -1           0       -1.139818    2.612213    0.000045
     17         -1           0       -0.581285    1.782731    0.000015
     18          1           0       -3.224184    3.917319    0.000137
     19         -1           0       -2.394702    4.475852    0.000112
     20          8           0       -3.758812    4.711299    0.000166
     21          1           0       -3.124232    5.427916    0.000150
 ---------------------------------------------------------------------
                    Distance matrix (angstroms):
                    1          2          3          4          5
     1  F    0.000000
     2  C    1.337521   0.000000
     3  C    2.332777   1.366973   0.000000
     4  C    3.624194   2.400772   1.419744   0.000000
     5  C    4.849088   3.762214   2.516312   1.490413   0.000000
     6  F    5.964663   4.757581   3.670597   2.357337   1.352598
     7  F    5.142274   4.232525   2.954772   2.347541   1.352527
     8  F    5.142625   4.232719   2.955134   2.347566   1.352555
     9  C    4.087374   2.749857   2.404662   1.367227   2.488790
    10  N    3.563171   2.340244   2.723184   2.352104   3.730054
    11  C    2.366098   1.442215   2.482463   2.864656   4.355058
    12  S    3.020011   2.760701   4.027123   4.515201   6.005497
    13  H    2.566182   2.125247   1.086415   2.191890   2.748674
    14  H    5.167661   3.830492   3.417136   2.167485   2.767673
    15  H    4.373060   3.254406   3.742796   3.274225   4.547669
    16  X    1.000000   1.670019   2.013816   3.429367   4.422189
    17  X    1.414214   1.055424   1.022937   2.431469   3.495806
    18  H    2.246749   3.584271   4.415549   5.793925   6.876657
    19  X    2.459244   3.721155   4.255664   5.674094   6.582591
    20  O    3.203949   4.541471   5.343402   6.733675   7.777157
    21  H    3.566418   4.870419   5.454981   6.873133   7.768166
                    6          7          8          9         10
     6  F    0.000000
     7  F    2.183809   0.000000
     8  F    2.183834   2.172670   0.000000
     9  C    2.702654   3.416807   3.416477   0.000000
    10  N    4.064221   4.546034   4.545756   1.361573   0.000000
    11  C    5.023019   5.004620   5.004549   2.462517   1.389157
    12  S    6.618222   6.622926   6.622828   3.966382   2.667332
    13  H    4.068482   2.867355   2.868068   3.397019   3.809445
    14  H    2.417382   3.734964   3.734451   1.083334   2.089251
    15  H    4.651369   5.391592   5.391203   2.062399   1.019792
    16  X    5.656396   4.582262   4.582791   4.209955   4.003100
    17  X    4.688359   3.779298   3.779745   3.247921   3.207749
    18  H    8.085235   6.987299   6.987794   6.334120   5.733784
    19  X    7.860574   6.586083   6.586703   6.413905   6.017050
    20  O    9.007282   7.837322   7.837854   7.291320   6.673872
    21  H    9.054405   7.730202   7.730839   7.589141   7.125218
                   11         12         13         14         15
    11  C    0.000000
    12  S    1.651971   0.000000
    13  H    3.454637   4.885889   0.000000
    14  H    3.396789   4.749842   4.338454   0.000000
    15  H    2.026007   2.720986   4.828927   2.353252   0.000000
    16  X    3.029321   3.954442   1.827550   5.282889   4.923419
    17  X    2.491726   3.765549   1.206572   4.309943   4.186072
    18  H    4.422850   4.437501   4.255946   7.414105   6.442777
    19  X    4.810402   5.119429   3.855869   7.494874   6.828307
    20  O    5.345771   5.221289   5.107951   8.371224   7.356178
    21  H    5.862831   5.951318   5.030259   8.671823   7.888835
                   16         17         18         19         20
    16  X    0.000000
    17  X    1.000000   0.000000
    18  H    2.459244   3.397261   0.000000
    19  X    2.246749   3.246749   1.000000   0.000000
    20  O    3.356381   4.321249   0.957200   1.384280   0.000000
    21  H    3.444718   4.444542   1.513901   1.199434   0.957200
                   21
    21  H    0.000000
 Symmetry turned off by external request.
 Stoichiometry    C6H5F4NOS
 Framework group  C1[X(C6H5F4NOS)]
 Deg. of freedom    48
 Full point group                 C1      NOp   1
 Rotational constants (GHZ):      0.9529822      0.3365887      0.2602223
 Standard basis: 6-31G(d) (6D, 7F)
 Integral buffers will be    131072 words long.
 Raffenetti 1 integral format.
 Two-electron integral symmetry is turned off.
   209 basis functions,   408 primitive gaussians,   209 cartesian basis functions
    54 alpha electrons       54 beta electrons
       nuclear repulsion energy       902.7522784948 Hartrees.
 NAtoms=   18 NActive=   18 NUniq=   18 SFac= 7.50D-01 NAtFMM=   80 NAOKFM=F Big=F
 One-electron integrals computed using PRISM.
 NBasis=   209 RedAO= T  NBF=   209
 NBsUse=   209 1.00D-06 NBFU=   209
 Initial guess read from the read-write file.
 B after Tr=     0.000000    0.000000    0.000000
         Rot=    1.000000    0.000000    0.000000    0.000000 Ang=   0.00 deg.
 Harris functional with IExCor=  205 diagonalized for initial guess.
 ExpMin= 1.17D-01 ExpMax= 2.19D+04 ExpMxC= 3.30D+03 IAcc=1 IRadAn=         1 AccDes= 0.00D+00
 HarFok:  IExCor=  205 AccDes= 0.00D+00 IRadAn=         1 IDoV= 1
 ScaDFX=  1.000000  1.000000  1.000000  1.000000
 FoFCou: FMM=F IPFlag=           0 FMFlag=      100000 FMFlg1=           0
         NFxFlg=           0 DoJE=T BraDBF=F KetDBF=T FulRan=T
         Omega=  0.000000  0.000000  1.000000  0.000000  0.000000 ICntrl=     500 IOpCl=  0
         NMat0=    1 NMatS0=    1 NMatT0=    0 NMatD0=    1 NMtDS0=    0 NMtDT0=    0
         I1Cent=           4 NGrid=           0.
 Symmetry not used in FoFCou.
 Requested convergence on RMS density matrix=1.00D-08 within 128 cycles.
 Requested convergence on MAX density matrix=1.00D-06.
 Requested convergence on             energy=1.00D-06.
 No special actions if energy rises.
 Integral accuracy reduced to 1.0D-05 until final iterations.
 Initial convergence to 1.0D-05 achieved.  Increase integral accuracy.
 SCF Done:  E(RHF) =  -1154.67457456     A.U. after    9 cycles
             Convg  =    0.9228D-08             -V/T =  2.0018
 Calling FoFJK, ICntrl=      2127 FMM=F ISym2X=0 I1Cent= 0 IOpClX= 0 NMat=1 NMatS=1 NMatT=0.
 -------------------------------------------------------------------
 Center     Atomic                   Forces (Hartrees/Bohr)
 Number     Number              X              Y              Z
 -------------------------------------------------------------------
      1        9           0.000000000    0.000000000    0.000000000
      2        6           0.000000000    0.000000000    0.000000000
      3        6           0.000000000    0.000000000    0.000000000
      4        6           0.000000000    0.000000000    0.000000000
      5        6           0.000000000    0.000000000    0.000000000
      6        9           0.000000000    0.000000000    0.000000000
      7        9           0.000000000    0.000000000    0.000000000
      8        9           0.000000000    0.000000000    0.000000000
      9        6           0.000000000    0.000000000    0.000000000
     10        7           0.000000000    0.000000000    0.000000000
     11        6           0.000000000    0.000000000    0.000000000
     12       16           0.000000000    0.000000000    0.000000000
     13        1           0.000000000    0.000000000    0.000000000
     14        1           0.000000000    0.000000000    0.000000000
     15        1           0.000000000    0.000000000    0.000000000
     16        1          -0.008355436    0.007008222    0.000000368
     17        8           0.015742769    0.000403481   -0.000000571
     18        1          -0.008192606   -0.007255538    0.000000229
 -------------------------------------------------------------------
 Cartesian Forces:  Max     0.015742769 RMS     0.003002122
 -----------------------------------------------------------------------------------------------
                       Internal Coordinate Forces (Hartree/Bohr or radian)
  Cent   Atom   N1       Length/X         N2         Alpha/Y        N3         Beta/Z          J
 -----------------------------------------------------------------------------------------------
      1  F 
      2  C 
      3  C 
      4  C 
      5  C 
      6  F 
      7  F 
      8  F 
      9  C 
     10  N 
     11  C 
     12  S 
     13  H 
     14  H 
     15  H 
         X        1   0.000000(     1)      2   0.000454(     7)      3   0.000000(    13)     0
         X       16   0.000000(     2)      1   0.000000(     8)      2   0.000000(    14)     0
     16  H        1   0.000579(     3)     16   0.000454(     9)     17   0.000000(    15)     0
         X       18   0.000000(     4)      1  -0.002012(    10)     16   0.000000(    16)     0
     17  O       18  -0.009901(     5)     19  -0.002012(    11)      1   0.000000(    17)     0
     18  H       20  -0.010863(     6)     18   0.002394(    12)     16   0.000000(    18)     0
 -----------------------------------------------------------------------------------------------
 Internal  Forces:  Max     0.010863254 RMS     0.003579313

 GradGradGradGradGradGradGradGradGradGradGradGradGradGradGradGradGradGrad
 Berny optimization.
 Search for a local minimum.
 Step number   3 out of a maximum of   20
 All quantities printed in internal units (Hartrees-Bohrs-Radians)
 Update second derivatives using D2CorN and points    2    3
 DE= -4.06D-05 DEPred=-4.00D-05 R= 1.01D+00
 SS=  1.41D+00  RLast= 5.89D-02 DXNew= 5.0454D-01 1.7669D-01
 Trust test= 1.01D+00 RLast= 5.89D-02 DXMaxT set to 3.00D-01
 The second derivative matrix:
                          RX       RDUM       ROH      ADUM      AHOH
           RX           0.00380
           RDUM         0.00000   0.00000
           ROH          0.00012   0.00000   1.12160
           ADUM        -0.00128   0.00000   0.00000   1.64000
           AHOH         0.00047   0.00000   0.00000   0.00000   0.16000
           DDUM         0.00003   0.00000   0.00006   0.00303   0.00030
           DH1         -0.00005   0.00000  -0.00008  -0.00417  -0.00041
           DOH2        -0.00005   0.00000  -0.00008  -0.00398  -0.00039
           DH2         -0.00001   0.00000  -0.00002  -0.00113  -0.00011
                         DDUM       DH1      DOH2       DH2
           DDUM        22.02913
           DH1        -30.20433  41.44578
           DOH2       -28.54765  39.25495  37.75307
           DH2         -8.17520  11.24145  10.70730   3.06625
     Eigenvalues ---    0.003801000.000001000.000001000.000001000.00000
     Eigenvalues --- 1000.000001000.000001000.000001000.00000
 RFO step:  Lambda= 0.00000000D+00 EMin= 3.80054249D-03
 Quartic linear search produced a step of  2.00000.
 Variable       Old X    -DE/DX   Delta X   Delta X   Delta X     New X
                                 (Linear)    (Quad)   (Total)
    RX        4.24574   0.00058   0.11779   0.00000   0.11779   4.36353
   RDUM       1.88973   0.00000   0.00000   0.00000   0.00000   1.88973
   ROH        1.80885  -0.02076   0.00000   0.00000   0.00000   1.80885
   ADUM       1.57080  -0.00312   0.00000   0.00000   0.00000   1.57080
   AHOH       1.82422   0.00239   0.00000   0.00000   0.00000   1.82422
   DDUM       0.00000   0.00000   0.00000   0.00000   0.00000   0.00000
   DH1        3.14159   0.00000   0.00000   0.00000   0.00000   3.14159
   DOH2       3.14159   0.00000   0.00000   0.00000   0.00000   3.14159
   DH2        0.00000   0.00000   0.00000   0.00000   0.00000   0.00000
         Item               Value     Threshold  Converged?
 Maximum Force            0.000579     0.000450     NO 
 RMS     Force            0.000579     0.000300     NO 
 Maximum Displacement     0.117792     0.001800     NO 
 RMS     Displacement     0.039264     0.001200     NO 
 Predicted change in Energy=-4.187147D-05
 GradGradGradGradGradGradGradGradGradGradGradGradGradGradGradGradGradGrad

 ---------------------------------------------------------------------------------------------------
                            Z-MATRIX (ANGSTROMS AND DEGREES)
   CD    Cent   Atom    N1       Length/X        N2       Alpha/Y        N3        Beta/Z          J
 ---------------------------------------------------------------------------------------------------
      1      1  F       -1  -1.969300          2.053680          0.000070
      2      2  C       -1  -1.222250          0.944230          0.000030
      3      3  C       -1   0.140030          1.057400         -0.000020
      4      4  C       -1   0.927950         -0.123640         -0.000080
      5      5  C       -1   2.414660         -0.018650         -0.000010
      6      6  F       -1   3.007080         -1.234610         -0.000560
      7      7  F       -1   2.858290          0.654480         -1.086020
      8      8  F       -1   2.858270          0.653500          1.086650
      9      9  C       -1   0.306540         -1.341490         -0.000090
     10     10  N       -1  -1.054170         -1.389970         -0.000060
     11     11  C       -1  -1.930500         -0.312100          0.000000
     12     12  S       -1  -3.570980         -0.506610          0.000030
     13     13  H       -1   0.596860          2.043100         -0.000020
     14     14  H       -1   0.831760         -2.288990         -0.000150
     15     15  H       -1  -1.521480         -2.296390         -0.000090
     16         X        1   1.000000(    15)      2   90.000(    34)      3    0.000(    52)      0
     17         X       16   1.000000(    16)      1   90.000(    35)      2    0.000(    53)      0
     18     16  H        1   2.309082(    17)     16   90.000(    36)     17  180.000(    54)      0
     19         X       18   1.000000(    18)      1   90.000(    37)     16    0.000(    55)      0
     20     17  O       18   0.957200(    19)     19   90.000(    38)      1  180.000(    56)      0
     21     18  H       20   0.957200(    20)     18  104.520(    39)     16    0.000(    57)      0
 ---------------------------------------------------------------------------------------------------
                         Z-Matrix orientation:                         
 ---------------------------------------------------------------------
 Center     Atomic      Atomic             Coordinates (Angstroms)
 Number     Number       Type             X           Y           Z
 ---------------------------------------------------------------------
      1          9           0       -1.969300    2.053680    0.000070
      2          6           0       -1.222250    0.944230    0.000030
      3          6           0        0.140030    1.057400   -0.000020
      4          6           0        0.927950   -0.123640   -0.000080
      5          6           0        2.414660   -0.018650   -0.000010
      6          9           0        3.007080   -1.234610   -0.000560
      7          9           0        2.858290    0.654480   -1.086020
      8          9           0        2.858270    0.653500    1.086650
      9          6           0        0.306540   -1.341490   -0.000090
     10          7           0       -1.054170   -1.389970   -0.000060
     11          6           0       -1.930500   -0.312100    0.000000
     12         16           0       -3.570980   -0.506610    0.000030
     13          1           0        0.596860    2.043100   -0.000020
     14          1           0        0.831760   -2.288990   -0.000150
     15          1           0       -1.521480   -2.296390   -0.000090
     16         -1           0       -1.139818    2.612213    0.000045
     17         -1           0       -0.581285    1.782731    0.000015
     18          1           0       -3.258999    3.969022    0.000139
     19         -1           0       -2.429517    4.527556    0.000114
     20          8           0       -3.793627    4.763003    0.000168
     21          1           0       -3.159047    5.479620    0.000152
 ---------------------------------------------------------------------
                    Distance matrix (angstroms):
                    1          2          3          4          5
     1  F    0.000000
     2  C    1.337521   0.000000
     3  C    2.332777   1.366973   0.000000
     4  C    3.624194   2.400772   1.419744   0.000000
     5  C    4.849088   3.762214   2.516312   1.490413   0.000000
     6  F    5.964663   4.757581   3.670597   2.357337   1.352598
     7  F    5.142274   4.232525   2.954772   2.347541   1.352527
     8  F    5.142625   4.232719   2.955134   2.347566   1.352555
     9  C    4.087374   2.749857   2.404662   1.367227   2.488790
    10  N    3.563171   2.340244   2.723184   2.352104   3.730054
    11  C    2.366098   1.442215   2.482463   2.864656   4.355058
    12  S    3.020011   2.760701   4.027123   4.515201   6.005497
    13  H    2.566182   2.125247   1.086415   2.191890   2.748674
    14  H    5.167661   3.830492   3.417136   2.167485   2.767673
    15  H    4.373060   3.254406   3.742796   3.274225   4.547669
    16  X    1.000000   1.670019   2.013816   3.429367   4.422189
    17  X    1.414214   1.055424   1.022937   2.431469   3.495806
    18  H    2.309082   3.646603   4.475594   5.854949   6.934835
    19  X    2.516319   3.781232   4.317934   5.736393   6.643345
    20  O    3.266282   4.603803   5.404179   6.795040   7.836264
    21  H    3.626646   4.931627   5.517240   6.935421   7.829252
                    6          7          8          9         10
     6  F    0.000000
     7  F    2.183809   0.000000
     8  F    2.183834   2.172670   0.000000
     9  C    2.702654   3.416807   3.416477   0.000000
    10  N    4.064221   4.546034   4.545756   1.361573   0.000000
    11  C    5.023019   5.004620   5.004549   2.462517   1.389157
    12  S    6.618222   6.622926   6.622828   3.966382   2.667332
    13  H    4.068482   2.867355   2.868068   3.397019   3.809445
    14  H    2.417382   3.734964   3.734451   1.083334   2.089251
    15  H    4.651369   5.391592   5.391203   2.062399   1.019792
    16  X    5.656396   4.582262   4.582791   4.209955   4.003100
    17  X    4.688359   3.779298   3.779745   3.247921   3.207749
    18  H    8.145031   7.041815   7.042313   6.396453   5.794831
    19  X    7.922067   6.643892   6.644513   6.475469   6.075252
    20  O    9.067578   7.893527   7.894060   7.353652   6.735258
    21  H    9.116030   7.789101   7.789738   7.651002   7.184829
                   11         12         13         14         15
    11  C    0.000000
    12  S    1.651971   0.000000
    13  H    3.454637   4.885889   0.000000
    14  H    3.396789   4.749842   4.338454   0.000000
    15  H    2.026007   2.720986   4.828927   2.353252   0.000000
    16  X    3.029321   3.954442   1.827550   5.282889   4.923419
    17  X    2.491726   3.765549   1.206572   4.309943   4.186072
    18  H    4.482513   4.486493   4.310084   7.476432   6.501874
    19  X    4.865314   5.161953   3.915543   7.556535   6.884095
    20  O    5.406284   5.274314   5.164712   8.433552   7.416042
    21  H    5.920587   6.000386   5.090826   8.733719   7.946569
                   16         17         18         19         20
    16  X    0.000000
    17  X    1.000000   0.000000
    18  H    2.516319   3.456881   0.000000
    19  X    2.309082   3.309082   1.000000   0.000000
    20  O    3.415933   4.381913   0.957200   1.384280   0.000000
    21  H    3.507037   4.506867   1.513901   1.199434   0.957200
                   21
    21  H    0.000000
 Symmetry turned off by external request.
 Stoichiometry    C6H5F4NOS
 Framework group  C1[X(C6H5F4NOS)]
 Deg. of freedom    48
 Full point group                 C1      NOp   1
 Rotational constants (GHZ):      0.9457949      0.3347361      0.2585793
 Standard basis: 6-31G(d) (6D, 7F)
 Integral buffers will be    131072 words long.
 Raffenetti 1 integral format.
 Two-electron integral symmetry is turned off.
   209 basis functions,   408 primitive gaussians,   209 cartesian basis functions
    54 alpha electrons       54 beta electrons
       nuclear repulsion energy       901.7337113194 Hartrees.
 NAtoms=   18 NActive=   18 NUniq=   18 SFac= 7.50D-01 NAtFMM=   80 NAOKFM=F Big=F
 One-electron integrals computed using PRISM.
 NBasis=   209 RedAO= T  NBF=   209
 NBsUse=   209 1.00D-06 NBFU=   209
 Initial guess read from the read-write file.
 B after Tr=     0.000000    0.000000    0.000000
         Rot=    1.000000    0.000000    0.000000    0.000000 Ang=   0.00 deg.
 Harris functional with IExCor=  205 diagonalized for initial guess.
 ExpMin= 1.17D-01 ExpMax= 2.19D+04 ExpMxC= 3.30D+03 IAcc=1 IRadAn=         1 AccDes= 0.00D+00
 HarFok:  IExCor=  205 AccDes= 0.00D+00 IRadAn=         1 IDoV= 1
 ScaDFX=  1.000000  1.000000  1.000000  1.000000
 FoFCou: FMM=F IPFlag=           0 FMFlag=      100000 FMFlg1=           0
         NFxFlg=           0 DoJE=T BraDBF=F KetDBF=T FulRan=T
         Omega=  0.000000  0.000000  1.000000  0.000000  0.000000 ICntrl=     500 IOpCl=  0
         NMat0=    1 NMatS0=    1 NMatT0=    0 NMatD0=    1 NMtDS0=    0 NMtDT0=    0
         I1Cent=           4 NGrid=           0.
 Symmetry not used in FoFCou.
 Requested convergence on RMS density matrix=1.00D-08 within 128 cycles.
 Requested convergence on MAX density matrix=1.00D-06.
 Requested convergence on             energy=1.00D-06.
 No special actions if energy rises.
 Integral accuracy reduced to 1.0D-05 until final iterations.
 Initial convergence to 1.0D-05 achieved.  Increase integral accuracy.
 SCF Done:  E(RHF) =  -1154.67462039     A.U. after   10 cycles
             Convg  =    0.3472D-08             -V/T =  2.0018
 Calling FoFJK, ICntrl=      2127 FMM=F ISym2X=0 I1Cent= 0 IOpClX= 0 NMat=1 NMatS=1 NMatT=0.
 -------------------------------------------------------------------
 Center     Atomic                   Forces (Hartrees/Bohr)
 Number     Number              X              Y              Z
 -------------------------------------------------------------------
      1        9           0.000000000    0.000000000    0.000000000
      2        6           0.000000000    0.000000000    0.000000000
      3        6           0.000000000    0.000000000    0.000000000
      4        6           0.000000000    0.000000000    0.000000000
      5        6           0.000000000    0.000000000    0.000000000
      6        9           0.000000000    0.000000000    0.000000000
      7        9           0.000000000    0.000000000    0.000000000
      8        9           0.000000000    0.000000000    0.000000000
      9        6           0.000000000    0.000000000    0.000000000
     10        7           0.000000000    0.000000000    0.000000000
     11        6           0.000000000    0.000000000    0.000000000
     12       16           0.000000000    0.000000000    0.000000000
     13        1           0.000000000    0.000000000    0.000000000
     14        1           0.000000000    0.000000000    0.000000000
     15        1           0.000000000    0.000000000    0.000000000
     16        1          -0.008096199    0.006778610    0.000000356
     17        8           0.015663945    0.000351515   -0.000000569
     18        1          -0.008153726   -0.007264371    0.000000228
 -------------------------------------------------------------------
 Cartesian Forces:  Max     0.015663945 RMS     0.002969708
 -----------------------------------------------------------------------------------------------
                       Internal Coordinate Forces (Hartree/Bohr or radian)
  Cent   Atom   N1       Length/X         N2         Alpha/Y        N3         Beta/Z          J
 -----------------------------------------------------------------------------------------------
      1  F 
      2  C 
      3  C 
      4  C 
      5  C 
      6  F 
      7  F 
      8  F 
      9  C 
     10  N 
     11  C 
     12  S 
     13  H 
     14  H 
     15  H 
         X        1   0.000000(     1)      2   0.000494(     7)      3   0.000000(    13)     0
         X       16   0.000000(     2)      1   0.000000(     8)      2   0.000000(    14)     0
     16  H        1   0.000216(     3)     16   0.000494(     9)     17   0.000000(    15)     0
         X       18   0.000000(     4)      1  -0.001954(    10)     16   0.000000(    16)     0
     17  O       18  -0.009929(     5)     19  -0.001954(    11)      1   0.000000(    17)     0
     18  H       20  -0.010844(     6)     18   0.002331(    12)     16   0.000000(    18)     0
 -----------------------------------------------------------------------------------------------
 Internal  Forces:  Max     0.010844091 RMS     0.003572865

 GradGradGradGradGradGradGradGradGradGradGradGradGradGradGradGradGradGrad
 Berny optimization.
 Search for a local minimum.
 Step number   4 out of a maximum of   20
 All quantities printed in internal units (Hartrees-Bohrs-Radians)
 Update second derivatives using D2CorN and points    3    4
 DE= -4.58D-05 DEPred=-4.19D-05 R= 1.09D+00
 SS=  1.41D+00  RLast= 1.18D-01 DXNew= 5.0454D-01 3.5337D-01
 Trust test= 1.09D+00 RLast= 1.18D-01 DXMaxT set to 3.53D-01
 The second derivative matrix:
                          RX       RDUM       ROH      ADUM      AHOH
           RX           0.00308
           RDUM         0.00000   0.00000
           ROH          0.00010   0.00000   1.12160
           ADUM        -0.00148   0.00000   0.00000   1.64000
           AHOH         0.00051   0.00000   0.00000   0.00000   0.16000
           DDUM         0.00002   0.00000   0.00006   0.00303   0.00030
           DH1         -0.00002   0.00000  -0.00008  -0.00417  -0.00041
           DOH2        -0.00002   0.00000  -0.00008  -0.00398  -0.00039
           DH2         -0.00001   0.00000  -0.00002  -0.00113  -0.00011
                         DDUM       DH1      DOH2       DH2
           DDUM        22.02913
           DH1        -30.20433  41.44578
           DOH2       -28.54765  39.25495  37.75307
           DH2         -8.17520  11.24145  10.70730   3.06625
     Eigenvalues ---    0.003081000.000001000.000001000.000001000.00000
     Eigenvalues --- 1000.000001000.000001000.000001000.00000
 RFO step:  Lambda= 0.00000000D+00 EMin= 3.08487725D-03
 Quartic linear search produced a step of  0.77679.
 Variable       Old X    -DE/DX   Delta X   Delta X   Delta X     New X
                                 (Linear)    (Quad)   (Total)
    RX        4.36353   0.00022   0.09150   0.00000   0.09150   4.45503
   RDUM       1.88973   0.00000   0.00000   0.00000   0.00000   1.88973
   ROH        1.80885  -0.02077   0.00000   0.00000   0.00000   1.80885
   ADUM       1.57080  -0.00292   0.00000   0.00000   0.00000   1.57080
   AHOH       1.82422   0.00233   0.00000   0.00000   0.00000   1.82422
   DDUM       0.00000   0.00000   0.00000   0.00000   0.00000   0.00000
   DH1        3.14159   0.00000   0.00000   0.00000   0.00000   3.14159
   DOH2       3.14159   0.00000   0.00000   0.00000   0.00000   3.14159
   DH2        0.00000   0.00000   0.00000   0.00000   0.00000   0.00000
         Item               Value     Threshold  Converged?
 Maximum Force            0.000216     0.000450     YES
 RMS     Force            0.000216     0.000300     YES
 Maximum Displacement     0.091499     0.001800     NO 
 RMS     Displacement     0.030500     0.001200     NO 
 Predicted change in Energy=-6.844332D-06
 GradGradGradGradGradGradGradGradGradGradGradGradGradGradGradGradGradGrad

 ---------------------------------------------------------------------------------------------------
                            Z-MATRIX (ANGSTROMS AND DEGREES)
   CD    Cent   Atom    N1       Length/X        N2       Alpha/Y        N3        Beta/Z          J
 ---------------------------------------------------------------------------------------------------
[...]
 !      DOH2       180.0      -DE/DX =    0.0                           !
 !       DH2         0.0      -DE/DX =    0.0                           !
 ------------------------------------------------------------------------
 GradGradGradGradGradGradGradGradGradGradGradGradGradGradGradGradGradGrad

 ---------------------------------------------------------------------------------------------------
                            Z-MATRIX (ANGSTROMS AND DEGREES)
   CD    Cent   Atom    N1       Length/X        N2       Alpha/Y        N3        Beta/Z          J
 ---------------------------------------------------------------------------------------------------
      1      1  F       -1  -1.969300          2.053680          0.000070
      2      2  C       -1  -1.222250          0.944230          0.000030
      3      3  C       -1   0.140030          1.057400         -0.000020
      4      4  C       -1   0.927950         -0.123640         -0.000080
      5      5  C       -1   2.414660         -0.018650         -0.000010
      6      6  F       -1   3.007080         -1.234610         -0.000560
      7      7  F       -1   2.858290          0.654480         -1.086020
      8      8  F       -1   2.858270          0.653500          1.086650
      9      9  C       -1   0.306540         -1.341490         -0.000090
     10     10  N       -1  -1.054170         -1.389970         -0.000060
     11     11  C       -1  -1.930500         -0.312100          0.000000
     12     12  S       -1  -3.570980         -0.506610          0.000030
     13     13  H       -1   0.596860          2.043100         -0.000020
     14     14  H       -1   0.831760         -2.288990         -0.000150
     15     15  H       -1  -1.521480         -2.296390         -0.000090
     16         X        1   1.000000(    15)      2   90.000(    34)      3    0.000(    52)      0
     17         X       16   1.000000(    16)      1   90.000(    35)      2    0.000(    53)      0
     18     16  H        1   2.357501(    17)     16   90.000(    36)     17  180.000(    54)      0
     19         X       18   1.000000(    18)      1   90.000(    37)     16    0.000(    55)      0
     20     17  O       18   0.957200(    19)     19   90.000(    38)      1  180.000(    56)      0
     21     18  H       20   0.957200(    20)     18  104.520(    39)     16    0.000(    57)      0
 ---------------------------------------------------------------------------------------------------
                         Z-Matrix orientation:                         
 ---------------------------------------------------------------------
 Center     Atomic      Atomic             Coordinates (Angstroms)
 Number     Number       Type             X           Y           Z
 ---------------------------------------------------------------------
      1          9           0       -1.969300    2.053680    0.000070
      2          6           0       -1.222250    0.944230    0.000030
      3          6           0        0.140030    1.057400   -0.000020
      4          6           0        0.927950   -0.123640   -0.000080
      5          6           0        2.414660   -0.018650   -0.000010
      6          9           0        3.007080   -1.234610   -0.000560
      7          9           0        2.858290    0.654480   -1.086020
      8          9           0        2.858270    0.653500    1.086650
      9          6           0        0.306540   -1.341490   -0.000090
     10          7           0       -1.054170   -1.389970   -0.000060
     11          6           0       -1.930500   -0.312100    0.000000
     12         16           0       -3.570980   -0.506610    0.000030
     13          1           0        0.596860    2.043100   -0.000020
     14          1           0        0.831760   -2.288990   -0.000150
     15          1           0       -1.521480   -2.296390   -0.000090
     16         -1           0       -1.139818    2.612213    0.000045
     17         -1           0       -0.581285    1.782731    0.000015
     18          1           0       -3.286043    4.009185    0.000141
     19         -1           0       -2.456561    4.567719    0.000115
     20          8           0       -3.820671    4.803166    0.000169
     21          1           0       -3.186091    5.519783    0.000153
 ---------------------------------------------------------------------
                    Distance matrix (angstroms):
                    1          2          3          4          5
     1  F    0.000000
     2  C    1.337521   0.000000
     3  C    2.332777   1.366973   0.000000
     4  C    3.624194   2.400772   1.419744   0.000000
     5  C    4.849088   3.762214   2.516312   1.490413   0.000000
     6  F    5.964663   4.757581   3.670597   2.357337   1.352598
     7  F    5.142274   4.232525   2.954772   2.347541   1.352527
     8  F    5.142625   4.232719   2.955134   2.347566   1.352555
     9  C    4.087374   2.749857   2.404662   1.367227   2.488790
    10  N    3.563171   2.340244   2.723184   2.352104   3.730054
    11  C    2.366098   1.442215   2.482463   2.864656   4.355058
    12  S    3.020011   2.760701   4.027123   4.515201   6.005497
    13  H    2.566182   2.125247   1.086415   2.191890   2.748674
    14  H    5.167661   3.830492   3.417136   2.167485   2.767673
    15  H    4.373060   3.254406   3.742796   3.274225   4.547669
    16  X    1.000000   1.670019   2.013816   3.429367   4.422189
    17  X    1.414214   1.055424   1.022937   2.431469   3.495806
    18  H    2.357501   3.695023   4.522280   5.902371   6.980077
    19  X    2.560823   3.827949   4.366305   5.784787   6.690558
    20  O    3.314701   4.652223   5.451414   6.842720   7.882211
    21  H    3.673479   4.979192   5.565603   6.983807   7.876716
                    6          7          8          9         10
     6  F    0.000000
     7  F    2.183809   0.000000
     8  F    2.183834   2.172670   0.000000
     9  C    2.702654   3.416807   3.416477   0.000000
    10  N    4.064221   4.546034   4.545756   1.361573   0.000000
    11  C    5.023019   5.004620   5.004549   2.462517   1.389157
    12  S    6.618222   6.622926   6.622828   3.966382   2.667332
    13  H    4.068482   2.867355   2.868068   3.397019   3.809445
    14  H    2.417382   3.734964   3.734451   1.083334   2.089251
    15  H    4.651369   5.391592   5.391203   2.062399   1.019792
    16  X    5.656396   4.582262   4.582791   4.209955   4.003100
    17  X    4.688359   3.779298   3.779745   3.247921   3.207749
    18  H    8.191507   7.084252   7.084752   6.444872   5.842271
    19  X    7.969842   6.688854   6.689476   6.523302   6.120519
    20  O    9.114435   7.937249   7.937784   7.402072   6.782953
    21  H    9.163907   7.834889   7.835527   7.699061   7.231167
                   11         12         13         14         15
    11  C    0.000000
    12  S    1.651971   0.000000
    13  H    3.454637   4.885889   0.000000
    14  H    3.396789   4.749842   4.338454   0.000000
    15  H    2.026007   2.720986   4.828927   2.353252   0.000000
    16  X    3.029321   3.954442   1.827550   5.282889   4.923419
    17  X    2.491726   3.765549   1.206572   4.309943   4.186072
    18  H    4.528908   4.524776   4.352290   7.524846   6.547821
    19  X    4.908092   5.195261   3.961954   7.604440   6.927508
    20  O    5.453319   5.315643   5.208891   8.481968   7.462571
    21  H    5.965515   6.038671   5.137902   8.781803   7.991464
                   16         17         18         19         20
    16  X    0.000000
    17  X    1.000000   0.000000
    18  H    2.560823   3.503258   0.000000
    19  X    2.357501   3.357501   1.000000   0.000000
    20  O    3.462260   4.429069   0.957200   1.384280   0.000000
    21  H    3.555446   4.555280   1.513901   1.199434   0.957200
                   21
    21  H    0.000000
 Symmetry turned off by external request.
 Stoichiometry    C6H5F4NOS
 Framework group  C1[X(C6H5F4NOS)]
 Deg. of freedom    48
 Full point group                 C1      NOp   1
 Rotational constants (GHZ):      0.9403140      0.3332881      0.2573057

 **********************************************************************

            Population analysis using the SCF density.

 **********************************************************************

 Alpha  occ. eigenvalues --  -91.90834 -26.37075 -26.36149 -26.36147 -26.34830
 Alpha  occ. eigenvalues --  -20.54378 -15.69077 -11.54455 -11.38260 -11.37844
 Alpha  occ. eigenvalues --  -11.36564 -11.31856 -11.30695  -8.91920  -6.60246
 Alpha  occ. eigenvalues --   -6.59970  -6.59843  -1.74328  -1.66087  -1.65327
 Alpha  occ. eigenvalues --   -1.64647  -1.35931  -1.32574  -1.17567  -1.12582
 Alpha  occ. eigenvalues --   -1.03375  -0.97538  -0.93107  -0.88683  -0.85449
 Alpha  occ. eigenvalues --   -0.83984  -0.83568  -0.77562  -0.76633  -0.74565
 Alpha  occ. eigenvalues --   -0.72773  -0.72356  -0.71936  -0.70800  -0.68975
 Alpha  occ. eigenvalues --   -0.67768  -0.67752  -0.66325  -0.64904  -0.62963
 Alpha  occ. eigenvalues --   -0.61265  -0.59812  -0.55497  -0.52954  -0.48194
 Alpha  occ. eigenvalues --   -0.47006  -0.43810  -0.34463  -0.31379
 Alpha virt. eigenvalues --    0.04050   0.08320   0.17345   0.22528   0.23953
 Alpha virt. eigenvalues --    0.24916   0.26059   0.26220   0.28695   0.32092
 Alpha virt. eigenvalues --    0.34774   0.35979   0.39772   0.40400   0.42252
 Alpha virt. eigenvalues --    0.43009   0.46276   0.49147   0.54154   0.55140
 Alpha virt. eigenvalues --    0.56401   0.59376   0.60945   0.63964   0.66477
 Alpha virt. eigenvalues --    0.67719   0.71505   0.72689   0.73304   0.74890
 Alpha virt. eigenvalues --    0.76773   0.77433   0.82399   0.84120   0.86974
 Alpha virt. eigenvalues --    0.88686   0.89637   0.91854   0.95297   0.99430
 Alpha virt. eigenvalues --    1.01821   1.02316   1.02948   1.04821   1.07459
 Alpha virt. eigenvalues --    1.08859   1.09617   1.13080   1.14647   1.14806
 Alpha virt. eigenvalues --    1.16448   1.17748   1.18320   1.19106   1.24258
 Alpha virt. eigenvalues --    1.28068   1.30477   1.31467   1.33099   1.33682
 Alpha virt. eigenvalues --    1.34569   1.38346   1.39132   1.41711   1.42198
 Alpha virt. eigenvalues --    1.43063   1.46353   1.51007   1.56311   1.60422
 Alpha virt. eigenvalues --    1.61521   1.62070   1.63367   1.63947   1.65004
 Alpha virt. eigenvalues --    1.66029   1.67068   1.68547   1.69348   1.70895
 Alpha virt. eigenvalues --    1.75756   1.75808   1.80073   1.82367   1.87383
 Alpha virt. eigenvalues --    1.89540   1.92219   1.93398   1.99868   2.03618
 Alpha virt. eigenvalues --    2.03886   2.04977   2.05661   2.08340   2.08539
 Alpha virt. eigenvalues --    2.09320   2.12153   2.12419   2.16937   2.19860
 Alpha virt. eigenvalues --    2.22115   2.22170   2.24140   2.28262   2.29236
 Alpha virt. eigenvalues --    2.30119   2.32313   2.33374   2.34641   2.35794
 Alpha virt. eigenvalues --    2.37352   2.38669   2.42547   2.44852   2.45182
 Alpha virt. eigenvalues --    2.46763   2.51814   2.60425   2.61388   2.64887
 Alpha virt. eigenvalues --    2.64988   2.68056   2.74762   2.82325   2.83637
 Alpha virt. eigenvalues --    2.84167   2.90978   2.92431   2.92856   2.96375
 Alpha virt. eigenvalues --    3.00007   3.07127   3.09126   3.16954   3.21810
 Alpha virt. eigenvalues --    3.29221   3.37205   3.38153   3.43563   3.44248
 Alpha virt. eigenvalues --    3.48766   3.70846   4.03486   4.36468   4.39671
 Alpha virt. eigenvalues --    4.44928   4.49489   4.60327   4.64030   4.68471
 Alpha virt. eigenvalues --    4.83540   5.02356   5.15373   5.59358   6.02191
          Condensed to atoms (all electrons):
              1          2          3          4          5          6
     1  F    9.171141   0.255346  -0.032416   0.002117  -0.000014   0.000000
     2  C    0.255346   4.597354   0.569535  -0.027003   0.000893  -0.000019
     3  C   -0.032416   0.569535   5.054385   0.359825  -0.012051   0.002209
     4  C    0.002117  -0.027003   0.359825   5.202963   0.415686  -0.045441
     5  C   -0.000014   0.000893  -0.012051   0.415686   3.548160   0.289595
     6  F    0.000000  -0.000019   0.002209  -0.045441   0.289595   9.187419
     7  F    0.000000   0.000294   0.005026  -0.055342   0.284844  -0.030774
     8  F    0.000000   0.000293   0.005020  -0.055350   0.284852  -0.030775
     9  C    0.000136  -0.023254  -0.055287   0.591802  -0.020766   0.005503
    10  N    0.001347  -0.054996  -0.021069  -0.035814   0.001218   0.000241
    11  C   -0.039311   0.378469  -0.077139  -0.001557   0.000068   0.000002
    12  S    0.003346  -0.084957   0.001547  -0.000025   0.000006   0.000000
    13  H   -0.000190  -0.018459   0.368197  -0.028718  -0.000335   0.000036
    14  H    0.000001  -0.000114   0.001838  -0.022400  -0.000147   0.005054
    15  H   -0.000018   0.003915  -0.000578   0.002338  -0.000015   0.000001
    16  H    0.008632  -0.000052   0.000032  -0.000001   0.000000   0.000000
    17  O   -0.000734   0.000025  -0.000001   0.000000   0.000000   0.000000
    18  H   -0.000023   0.000001   0.000000   0.000000   0.000000   0.000000
              7          8          9         10         11         12
     1  F    0.000000   0.000000   0.000136   0.001347  -0.039311   0.003346
     2  C    0.000294   0.000293  -0.023254  -0.054996   0.378469  -0.084957
     3  C    0.005026   0.005020  -0.055287  -0.021069  -0.077139   0.001547
     4  C   -0.055342  -0.055350   0.591802  -0.035814  -0.001557  -0.000025
     5  C    0.284844   0.284852  -0.020766   0.001218   0.000068   0.000006
     6  F   -0.030774  -0.030775   0.005503   0.000241   0.000002   0.000000
     7  F    9.201443  -0.033992   0.000537  -0.000006  -0.000002   0.000000
     8  F   -0.033992   9.201462   0.000533  -0.000006  -0.000002   0.000000
     9  C    0.000537   0.000533   4.733094   0.265840  -0.038141   0.003177
    10  N   -0.000006  -0.000006   0.265840   7.236353   0.212803  -0.103649
    11  C   -0.000002  -0.000002  -0.038141   0.212803   4.949657   0.448235
    12  S    0.000000   0.000000   0.003177  -0.103649   0.448235  15.939222
    13  H    0.000921   0.000917   0.002452  -0.000255   0.002582  -0.000056
    14  H    0.000084   0.000084   0.379497  -0.031937   0.000954  -0.000130
    15  H    0.000000   0.000000  -0.021433   0.309839  -0.017807   0.013592
    16  H    0.000000   0.000000   0.000000   0.000000   0.000030   0.000128
    17  O    0.000000   0.000000   0.000000   0.000000  -0.000001  -0.000008
    18  H    0.000000   0.000000   0.000000   0.000000   0.000000   0.000000
             13         14         15         16         17         18
     1  F   -0.000190   0.000001  -0.000018   0.008632  -0.000734  -0.000023
     2  C   -0.018459  -0.000114   0.003915  -0.000052   0.000025   0.000001
     3  C    0.368197   0.001838  -0.000578   0.000032  -0.000001   0.000000
     4  C   -0.028718  -0.022400   0.002338  -0.000001   0.000000   0.000000
     5  C   -0.000335  -0.000147  -0.000015   0.000000   0.000000   0.000000
     6  F    0.000036   0.005054   0.000001   0.000000   0.000000   0.000000
     7  F    0.000921   0.000084   0.000000   0.000000   0.000000   0.000000
     8  F    0.000917   0.000084   0.000000   0.000000   0.000000   0.000000
     9  C    0.002452   0.379497  -0.021433   0.000000   0.000000   0.000000
    10  N   -0.000255  -0.031937   0.309839   0.000000   0.000000   0.000000
    11  C    0.002582   0.000954  -0.017807   0.000030  -0.000001   0.000000
    12  S   -0.000056  -0.000130   0.013592   0.000128  -0.000008   0.000000
    13  H    0.394065  -0.000062   0.000008   0.000013   0.000000   0.000000
    14  H   -0.000062   0.379378  -0.002104   0.000000   0.000000   0.000000
    15  H    0.000008  -0.002104   0.269290   0.000000   0.000000   0.000000
    16  H    0.000013   0.000000   0.000000   0.303139   0.262565  -0.018370
    17  O    0.000000   0.000000   0.000000   0.262565   8.352308   0.264299
    18  H    0.000000   0.000000   0.000000  -0.018370   0.264299   0.328617
 Mulliken atomic charges:
              1
     1  F   -0.369359
     2  C    0.402729
     3  C   -0.169072
     4  C   -0.303081
     5  C    1.208006
     6  F   -0.383051
     7  F   -0.373033
     8  F   -0.373037
     9  C    0.176309
    10  N   -0.779910
    11  C    0.181161
    12  S   -0.220428
    13  H    0.278884
    14  H    0.290004
    15  H    0.442971
    16  H    0.443885
    17  O   -0.878453
    18  H    0.425476
 Sum of Mulliken atomic charges =   0.00000
 Mulliken charges with hydrogens summed into heavy atoms:
              1
     1  F   -0.369359
     2  C    0.402729
     3  C    0.109813
     4  C   -0.303081
     5  C    1.208006
     6  F   -0.383051
     7  F   -0.373033
     8  F   -0.373037
     9  C    0.466312
    10  N   -0.336939
    11  C    0.181161
    12  S   -0.220428
    17  O   -0.009092
 Sum of Mulliken charges with hydrogens summed into heavy atoms =   0.00000
 Electronic spatial extent (au):  <R**2>=           3975.5205
 Charge=              0.0000 electrons
 Dipole moment (field-independent basis, Debye):
    X=              5.8309    Y=             -3.1830    Z=             -0.0005  Tot=              6.6431
 Quadrupole moment (field-independent basis, Debye-Ang):
   XX=           -121.1262   YY=            -71.5528   ZZ=            -82.4764
   XY=             14.3049   XZ=              0.0005   YZ=             -0.0001
 Traceless Quadrupole moment (field-independent basis, Debye-Ang):
   XX=            -29.4077   YY=             20.1657   ZZ=              9.2421
   XY=             14.3049   XZ=              0.0005   YZ=             -0.0001
 Octapole moment (field-independent basis, Debye-Ang**2):
  XXX=            261.4632  YYY=            -86.7070  ZZZ=             -0.0047  XYY=            101.1940
  XXY=           -110.0048  XXZ=             -0.0063  XZZ=             43.8749  YZZ=            -30.3873
  YYZ=             -0.0025  XYZ=              0.0029
 Hexadecapole moment (field-independent basis, Debye-Ang**3):
 XXXX=          -3636.3991 YYYY=          -1136.9930 ZZZZ=           -143.2797 XXXY=            747.0148
 XXXZ=              0.0338 YYYX=            555.9828 YYYZ=             -0.0243 ZZZX=              0.0145
 ZZZY=             -0.0240 XXYY=          -1138.9905 XXZZ=           -546.3580 YYZZ=           -279.6423
 XXYZ=             -0.0255 YYXZ=              0.0261 ZZXY=            114.2749
 N-N= 9.009600478420D+02 E-N=-4.539522769430D+03  KE= 1.152545069209D+03
 1\1\GINC-B1\FOpt\RHF\6-31G(d)\C6H5F4N1O1S1\ANA\24-Sep-2021\1\\#HF/6-31
 G* Opt=Z-matrix NoSymm\\water interaction with atom F1\\0,1\F,-1,-1.96
 93,2.05368,0.00007\C,-1,-1.22225,0.94423,0.00003\C,-1,0.14003,1.0574,-
 0.00002\C,-1,0.92795,-0.12364,-0.00008\C,-1,2.41466,-0.01865,-0.00001\
 F,-1,3.00708,-1.23461,-0.00056\F,-1,2.85829,0.65448,-1.08602\F,-1,2.85
 827,0.6535,1.08665\C,-1,0.30654,-1.34149,-0.00009\N,-1,-1.05417,-1.389
 97,-0.00006\C,-1,-1.9305,-0.3121,0.\S,-1,-3.57098,-0.50661,0.00003\H,-
 1,0.59686,2.0431,-0.00002\H,-1,0.83176,-2.28899,-0.00015\H,-1,-1.52148
 ,-2.29639,-0.00009\X,1,RDUM,2,ADUM,3,DDUM,0\X,16,RDUM,1,ADUM,2,DDUM,0\
 H,1,RX,16,ADUM,17,DH1,0\X,18,RDUM,1,ADUM,16,DDUM,0\O,18,ROH,19,ADUM,1,
 DOH2,0\H,20,ROH,18,AHOH,16,DH2,0\\RX=2.35750149\RDUM=1.\ROH=0.9572\ADU
 M=90.\AHOH=104.52\DDUM=0.\DH1=180.\DOH2=180.\DH2=0.\\Version=EM64L-G09
 RevA.01\HF=-1154.6746297\RMSD=2.583e-09\RMSF=2.949e-03\Dipole=2.294062
 8,-1.252295,-0.000198\Quadrupole=-21.8639233,14.9926747,6.8712486,10.6
 35319,0.0003506,-0.0000712\PG=C01 [X(C6H5F4N1O1S1)]\\@


 BETTER TO HUNT IN FIELDS, FOR HEALTH UNBOUGHT
 THAN FEE THE DOCTOR FOR A NAUSEOUS DRAUGHT.
 THE WISE, FOR CURE, ON EXERCISE DEPEND;
 GOD NEVER MADE HIS WORK FOR MAN TO MEND.
     -- JOHN DRYDEN (1631-1700)
 Job cpu time:  0 days  0 hours  5 minutes  2.3 seconds.
 File lengths (MBytes):  RWF=     33 Int=      0 D2E=      0 Chk=      3 Scr=      1
 Normal termination of Gaussian 09 at Fri Sep 24 07:59:19 2021.
