 Entering Gaussian System, Link 0=g09
 Initial command:
 /home/ana/programs/g09/l1.exe /home/ana/programs/g09/scratch/Gau-698131.inp -scrdir=/home/ana/programs/g09/scratch/
 Entering Link 1 = /home/ana/programs/g09/l1.exe PID=    698133.
  
 Copyright (c) 1988,1990,1992,1993,1995,1998,2003,2009, Gaussian, Inc.
                  All Rights Reserved.
  
 This is part of the Gaussian(R) 09 program.  It is based on
 the Gaussian(R) 03 system (copyright 2003, Gaussian, Inc.),
 the Gaussian(R) 98 system (copyright 1998, Gaussian, Inc.),
 the Gaussian(R) 94 system (copyright 1995, Gaussian, Inc.),
 the Gaussian 92(TM) system (copyright 1992, Gaussian, Inc.),
 the Gaussian 90(TM) system (copyright 1990, Gaussian, Inc.),
 the Gaussian 88(TM) system (copyright 1988, Gaussian, Inc.),
 the Gaussian 86(TM) system (copyright 1986, Carnegie Mellon
 University), and the Gaussian 82(TM) system (copyright 1983,
 Carnegie Mellon University). Gaussian is a federally registered
 trademark of Gaussian, Inc.
  
 This software contains proprietary and confidential information,
 including trade secrets, belonging to Gaussian, Inc.
  
 This software is provided under written license and may be
 used, copied, transmitted, or stored only in accord with that
 written license.
  
 The following legend is applicable only to US Government
 contracts under FAR:
  
                    RESTRICTED RIGHTS LEGEND
  
 Use, reproduction and disclosure by the US Government is
 subject to restrictions as set forth in subparagraphs (a)
 and (c) of the Commercial Computer Software - Restricted
 Rights clause in FAR 52.227-19.
  
 Gaussian, Inc.
 340 Quinnipiac St., Bldg. 40, Wallingford CT 06492
  
  
 ---------------------------------------------------------------
 Warning -- This program may not be used in any manner that
 competes with the business of Gaussian, Inc. or will provide
 assistance to any competitor of Gaussian, Inc.  The licensee
 of this program is prohibited from giving any competitor of
 Gaussian, Inc. access to this program.  By using this program,
 the user acknowledges that Gaussian, Inc. is engaged in the
 business of creating and licensing software in the field of
 computational chemistry and represents and warrants to the
 licensee that it is not a competitor of Gaussian, Inc. and that
 it will not use this program in any manner prohibited above.
 ---------------------------------------------------------------
  

 Cite this work as:
 Gaussian 09, Revision A.01,
 M. J. Frisch, G. W. Trucks, H. B. Schlegel, G. E. Scuseria, 
 M. A. Robb, J. R. Cheeseman, G. Scalmani, V. Barone, B. Mennucci, 
 G. A. Petersson, H. Nakatsuji, M. Caricato, X. Li, H. P. Hratchian, 
 A. F. Izmaylov, J. Bloino, G. Zheng, J. L. Sonnenberg, M. Hada, 
 M. Ehara, K. Toyota, R. Fukuda, J. Hasegawa, M. Ishida, T. Nakajima, 
 Y. Honda, O. Kitao, H. Nakai, T. Vreven, J. A. Montgomery, Jr., 
 J. E. Peralta, F. Ogliaro, M. Bearpark, J. J. Heyd, E. Brothers, 
 K. N. Kudin, V. N. Staroverov, R. Kobayashi, J. Normand, 
 K. Raghavachari, A. Rendell, J. C. Burant, S. S. Iyengar, J. Tomasi, 
 M. Cossi, N. Rega, J. M. Millam, M. Klene, J. E. Knox, J. B. Cross, 
 V. Bakken, C. Adamo, J. Jaramillo, R. Gomperts, R. E. Stratmann, 
 O. Yazyev, A. J. Austin, R. Cammi, C. Pomelli, J. W. Ochterski, 
 R. L. Martin, K. Morokuma, V. G. Zakrzewski, G. A. Voth, 
 P. Salvador, J. J. Dannenberg, S. Dapprich, A. D. Daniels, 
 O. Farkas, J. B. Foresman, J. V. Ortiz, J. Cioslowski, 
 and D. J. Fox, Gaussian, Inc., Wallingford CT, 2009.
 
 ******************************************
 Gaussian 09:  EM64L-G09RevA.01  8-May-2009
                24-Sep-2021 
 ******************************************
 %NPROC=4
 Will use up to    4 processors via shared memory.
 %NoSave
 ------------------------------
 #HF/6-31G* Opt=Z-matrix NoSymm
 ------------------------------
 1/10=7,18=40,38=1/1,3;
 2/12=2,15=1,17=6,18=5,29=3,40=1/2;
 3/5=1,6=6,7=1,11=9,16=1,25=1,30=1,71=1/1,2,3;
 4//1;
 5/5=2,38=5/2;
 6/7=2,8=2,9=2,10=2,28=1/1;
 7/29=1,30=1/1,2,3,16;
 1/10=7,18=40/3(2);
 2/15=1,29=3/2;
 99//99;
 2/15=1,29=3/2;
 3/5=1,6=6,7=1,11=9,16=1,25=1,30=1,71=1/1,2,3;
 4/5=5,16=3/1;
 5/5=2,38=5/2;
 7/30=1/1,2,3,16;
 1/18=40/3(-5);
 2/15=1,29=3/2;
 6/7=2,8=2,9=2,10=2,19=2,28=1/1;
 99/9=1/99;
 ------------------------------
 water interaction with atom F1
 ------------------------------
 Symbolic Z-matrix:
 Charge =  0 Multiplicity = 1
 9                    -1   -1.9693    2.05368   0.00007 
 6                    -1   -1.22225   0.94423   0.00003 
 6                    -1    0.14003   1.0574   -0.00002 
 6                    -1    0.92795  -0.12364  -0.00008 
 6                    -1    2.41466  -0.01865  -0.00001 
 9                    -1    3.00708  -1.23461  -0.00056 
 9                    -1    2.85829   0.65448  -1.08602 
 9                    -1    2.85827   0.6535    1.08665 
 6                    -1    0.30654  -1.34149  -0.00009 
 7                    -1   -1.05417  -1.38997  -0.00006 
 6                    -1   -1.9305   -0.3121    0. 
 16                   -1   -3.57098  -0.50661   0.00003 
 1                    -1    0.59686   2.0431   -0.00002 
 1                    -1    0.83176  -2.28899  -0.00015 
 1                    -1   -1.52148  -2.29639  -0.00009 
 X                    1    RDUM     2    ADUM     3    DDUM     0
 X                    16   RDUM     1    ADUM     2    DDUM     0
 H1                   1    RX       16   ADUM     17   DH1      0
 X                    18   RDUM     1    ADUM     16   DDUM     0
 OH2                  18   ROH      19   ADUM     1    DOH2     0
 H2                   20   ROH      18   AHOH     16   DH2      0
       Variables:
  RX                    2.3099                   
       Constants:
  RDUM                  1.                       
  ROH                   0.9572                   
  ADUM                 90.                       
  AHOH                104.52                     
  DDUM                  0.                       
  DH1                 180.                       
  DOH2                180.                       
  DH2                 180.                       
 

 GradGradGradGradGradGradGradGradGradGradGradGradGradGradGradGradGradGrad
 Berny optimization.
 Initialization pass.
                       ----------------------------
                       !    Initial Parameters    !
                       ! (Angstroms and Degrees)  !
 ----------------------                            ----------------------
 !      Name          Value   Derivative information (Atomic Units)     !
 ------------------------------------------------------------------------
 !       RX          2.3099   estimate D2E/DX2                          !
 !      RDUM         1.0      Frozen                                    !
 !       ROH         0.9572   Frozen                                    !
 !      ADUM        90.0      Frozen                                    !
 !      AHOH       104.52     Frozen                                    !
 !      DDUM         0.0      Frozen                                    !
 !       DH1       180.0      Frozen                                    !
 !      DOH2       180.0      Frozen                                    !
 !       DH2       180.0      Frozen                                    !
 ------------------------------------------------------------------------
 Trust Radius=3.00D-01 FncErr=1.00D-07 GrdErr=1.00D-07
 Number of steps in this run=  20 maximum allowed number of steps= 100.
 GradGradGradGradGradGradGradGradGradGradGradGradGradGradGradGradGradGrad

 ---------------------------------------------------------------------------------------------------
                            Z-MATRIX (ANGSTROMS AND DEGREES)
   CD    Cent   Atom    N1       Length/X        N2       Alpha/Y        N3        Beta/Z          J
 ---------------------------------------------------------------------------------------------------
      1      1  F       -1  -1.969300          2.053680          0.000070
      2      2  C       -1  -1.222250          0.944230          0.000030
      3      3  C       -1   0.140030          1.057400         -0.000020
      4      4  C       -1   0.927950         -0.123640         -0.000080
      5      5  C       -1   2.414660         -0.018650         -0.000010
      6      6  F       -1   3.007080         -1.234610         -0.000560
      7      7  F       -1   2.858290          0.654480         -1.086020
      8      8  F       -1   2.858270          0.653500          1.086650
      9      9  C       -1   0.306540         -1.341490         -0.000090
     10     10  N       -1  -1.054170         -1.389970         -0.000060
     11     11  C       -1  -1.930500         -0.312100          0.000000
     12     12  S       -1  -3.570980         -0.506610          0.000030
     13     13  H       -1   0.596860          2.043100         -0.000020
     14     14  H       -1   0.831760         -2.288990         -0.000150
     15     15  H       -1  -1.521480         -2.296390         -0.000090
     16         X        1   1.000000(    15)      2   90.000(    34)      3    0.000(    52)      0
     17         X       16   1.000000(    16)      1   90.000(    35)      2    0.000(    53)      0
     18     16  H        1   2.309900(    17)     16   90.000(    36)     17  180.000(    54)      0
     19         X       18   1.000000(    18)      1   90.000(    37)     16    0.000(    55)      0
     20     17  O       18   0.957200(    19)     19   90.000(    38)      1  180.000(    56)      0
     21     18  H       20   0.957200(    20)     18  104.520(    39)     16  180.000(    57)      0
 ---------------------------------------------------------------------------------------------------
                         Z-Matrix orientation:                         
 ---------------------------------------------------------------------
 Center     Atomic      Atomic             Coordinates (Angstroms)
 Number     Number       Type             X           Y           Z
 ---------------------------------------------------------------------
      1          9           0       -1.969300    2.053680    0.000070
      2          6           0       -1.222250    0.944230    0.000030
      3          6           0        0.140030    1.057400   -0.000020
      4          6           0        0.927950   -0.123640   -0.000080
      5          6           0        2.414660   -0.018650   -0.000010
      6          9           0        3.007080   -1.234610   -0.000560
      7          9           0        2.858290    0.654480   -1.086020
      8          9           0        2.858270    0.653500    1.086650
      9          6           0        0.306540   -1.341490   -0.000090
     10          7           0       -1.054170   -1.389970   -0.000060
     11          6           0       -1.930500   -0.312100    0.000000
     12         16           0       -3.570980   -0.506610    0.000030
     13          1           0        0.596860    2.043100   -0.000020
     14          1           0        0.831760   -2.288990   -0.000150
     15          1           0       -1.521480   -2.296390   -0.000090
     16         -1           0       -1.139818    2.612213    0.000045
     17         -1           0       -0.581285    1.782731    0.000015
     18          1           0       -3.259456    3.969701    0.000139
     19         -1           0       -2.429974    4.528234    0.000114
     20          8           0       -3.794084    4.763681    0.000168
     21          1           0       -4.696745    4.445194    0.000198
 ---------------------------------------------------------------------
                    Distance matrix (angstroms):
                    1          2          3          4          5
     1  F    0.000000
     2  C    1.337521   0.000000
     3  C    2.332777   1.366973   0.000000
     4  C    3.624194   2.400772   1.419744   0.000000
     5  C    4.849088   3.762214   2.516312   1.490413   0.000000
     6  F    5.964663   4.757581   3.670597   2.357337   1.352598
     7  F    5.142274   4.232525   2.954772   2.347541   1.352527
     8  F    5.142625   4.232719   2.955134   2.347566   1.352555
     9  C    4.087374   2.749857   2.404662   1.367227   2.488790
    10  N    3.563171   2.340244   2.723184   2.352104   3.730054
    11  C    2.366098   1.442215   2.482463   2.864656   4.355058
    12  S    3.020011   2.760701   4.027123   4.515201   6.005497
    13  H    2.566182   2.125247   1.086415   2.191890   2.748674
    14  H    5.167661   3.830492   3.417136   2.167485   2.767673
    15  H    4.373060   3.254406   3.742796   3.274225   4.547669
    16  X    1.000000   1.670019   2.013816   3.429367   4.422189
    17  X    1.414214   1.055424   1.022937   2.431469   3.495806
    18  H    2.309900   3.647421   4.476382   5.855750   6.935599
    19  X    2.517069   3.782021   4.318751   5.737210   6.644143
    20  O    3.267100   4.604621   5.404977   6.795845   7.837040
    21  H    3.627437   4.932430   5.905213   7.246478   8.396308
                    6          7          8          9         10
     6  F    0.000000
     7  F    2.183809   0.000000
     8  F    2.183834   2.172670   0.000000
     9  C    2.702654   3.416807   3.416477   0.000000
    10  N    4.064221   4.546034   4.545756   1.361573   0.000000
    11  C    5.023019   5.004620   5.004549   2.462517   1.389157
    12  S    6.618222   6.622926   6.622828   3.966382   2.667332
    13  H    4.068482   2.867355   2.868068   3.397019   3.809445
    14  H    2.417382   3.734964   3.734451   1.083334   2.089251
    15  H    4.651369   5.391592   5.391203   2.062399   1.019792
    16  X    5.656396   4.582262   4.582791   4.209955   4.003100
    17  X    4.688359   3.779298   3.779745   3.247921   3.207749
    18  H    8.145816   7.042531   7.043029   6.397271   5.795633
    19  X    7.922874   6.644651   6.645272   6.476277   6.076016
    20  O    9.068370   7.894265   7.894799   7.354470   6.736063
    21  H    9.571264   8.522203   8.522651   7.649744   6.878771
                   11         12         13         14         15
    11  C    0.000000
    12  S    1.651971   0.000000
    13  H    3.454637   4.885889   0.000000
    14  H    3.396789   4.749842   4.338454   0.000000
    15  H    2.026007   2.720986   4.828927   2.353252   0.000000
    16  X    3.029321   3.954442   1.827550   5.282889   4.923419
    17  X    2.491726   3.765549   1.206572   4.309943   4.186072
    18  H    4.483296   4.487138   4.310796   7.477249   6.502650
    19  X    4.866036   5.162514   3.916327   7.557344   6.884828
    20  O    5.407079   5.275011   5.165457   8.434370   7.416828
    21  H    5.503087   5.078160   5.813116   8.712842   7.451931
                   16         17         18         19         20
    16  X    0.000000
    17  X    1.000000   0.000000
    18  H    2.517069   3.457664   0.000000
    19  X    2.309900   3.309900   1.000000   0.000000
    20  O    3.416715   4.382709   0.957200   1.384280   0.000000
    21  H    4.001444   4.901605   1.513901   2.268292   0.957200
                   21
    21  H    0.000000
 Symmetry turned off by external request.
 Stoichiometry    C6H5F4NOS
 Framework group  C1[X(C6H5F4NOS)]
 Deg. of freedom    48
 Full point group                 C1      NOp   1
 Rotational constants (GHZ):      0.9624168      0.3322709      0.2583186
 Standard basis: 6-31G(d) (6D, 7F)
 Integral buffers will be    131072 words long.
 Raffenetti 1 integral format.
 Two-electron integral symmetry is turned off.
   209 basis functions,   408 primitive gaussians,   209 cartesian basis functions
    54 alpha electrons       54 beta electrons
       nuclear repulsion energy       901.8179387665 Hartrees.
 NAtoms=   18 NActive=   18 NUniq=   18 SFac= 7.50D-01 NAtFMM=   80 NAOKFM=F Big=F
 One-electron integrals computed using PRISM.
 NBasis=   209 RedAO= T  NBF=   209
 NBsUse=   209 1.00D-06 NBFU=   209
 Harris functional with IExCor=  205 diagonalized for initial guess.
 ExpMin= 1.17D-01 ExpMax= 2.19D+04 ExpMxC= 3.30D+03 IAcc=1 IRadAn=         1 AccDes= 0.00D+00
 HarFok:  IExCor=  205 AccDes= 0.00D+00 IRadAn=         1 IDoV= 1
 ScaDFX=  1.000000  1.000000  1.000000  1.000000
 FoFCou: FMM=F IPFlag=           0 FMFlag=      100000 FMFlg1=           0
         NFxFlg=           0 DoJE=T BraDBF=F KetDBF=T FulRan=T
         Omega=  0.000000  0.000000  1.000000  0.000000  0.000000 ICntrl=     500 IOpCl=  0
         NMat0=    1 NMatS0=    1 NMatT0=    0 NMatD0=    1 NMtDS0=    0 NMtDT0=    0
         I1Cent=           4 NGrid=           0.
 Symmetry not used in FoFCou.
 Requested convergence on RMS density matrix=1.00D-08 within 128 cycles.
 Requested convergence on MAX density matrix=1.00D-06.
 Requested convergence on             energy=1.00D-06.
 No special actions if energy rises.
 Integral accuracy reduced to 1.0D-05 until final iterations.
 Initial convergence to 1.0D-05 achieved.  Increase integral accuracy.
 SCF Done:  E(RHF) =  -1154.67680012     A.U. after   15 cycles
             Convg  =    0.7374D-08             -V/T =  2.0019

 **********************************************************************

            Population analysis using the SCF density.

 **********************************************************************

 Alpha  occ. eigenvalues --  -91.91087 -26.37075 -26.36109 -26.36106 -26.34901
 Alpha  occ. eigenvalues --  -20.54156 -15.69286 -11.54455 -11.38481 -11.37915
 Alpha  occ. eigenvalues --  -11.36669 -11.31928 -11.30804  -8.92179  -6.60509
 Alpha  occ. eigenvalues --   -6.60229  -6.60107  -1.74301  -1.66160  -1.65310
 Alpha  occ. eigenvalues --   -1.64601  -1.36101  -1.32356  -1.17652  -1.12724
 Alpha  occ. eigenvalues --   -1.03470  -0.97638  -0.93189  -0.88842  -0.85507
 Alpha  occ. eigenvalues --   -0.83976  -0.83531  -0.77660  -0.76704  -0.74689
 Alpha  occ. eigenvalues --   -0.72828  -0.72343  -0.71926  -0.70857  -0.68797
 Alpha  occ. eigenvalues --   -0.67742  -0.67717  -0.66283  -0.64972  -0.63110
 Alpha  occ. eigenvalues --   -0.61325  -0.59888  -0.55351  -0.53221  -0.48018
 Alpha  occ. eigenvalues --   -0.47073  -0.43963  -0.34795  -0.31615
 Alpha virt. eigenvalues --    0.03911   0.08200   0.17211   0.22881   0.24184
 Alpha virt. eigenvalues --    0.24719   0.25975   0.25979   0.28844   0.32189
 Alpha virt. eigenvalues --    0.34717   0.36228   0.39738   0.40394   0.42147
 Alpha virt. eigenvalues --    0.42970   0.46082   0.49062   0.54058   0.54923
 Alpha virt. eigenvalues --    0.56068   0.59229   0.60689   0.63803   0.66428
 Alpha virt. eigenvalues --    0.67704   0.71431   0.72615   0.73263   0.74847
 Alpha virt. eigenvalues --    0.76720   0.77300   0.82319   0.83971   0.86871
 Alpha virt. eigenvalues --    0.88582   0.89627   0.91802   0.95167   0.99250
 Alpha virt. eigenvalues --    1.01741   1.02174   1.03038   1.04940   1.07428
 Alpha virt. eigenvalues --    1.08572   1.09465   1.12993   1.14599   1.14695
 Alpha virt. eigenvalues --    1.16453   1.17682   1.18464   1.19333   1.24158
 Alpha virt. eigenvalues --    1.28040   1.30485   1.31534   1.33084   1.33570
 Alpha virt. eigenvalues --    1.34518   1.38421   1.39202   1.41597   1.42178
 Alpha virt. eigenvalues --    1.43238   1.46356   1.50928   1.56389   1.60465
 Alpha virt. eigenvalues --    1.61551   1.62087   1.63358   1.63925   1.65041
 Alpha virt. eigenvalues --    1.65975   1.66974   1.68445   1.69306   1.70802
 Alpha virt. eigenvalues --    1.75582   1.75749   1.80268   1.83177   1.87838
 Alpha virt. eigenvalues --    1.89529   1.92210   1.93341   1.99879   2.03716
 Alpha virt. eigenvalues --    2.03865   2.05078   2.05625   2.08471   2.08501
 Alpha virt. eigenvalues --    2.09348   2.12206   2.12398   2.16861   2.19812
 Alpha virt. eigenvalues --    2.22065   2.22113   2.24116   2.28280   2.29156
 Alpha virt. eigenvalues --    2.30103   2.32267   2.33251   2.34644   2.35827
 Alpha virt. eigenvalues --    2.37234   2.38574   2.42490   2.44815   2.45033
 Alpha virt. eigenvalues --    2.46721   2.51692   2.60390   2.61273   2.64791
 Alpha virt. eigenvalues --    2.65427   2.68056   2.74714   2.82217   2.83559
 Alpha virt. eigenvalues --    2.84034   2.90914   2.92332   2.92750   2.96518
 Alpha virt. eigenvalues --    2.99950   3.07126   3.09031   3.16922   3.21712
 Alpha virt. eigenvalues --    3.29166   3.37239   3.38152   3.43597   3.44262
 Alpha virt. eigenvalues --    3.48692   3.70746   4.04122   4.36313   4.39433
 Alpha virt. eigenvalues --    4.44869   4.49511   4.60274   4.63964   4.68524
 Alpha virt. eigenvalues --    4.83641   5.02467   5.15382   5.59722   6.02321
          Condensed to atoms (all electrons):
              1          2          3          4          5          6
     1  F    9.170536   0.254787  -0.032072   0.002111  -0.000014   0.000000
     2  C    0.254787   4.593506   0.568748  -0.026865   0.000897  -0.000019
     3  C   -0.032072   0.568748   5.051772   0.360013  -0.011874   0.002204
     4  C    0.002111  -0.026865   0.360013   5.203493   0.414695  -0.045463
     5  C   -0.000014   0.000897  -0.011874   0.414695   3.547086   0.289577
     6  F    0.000000  -0.000019   0.002204  -0.045463   0.289577   9.187453
     7  F    0.000000   0.000293   0.004982  -0.055165   0.285296  -0.030793
     8  F    0.000000   0.000292   0.004976  -0.055172   0.285303  -0.030794
     9  C    0.000138  -0.023284  -0.054943   0.591132  -0.020776   0.005561
    10  N    0.001336  -0.053788  -0.021083  -0.035758   0.001215   0.000241
    11  C   -0.039471   0.383442  -0.077038  -0.001574   0.000067   0.000002
    12  S    0.003358  -0.084773   0.001704  -0.000037   0.000006   0.000000
    13  H   -0.000264  -0.017620   0.367516  -0.028708  -0.000277   0.000036
    14  H    0.000001  -0.000117   0.001830  -0.022310  -0.000144   0.005073
    15  H   -0.000018   0.003857  -0.000584   0.002345  -0.000014   0.000001
    16  H    0.009412  -0.000057   0.000036  -0.000001   0.000000   0.000000
    17  O   -0.000872   0.000031  -0.000001   0.000000   0.000000   0.000000
    18  H   -0.000027   0.000000   0.000000   0.000000   0.000000   0.000000
              7          8          9         10         11         12
     1  F    0.000000   0.000000   0.000138   0.001336  -0.039471   0.003358
     2  C    0.000293   0.000292  -0.023284  -0.053788   0.383442  -0.084773
     3  C    0.004982   0.004976  -0.054943  -0.021083  -0.077038   0.001704
     4  C   -0.055165  -0.055172   0.591132  -0.035758  -0.001574  -0.000037
     5  C    0.285296   0.285303  -0.020776   0.001215   0.000067   0.000006
     6  F   -0.030793  -0.030794   0.005561   0.000241   0.000002   0.000000
     7  F    9.200161  -0.033982   0.000540  -0.000006  -0.000002   0.000000
     8  F   -0.033982   9.200180   0.000536  -0.000006  -0.000002   0.000000
     9  C    0.000540   0.000536   4.734192   0.266251  -0.038788   0.003200
    10  N   -0.000006  -0.000006   0.266251   7.227203   0.218545  -0.102565
    11  C   -0.000002  -0.000002  -0.038788   0.218545   4.940515   0.442286
    12  S    0.000000   0.000000   0.003200  -0.102565   0.442286  15.960175
    13  H    0.000913   0.000910   0.002399  -0.000249   0.002532  -0.000055
    14  H    0.000085   0.000085   0.379406  -0.031958   0.000975  -0.000130
    15  H    0.000000   0.000000  -0.021457   0.310270  -0.018085   0.013310
    16  H    0.000000   0.000000   0.000000   0.000000   0.000030   0.000142
    17  O    0.000000   0.000000   0.000000   0.000000  -0.000002  -0.000011
    18  H    0.000000   0.000000   0.000000   0.000000   0.000000   0.000026
             13         14         15         16         17         18
     1  F   -0.000264   0.000001  -0.000018   0.009412  -0.000872  -0.000027
     2  C   -0.017620  -0.000117   0.003857  -0.000057   0.000031   0.000000
     3  C    0.367516   0.001830  -0.000584   0.000036  -0.000001   0.000000
     4  C   -0.028708  -0.022310   0.002345  -0.000001   0.000000   0.000000
     5  C   -0.000277  -0.000144  -0.000014   0.000000   0.000000   0.000000
     6  F    0.000036   0.005073   0.000001   0.000000   0.000000   0.000000
     7  F    0.000913   0.000085   0.000000   0.000000   0.000000   0.000000
     8  F    0.000910   0.000085   0.000000   0.000000   0.000000   0.000000
     9  C    0.002399   0.379406  -0.021457   0.000000   0.000000   0.000000
    10  N   -0.000249  -0.031958   0.310270   0.000000   0.000000   0.000000
    11  C    0.002532   0.000975  -0.018085   0.000030  -0.000002   0.000000
    12  S   -0.000055  -0.000130   0.013310   0.000142  -0.000011   0.000026
    13  H    0.387195  -0.000061   0.000008   0.000013   0.000000   0.000000
    14  H   -0.000061   0.378776  -0.002092   0.000000   0.000000   0.000000
    15  H    0.000008  -0.002092   0.269140   0.000000   0.000000   0.000000
    16  H    0.000013   0.000000   0.000000   0.301896   0.262663  -0.018449
    17  O    0.000000   0.000000   0.000000   0.262663   8.358897   0.266198
    18  H    0.000000   0.000000   0.000000  -0.018449   0.266198   0.319492
 Mulliken atomic charges:
              1
     1  F   -0.368941
     2  C    0.400670
     3  C   -0.166186
     4  C   -0.302734
     5  C    1.208956
     6  F   -0.383079
     7  F   -0.372321
     8  F   -0.372326
     9  C    0.175894
    10  N   -0.779648
    11  C    0.186567
    12  S   -0.236635
    13  H    0.285714
    14  H    0.290582
    15  H    0.443317
    16  H    0.444313
    17  O   -0.886903
    18  H    0.432759
 Sum of Mulliken atomic charges =   0.00000
 Mulliken charges with hydrogens summed into heavy atoms:
              1
     1  F   -0.368941
     2  C    0.400670
     3  C    0.119527
     4  C   -0.302734
     5  C    1.208956
     6  F   -0.383079
     7  F   -0.372321
     8  F   -0.372326
     9  C    0.466476
    10  N   -0.336330
    11  C    0.186567
    12  S   -0.236635
    17  O   -0.009830
 Sum of Mulliken charges with hydrogens summed into heavy atoms =   0.00000
 Electronic spatial extent (au):  <R**2>=           3959.4257
 Charge=              0.0000 electrons
 Dipole moment (field-independent basis, Debye):
    X=              3.2189    Y=             -5.0744    Z=             -0.0004  Tot=              6.0092
 Quadrupole moment (field-independent basis, Debye-Ang):
   XX=            -98.7283   YY=            -91.1666   ZZ=            -82.4919
   XY=              7.3792   XZ=             -0.0004   YZ=              0.0000
 Traceless Quadrupole moment (field-independent basis, Debye-Ang):
   XX=             -7.9327   YY=             -0.3710   ZZ=              8.3037
   XY=              7.3792   XZ=             -0.0004   YZ=              0.0000
 Octapole moment (field-independent basis, Debye-Ang**2):
  XXX=            125.2408  YYY=           -234.8745  ZZZ=             -0.0047  XYY=            104.8808
  XXY=            -22.9892  XXZ=             -0.0007  XZZ=             44.5987  YZZ=            -29.6344
  YYZ=             -0.0037  XYZ=             -0.0001
 Hexadecapole moment (field-independent basis, Debye-Ang**3):
 XXXX=          -2896.8667 YYYY=          -2119.8573 ZZZZ=           -143.3372 XXXY=            163.1156
 XXXZ=              0.0026 YYYX=            762.1586 YYYZ=             -0.0389 ZZZX=              0.0149
 ZZZY=             -0.0238 XXYY=           -855.7609 XXZZ=           -550.5578 YYZZ=           -272.8517
 XXYZ=             -0.0028 YYXZ=              0.0178 ZZXY=            113.6694
 N-N= 9.018179387665D+02 E-N=-4.541165311527D+03  KE= 1.152540468940D+03
 Calling FoFJK, ICntrl=      2127 FMM=F ISym2X=0 I1Cent= 0 IOpClX= 0 NMat=1 NMatS=1 NMatT=0.
 -------------------------------------------------------------------
 Center     Atomic                   Forces (Hartrees/Bohr)
 Number     Number              X              Y              Z
 -------------------------------------------------------------------
      1        9           0.000000000    0.000000000    0.000000000
      2        6           0.000000000    0.000000000    0.000000000
      3        6           0.000000000    0.000000000    0.000000000
      4        6           0.000000000    0.000000000    0.000000000
      5        6           0.000000000    0.000000000    0.000000000
      6        9           0.000000000    0.000000000    0.000000000
      7        9           0.000000000    0.000000000    0.000000000
      8        9           0.000000000    0.000000000    0.000000000
      9        6           0.000000000    0.000000000    0.000000000
     10        7           0.000000000    0.000000000    0.000000000
     11        6           0.000000000    0.000000000    0.000000000
     12       16           0.000000000    0.000000000    0.000000000
     13        1           0.000000000    0.000000000    0.000000000
     14        1           0.000000000    0.000000000    0.000000000
     15        1           0.000000000    0.000000000    0.000000000
     16        1          -0.005630677    0.008539107    0.000000282
     17        8          -0.004353154   -0.012854284    0.000000047
     18        1           0.009967310    0.003828795   -0.000000347
 -------------------------------------------------------------------
 Cartesian Forces:  Max     0.012854284 RMS     0.002731200
 -----------------------------------------------------------------------------------------------
                       Internal Coordinate Forces (Hartree/Bohr or radian)
  Cent   Atom   N1       Length/X         N2         Alpha/Y        N3         Beta/Z          J
 -----------------------------------------------------------------------------------------------
      1  F 
      2  C 
      3  C 
      4  C 
      5  C 
      6  F 
      7  F 
      8  F 
      9  C 
     10  N 
     11  C 
     12  S 
     13  H 
     14  H 
     15  H 
         X        1   0.000000(     1)      2   0.001408(     7)      3   0.000000(    13)     0
         X       16   0.000000(     2)      1   0.000000(     8)      2   0.000000(    14)     0
     16  H        1  -0.000394(     3)     16   0.001408(     9)     17   0.000000(    15)     0
         X       18   0.000000(     4)      1   0.000163(    10)     16   0.000000(    16)     0
     17  O       18  -0.010622(     5)     19   0.000163(    11)      1   0.000000(    17)     0
     18  H       20  -0.010673(     6)     18   0.000532(    12)     16   0.000000(    18)     0
 -----------------------------------------------------------------------------------------------
 Internal  Forces:  Max     0.010673348 RMS     0.003583988

 GradGradGradGradGradGradGradGradGradGradGradGradGradGradGradGradGradGrad
 Berny optimization.
 Search for a local minimum.
 Step number   1 out of a maximum of   20
 All quantities printed in internal units (Hartrees-Bohrs-Radians)
 Second derivative matrix not updated -- first step.
 The second derivative matrix:
                          RX       RDUM       ROH      ADUM      AHOH
           RX           0.02683
           RDUM         0.00000   0.00000
           ROH          0.00000   0.00000   1.12160
           ADUM         0.00000   0.00000   0.00000   1.64000
           AHOH         0.00000   0.00000   0.00000   0.00000   0.16000
           DDUM         0.00025   0.00000   0.00052   0.00201   0.00034
           DH1         -0.00020   0.00000  -0.00041  -0.00159  -0.00027
           DOH2         0.00005   0.00000   0.00011   0.00040   0.00007
           DH2          0.00005   0.00000   0.00011   0.00042   0.00007
                         DDUM       DH1      DOH2       DH2
           DDUM        70.43191
           DH1        -55.76054  44.15543
           DOH2        14.93422 -11.81303   3.54046
           DH2         14.67136 -11.60511   3.12119   3.06625
     Eigenvalues ---    0.026831000.000001000.000001000.000001000.00000
     Eigenvalues --- 1000.000001000.000001000.000001000.00000
 RFO step:  Lambda=-5.79237096D-06 EMin= 2.68297222D-02
 Linear search not attempted -- first point.
 Variable       Old X    -DE/DX   Delta X   Delta X   Delta X     New X
                                 (Linear)    (Quad)   (Total)
    RX        4.36508  -0.00039   0.00000  -0.01469  -0.01469   4.35039
   RDUM       1.88973   0.00000   0.00000   0.00000   0.00000   1.88973
   ROH        1.80885  -0.02130   0.00000   0.00000   0.00000   1.80885
   ADUM       1.57080   0.00314   0.00000   0.00000   0.00000   1.57080
   AHOH       1.82422   0.00053   0.00000   0.00000   0.00000   1.82422
   DDUM       0.00000   0.00000   0.00000   0.00000   0.00000   0.00000
   DH1        3.14159   0.00000   0.00000   0.00000   0.00000   3.14159
   DOH2       3.14159   0.00000   0.00000   0.00000   0.00000   3.14159
   DH2        3.14159   0.00000   0.00000   0.00000   0.00000   3.14159
         Item               Value     Threshold  Converged?
 Maximum Force            0.000394     0.000450     YES
 RMS     Force            0.000394     0.000300     NO 
 Maximum Displacement     0.014690     0.001800     NO 
 RMS     Displacement     0.004897     0.001200     NO 
 Predicted change in Energy=-2.896185D-06
 GradGradGradGradGradGradGradGradGradGradGradGradGradGradGradGradGradGrad

 ---------------------------------------------------------------------------------------------------
                            Z-MATRIX (ANGSTROMS AND DEGREES)
   CD    Cent   Atom    N1       Length/X        N2       Alpha/Y        N3        Beta/Z          J
 ---------------------------------------------------------------------------------------------------
      1      1  F       -1  -1.969300          2.053680          0.000070
      2      2  C       -1  -1.222250          0.944230          0.000030
      3      3  C       -1   0.140030          1.057400         -0.000020
      4      4  C       -1   0.927950         -0.123640         -0.000080
      5      5  C       -1   2.414660         -0.018650         -0.000010
      6      6  F       -1   3.007080         -1.234610         -0.000560
      7      7  F       -1   2.858290          0.654480         -1.086020
      8      8  F       -1   2.858270          0.653500          1.086650
      9      9  C       -1   0.306540         -1.341490         -0.000090
     10     10  N       -1  -1.054170         -1.389970         -0.000060
     11     11  C       -1  -1.930500         -0.312100          0.000000
     12     12  S       -1  -3.570980         -0.506610          0.000030
     13     13  H       -1   0.596860          2.043100         -0.000020
     14     14  H       -1   0.831760         -2.288990         -0.000150
     15     15  H       -1  -1.521480         -2.296390         -0.000090
     16         X        1   1.000000(    15)      2   90.000(    34)      3    0.000(    52)      0
     17         X       16   1.000000(    16)      1   90.000(    35)      2    0.000(    53)      0
     18     16  H        1   2.302126(    17)     16   90.000(    36)     17  180.000(    54)      0
     19         X       18   1.000000(    18)      1   90.000(    37)     16    0.000(    55)      0
     20     17  O       18   0.957200(    19)     19   90.000(    38)      1  180.000(    56)      0
     21     18  H       20   0.957200(    20)     18  104.520(    39)     16  180.000(    57)      0
 ---------------------------------------------------------------------------------------------------
                         Z-Matrix orientation:                         
 ---------------------------------------------------------------------
 Center     Atomic      Atomic             Coordinates (Angstroms)
 Number     Number       Type             X           Y           Z
 ---------------------------------------------------------------------
      1          9           0       -1.969300    2.053680    0.000070
      2          6           0       -1.222250    0.944230    0.000030
      3          6           0        0.140030    1.057400   -0.000020
      4          6           0        0.927950   -0.123640   -0.000080
      5          6           0        2.414660   -0.018650   -0.000010
      6          9           0        3.007080   -1.234610   -0.000560
      7          9           0        2.858290    0.654480   -1.086020
      8          9           0        2.858270    0.653500    1.086650
      9          6           0        0.306540   -1.341490   -0.000090
     10          7           0       -1.054170   -1.389970   -0.000060
     11          6           0       -1.930500   -0.312100    0.000000
     12         16           0       -3.570980   -0.506610    0.000030
     13          1           0        0.596860    2.043100   -0.000020
     14          1           0        0.831760   -2.288990   -0.000150
     15          1           0       -1.521480   -2.296390   -0.000090
     16         -1           0       -1.139818    2.612213    0.000045
     17         -1           0       -0.581285    1.782731    0.000015
     18          1           0       -3.255114    3.963253    0.000139
     19         -1           0       -2.425632    4.521786    0.000114
     20          8           0       -3.789742    4.757233    0.000167
     21          1           0       -4.692404    4.438746    0.000198
 ---------------------------------------------------------------------
                    Distance matrix (angstroms):
                    1          2          3          4          5
     1  F    0.000000
     2  C    1.337521   0.000000
     3  C    2.332777   1.366973   0.000000
     4  C    3.624194   2.400772   1.419744   0.000000
     5  C    4.849088   3.762214   2.516312   1.490413   0.000000
     6  F    5.964663   4.757581   3.670597   2.357337   1.352598
     7  F    5.142274   4.232525   2.954772   2.347541   1.352527
     8  F    5.142625   4.232719   2.955134   2.347566   1.352555
     9  C    4.087374   2.749857   2.404662   1.367227   2.488790
    10  N    3.563171   2.340244   2.723184   2.352104   3.730054
    11  C    2.366098   1.442215   2.482463   2.864656   4.355058
    12  S    3.020011   2.760701   4.027123   4.515201   6.005497
    13  H    2.566182   2.125247   1.086415   2.191890   2.748674
    14  H    5.167661   3.830492   3.417136   2.167485   2.767673
    15  H    4.373060   3.254406   3.742796   3.274225   4.547669
    16  X    1.000000   1.670019   2.013816   3.429367   4.422189
    17  X    1.414214   1.055424   1.022937   2.431469   3.495806
    18  H    2.302126   3.639648   4.468891   5.848138   6.928339
    19  X    2.509937   3.774524   4.310985   5.729441   6.636564
    20  O    3.259326   4.596848   5.397395   6.788191   7.829666
    21  H    3.619922   4.924795   5.897959   7.239043   8.389203
                    6          7          8          9         10
     6  F    0.000000
     7  F    2.183809   0.000000
     8  F    2.183834   2.172670   0.000000
     9  C    2.702654   3.416807   3.416477   0.000000
    10  N    4.064221   4.546034   4.545756   1.361573   0.000000
    11  C    5.023019   5.004620   5.004549   2.462517   1.389157
    12  S    6.618222   6.622926   6.622828   3.966382   2.667332
    13  H    4.068482   2.867355   2.868068   3.397019   3.809445
    14  H    2.417382   3.734964   3.734451   1.083334   2.089251
    15  H    4.651369   5.391592   5.391203   2.062399   1.019792
    16  X    5.656396   4.582262   4.582791   4.209955   4.003100
    17  X    4.688359   3.779298   3.779745   3.247921   3.207749
    18  H    8.138357   7.035725   7.036223   6.389497   5.788018
    19  X    7.915204   6.637437   6.638058   6.468599   6.068753
    20  O    9.060848   7.887250   7.887784   7.346696   6.728407
    21  H    9.563944   8.515487   8.515934   7.642026   6.871002
                   11         12         13         14         15
    11  C    0.000000
    12  S    1.651971   0.000000
    13  H    3.454637   4.885889   0.000000
    14  H    3.396789   4.749842   4.338454   0.000000
    15  H    2.026007   2.720986   4.828927   2.353252   0.000000
    16  X    3.029321   3.954442   1.827550   5.282889   4.923419
    17  X    2.491726   3.765549   1.206572   4.309943   4.186072
    18  H    4.475851   4.481009   4.304032   7.469476   6.495276
    19  X    4.859178   5.157188   3.908880   7.549654   6.877864
    20  O    5.399529   5.268387   5.158371   8.426597   7.409360
    21  H    5.495330   5.070911   5.806499   8.705103   7.444247
                   16         17         18         19         20
    16  X    0.000000
    17  X    1.000000   0.000000
    18  H    2.509937   3.450223   0.000000
    19  X    2.302126   3.302126   1.000000   0.000000
    20  O    3.409283   4.375141   0.957200   1.384280   0.000000
    21  H    3.994632   4.894458   1.513901   2.268292   0.957200
                   21
    21  H    0.000000
 Symmetry turned off by external request.
 Stoichiometry    C6H5F4NOS
 Framework group  C1[X(C6H5F4NOS)]
 Deg. of freedom    48
 Full point group                 C1      NOp   1
 Rotational constants (GHZ):      0.9633233      0.3325009      0.2585229
 Standard basis: 6-31G(d) (6D, 7F)
 Integral buffers will be    131072 words long.
 Raffenetti 1 integral format.
 Two-electron integral symmetry is turned off.
   209 basis functions,   408 primitive gaussians,   209 cartesian basis functions
    54 alpha electrons       54 beta electrons
       nuclear repulsion energy       901.9440378503 Hartrees.
 NAtoms=   18 NActive=   18 NUniq=   18 SFac= 7.50D-01 NAtFMM=   80 NAOKFM=F Big=F
 One-electron integrals computed using PRISM.
 NBasis=   209 RedAO= T  NBF=   209
 NBsUse=   209 1.00D-06 NBFU=   209
 Initial guess read from the read-write file.
 B after Tr=     0.000000    0.000000    0.000000
         Rot=    1.000000    0.000000    0.000000    0.000000 Ang=   0.00 deg.
 Requested convergence on RMS density matrix=1.00D-08 within 128 cycles.
 Requested convergence on MAX density matrix=1.00D-06.
 Requested convergence on             energy=1.00D-06.
 No special actions if energy rises.
 SCF Done:  E(RHF) =  -1154.67680564     A.U. after    7 cycles
             Convg  =    0.5982D-08             -V/T =  2.0019
 Calling FoFJK, ICntrl=      2127 FMM=F ISym2X=0 I1Cent= 0 IOpClX= 0 NMat=1 NMatS=1 NMatT=0.
 -------------------------------------------------------------------
 Center     Atomic                   Forces (Hartrees/Bohr)
 Number     Number              X              Y              Z
 -------------------------------------------------------------------
      1        9           0.000000000    0.000000000    0.000000000
      2        6           0.000000000    0.000000000    0.000000000
      3        6           0.000000000    0.000000000    0.000000000
      4        6           0.000000000    0.000000000    0.000000000
      5        6           0.000000000    0.000000000    0.000000000
      6        9           0.000000000    0.000000000    0.000000000
      7        9           0.000000000    0.000000000    0.000000000
      8        9           0.000000000    0.000000000    0.000000000
      9        6           0.000000000    0.000000000    0.000000000
     10        7           0.000000000    0.000000000    0.000000000
     11        6           0.000000000    0.000000000    0.000000000
     12       16           0.000000000    0.000000000    0.000000000
     13        1           0.000000000    0.000000000    0.000000000
     14        1           0.000000000    0.000000000    0.000000000
     15        1           0.000000000    0.000000000    0.000000000
     16        1          -0.005653243    0.008569272    0.000000283
     17        8          -0.004354342   -0.012854401    0.000000048
     18        1           0.009969535    0.003828772   -0.000000347
 -------------------------------------------------------------------
 Cartesian Forces:  Max     0.012854401 RMS     0.002734006
 -----------------------------------------------------------------------------------------------
                       Internal Coordinate Forces (Hartree/Bohr or radian)
  Cent   Atom   N1       Length/X         N2         Alpha/Y        N3         Beta/Z          J
 -----------------------------------------------------------------------------------------------
      1  F 
      2  C 
      3  C 
      4  C 
      5  C 
      6  F 
      7  F 
      8  F 
      9  C 
     10  N 
     11  C 
     12  S 
     13  H 
     14  H 
     15  H 
         X        1   0.000000(     1)      2   0.001409(     7)      3   0.000000(    13)     0
         X       16   0.000000(     2)      1   0.000000(     8)      2   0.000000(    14)     0
     16  H        1  -0.000357(     3)     16   0.001409(     9)     17   0.000000(    15)     0
         X       18   0.000000(     4)      1   0.000163(    10)     16   0.000000(    16)     0
     17  O       18  -0.010623(     5)     19   0.000163(    11)      1   0.000000(    17)     0
     18  H       20  -0.010675(     6)     18   0.000531(    12)     16   0.000000(    18)     0
 -----------------------------------------------------------------------------------------------
 Internal  Forces:  Max     0.010675438 RMS     0.003584244

 GradGradGradGradGradGradGradGradGradGradGradGradGradGradGradGradGradGrad
 Berny optimization.
 Search for a local minimum.
 Step number   2 out of a maximum of   20
 All quantities printed in internal units (Hartrees-Bohrs-Radians)
 Update second derivatives using D2CorN and points    1    2
 DE= -5.52D-06 DEPred=-2.90D-06 R= 1.91D+00
 SS=  1.41D+00  RLast= 1.47D-02 DXNew= 5.0454D-01 4.4070D-02
 Trust test= 1.91D+00 RLast= 1.47D-02 DXMaxT set to 3.00D-01
 The second derivative matrix:
                          RX       RDUM       ROH      ADUM      AHOH
           RX           0.00251
           RDUM         0.00000   0.00000
           ROH         -0.00009   0.00000   1.12160
           ADUM         0.00003   0.00000   0.00000   1.64000
           AHOH        -0.00005   0.00000   0.00000   0.00000   0.16000
           DDUM         0.00013   0.00000   0.00052   0.00201   0.00034
           DH1         -0.00010   0.00000  -0.00041  -0.00159  -0.00027
           DOH2         0.00003   0.00000   0.00011   0.00040   0.00007
           DH2          0.00003   0.00000   0.00011   0.00042   0.00007
                         DDUM       DH1      DOH2       DH2
           DDUM        70.43191
           DH1        -55.76054  44.15543
           DOH2        14.93422 -11.81303   3.54046
           DH2         14.67136 -11.60511   3.12119   3.06625
     Eigenvalues ---    0.002511000.000001000.000001000.000001000.00000
     Eigenvalues --- 1000.000001000.000001000.000001000.00000
 RFO step:  Lambda= 0.00000000D+00 EMin= 2.51396497D-03
 Quartic linear search produced a step of  2.00000.
 Variable       Old X    -DE/DX   Delta X   Delta X   Delta X     New X
                                 (Linear)    (Quad)   (Total)
    RX        4.35039  -0.00036  -0.02938   0.00000  -0.02938   4.32101
   RDUM       1.88973   0.00000   0.00000   0.00000   0.00000   1.88973
   ROH        1.80885  -0.02130   0.00000   0.00000   0.00000   1.80885
   ADUM       1.57080   0.00314   0.00000   0.00000   0.00000   1.57080
   AHOH       1.82422   0.00053   0.00000   0.00000   0.00000   1.82422
   DDUM       0.00000   0.00000   0.00000   0.00000   0.00000   0.00000
   DH1        3.14159   0.00000   0.00000   0.00000   0.00000   3.14159
   DOH2       3.14159   0.00000   0.00000   0.00000   0.00000   3.14159
   DH2        3.14159   0.00000   0.00000   0.00000   0.00000   3.14159
         Item               Value     Threshold  Converged?
 Maximum Force            0.000357     0.000450     YES
 RMS     Force            0.000357     0.000300     NO 
 Maximum Displacement     0.029380     0.001800     NO 
 RMS     Displacement     0.009793     0.001200     NO 
 Predicted change in Energy=-9.412181D-06
 GradGradGradGradGradGradGradGradGradGradGradGradGradGradGradGradGradGrad

 ---------------------------------------------------------------------------------------------------
                            Z-MATRIX (ANGSTROMS AND DEGREES)
   CD    Cent   Atom    N1       Length/X        N2       Alpha/Y        N3        Beta/Z          J
 ---------------------------------------------------------------------------------------------------
      1      1  F       -1  -1.969300          2.053680          0.000070
      2      2  C       -1  -1.222250          0.944230          0.000030
      3      3  C       -1   0.140030          1.057400         -0.000020
      4      4  C       -1   0.927950         -0.123640         -0.000080
      5      5  C       -1   2.414660         -0.018650         -0.000010
      6      6  F       -1   3.007080         -1.234610         -0.000560
      7      7  F       -1   2.858290          0.654480         -1.086020
      8      8  F       -1   2.858270          0.653500          1.086650
      9      9  C       -1   0.306540         -1.341490         -0.000090
     10     10  N       -1  -1.054170         -1.389970         -0.000060
     11     11  C       -1  -1.930500         -0.312100          0.000000
     12     12  S       -1  -3.570980         -0.506610          0.000030
     13     13  H       -1   0.596860          2.043100         -0.000020
     14     14  H       -1   0.831760         -2.288990         -0.000150
     15     15  H       -1  -1.521480         -2.296390         -0.000090
     16         X        1   1.000000(    15)      2   90.000(    34)      3    0.000(    52)      0
     17         X       16   1.000000(    16)      1   90.000(    35)      2    0.000(    53)      0
     18     16  H        1   2.286579(    17)     16   90.000(    36)     17  180.000(    54)      0
     19         X       18   1.000000(    18)      1   90.000(    37)     16    0.000(    55)      0
     20     17  O       18   0.957200(    19)     19   90.000(    38)      1  180.000(    56)      0
     21     18  H       20   0.957200(    20)     18  104.520(    39)     16  180.000(    57)      0
 ---------------------------------------------------------------------------------------------------
                         Z-Matrix orientation:                         
 ---------------------------------------------------------------------
 Center     Atomic      Atomic             Coordinates (Angstroms)
 Number     Number       Type             X           Y           Z
 ---------------------------------------------------------------------
      1          9           0       -1.969300    2.053680    0.000070
      2          6           0       -1.222250    0.944230    0.000030
      3          6           0        0.140030    1.057400   -0.000020
      4          6           0        0.927950   -0.123640   -0.000080
      5          6           0        2.414660   -0.018650   -0.000010
      6          9           0        3.007080   -1.234610   -0.000560
      7          9           0        2.858290    0.654480   -1.086020
      8          9           0        2.858270    0.653500    1.086650
      9          6           0        0.306540   -1.341490   -0.000090
     10          7           0       -1.054170   -1.389970   -0.000060
     11          6           0       -1.930500   -0.312100    0.000000
     12         16           0       -3.570980   -0.506610    0.000030
     13          1           0        0.596860    2.043100   -0.000020
     14          1           0        0.831760   -2.288990   -0.000150
     15          1           0       -1.521480   -2.296390   -0.000090
     16         -1           0       -1.139818    2.612213    0.000045
     17         -1           0       -0.581285    1.782731    0.000015
     18          1           0       -3.246430    3.950356    0.000138
     19         -1           0       -2.416948    4.508890    0.000113
     20          8           0       -3.781058    4.744337    0.000167
     21          1           0       -4.683720    4.425850    0.000198
 ---------------------------------------------------------------------
                    Distance matrix (angstroms):
                    1          2          3          4          5
     1  F    0.000000
     2  C    1.337521   0.000000
     3  C    2.332777   1.366973   0.000000
     4  C    3.624194   2.400772   1.419744   0.000000
     5  C    4.849088   3.762214   2.516312   1.490413   0.000000
     6  F    5.964663   4.757581   3.670597   2.357337   1.352598
     7  F    5.142274   4.232525   2.954772   2.347541   1.352527
     8  F    5.142625   4.232719   2.955134   2.347566   1.352555
     9  C    4.087374   2.749857   2.404662   1.367227   2.488790
    10  N    3.563171   2.340244   2.723184   2.352104   3.730054
    11  C    2.366098   1.442215   2.482463   2.864656   4.355058
    12  S    3.020011   2.760701   4.027123   4.515201   6.005497
    13  H    2.566182   2.125247   1.086415   2.191890   2.748674
    14  H    5.167661   3.830492   3.417136   2.167485   2.767673
    15  H    4.373060   3.254406   3.742796   3.274225   4.547669
    16  X    1.000000   1.670019   2.013816   3.429367   4.422189
    17  X    1.414214   1.055424   1.022937   2.431469   3.495806
    18  H    2.286579   3.624100   4.453910   5.832915   6.913823
    19  X    2.495685   3.759535   4.295453   5.713902   6.621409
    20  O    3.243779   4.581300   5.382233   6.772884   7.814920
    21  H    3.604895   4.909526   5.883453   7.224174   8.374997
                    6          7          8          9         10
     6  F    0.000000
     7  F    2.183809   0.000000
     8  F    2.183834   2.172670   0.000000
     9  C    2.702654   3.416807   3.416477   0.000000
    10  N    4.064221   4.546034   4.545756   1.361573   0.000000
    11  C    5.023019   5.004620   5.004549   2.462517   1.389157
    12  S    6.618222   6.622926   6.622828   3.966382   2.667332
    13  H    4.068482   2.867355   2.868068   3.397019   3.809445
    14  H    2.417382   3.734964   3.734451   1.083334   2.089251
    15  H    4.651369   5.391592   5.391203   2.062399   1.019792
    16  X    5.656396   4.582262   4.582791   4.209955   4.003100
    17  X    4.688359   3.779298   3.779745   3.247921   3.207749
    18  H    8.123439   7.022119   7.022616   6.373950   5.772789
    19  X    7.899865   6.623013   6.623633   6.453242   6.054231
    20  O    9.045807   7.873225   7.873758   7.331149   6.713095
    21  H    9.549304   8.502059   8.502506   7.626592   6.855464
                   11         12         13         14         15
    11  C    0.000000
    12  S    1.651971   0.000000
    13  H    3.454637   4.885889   0.000000
    14  H    3.396789   4.749842   4.338454   0.000000
    15  H    2.026007   2.720986   4.828927   2.353252   0.000000
    16  X    3.029321   3.954442   1.827550   5.282889   4.923419
    17  X    2.491726   3.765549   1.206572   4.309943   4.186072
    18  H    4.460965   4.468767   4.290514   7.453930   6.480532
    19  X    4.845469   5.146555   3.893990   7.534273   6.863942
    20  O    5.384433   5.255147   5.144205   8.411051   7.394425
    21  H    5.479816   5.056417   5.793274   8.689625   7.428881
                   16         17         18         19         20
    16  X    0.000000
    17  X    1.000000   0.000000
    18  H    2.495685   3.435346   0.000000
    19  X    2.286579   3.286579   1.000000   0.000000
    20  O    3.394422   4.360007   0.957200   1.384280   0.000000
    21  H    3.981020   4.880169   1.513901   2.268292   0.957200
                   21
    21  H    0.000000
 Symmetry turned off by external request.
 Stoichiometry    C6H5F4NOS
 Framework group  C1[X(C6H5F4NOS)]
 Deg. of freedom    48
 Full point group                 C1      NOp   1
 Rotational constants (GHZ):      0.9651432      0.3329603      0.2589317
 Standard basis: 6-31G(d) (6D, 7F)
 Integral buffers will be    131072 words long.
 Raffenetti 1 integral format.
 Two-electron integral symmetry is turned off.
   209 basis functions,   408 primitive gaussians,   209 cartesian basis functions
    54 alpha electrons       54 beta electrons
       nuclear repulsion energy       902.1974349944 Hartrees.
 NAtoms=   18 NActive=   18 NUniq=   18 SFac= 7.50D-01 NAtFMM=   80 NAOKFM=F Big=F
 One-electron integrals computed using PRISM.
 NBasis=   209 RedAO= T  NBF=   209
 NBsUse=   209 1.00D-06 NBFU=   209
 Initial guess read from the read-write file.
 B after Tr=     0.000000    0.000000    0.000000
         Rot=    1.000000    0.000000    0.000000    0.000000 Ang=   0.00 deg.
 Harris functional with IExCor=  205 diagonalized for initial guess.
 ExpMin= 1.17D-01 ExpMax= 2.19D+04 ExpMxC= 3.30D+03 IAcc=1 IRadAn=         1 AccDes= 0.00D+00
 HarFok:  IExCor=  205 AccDes= 0.00D+00 IRadAn=         1 IDoV= 1
 ScaDFX=  1.000000  1.000000  1.000000  1.000000
 FoFCou: FMM=F IPFlag=           0 FMFlag=      100000 FMFlg1=           0
         NFxFlg=           0 DoJE=T BraDBF=F KetDBF=T FulRan=T
         Omega=  0.000000  0.000000  1.000000  0.000000  0.000000 ICntrl=     500 IOpCl=  0
         NMat0=    1 NMatS0=    1 NMatT0=    0 NMatD0=    1 NMtDS0=    0 NMtDT0=    0
         I1Cent=           4 NGrid=           0.
 Symmetry not used in FoFCou.
 Requested convergence on RMS density matrix=1.00D-08 within 128 cycles.
 Requested convergence on MAX density matrix=1.00D-06.
 Requested convergence on             energy=1.00D-06.
 No special actions if energy rises.
 Integral accuracy reduced to 1.0D-05 until final iterations.
 Initial convergence to 1.0D-05 achieved.  Increase integral accuracy.
 SCF Done:  E(RHF) =  -1154.67681500     A.U. after    8 cycles
             Convg  =    0.6163D-08             -V/T =  2.0019
 Calling FoFJK, ICntrl=      2127 FMM=F ISym2X=0 I1Cent= 0 IOpClX= 0 NMat=1 NMatS=1 NMatT=0.
 -------------------------------------------------------------------
 Center     Atomic                   Forces (Hartrees/Bohr)
 Number     Number              X              Y              Z
 -------------------------------------------------------------------
      1        9           0.000000000    0.000000000    0.000000000
      2        6           0.000000000    0.000000000    0.000000000
      3        6           0.000000000    0.000000000    0.000000000
      4        6           0.000000000    0.000000000    0.000000000
      5        6           0.000000000    0.000000000    0.000000000
      6        9           0.000000000    0.000000000    0.000000000
      7        9           0.000000000    0.000000000    0.000000000
      8        9           0.000000000    0.000000000    0.000000000
      9        6           0.000000000    0.000000000    0.000000000
     10        7           0.000000000    0.000000000    0.000000000
     11        6           0.000000000    0.000000000    0.000000000
     12       16           0.000000000    0.000000000    0.000000000
     13        1           0.000000000    0.000000000    0.000000000
     14        1           0.000000000    0.000000000    0.000000000
     15        1           0.000000000    0.000000000    0.000000000
     16        1          -0.005700475    0.008632962    0.000000285
     17        8          -0.004357044   -0.012854708    0.000000048
     18        1           0.009973988    0.003828988   -0.000000347
 -------------------------------------------------------------------
 Cartesian Forces:  Max     0.012854708 RMS     0.002739939
 -----------------------------------------------------------------------------------------------
                       Internal Coordinate Forces (Hartree/Bohr or radian)
  Cent   Atom   N1       Length/X         N2         Alpha/Y        N3         Beta/Z          J
 -----------------------------------------------------------------------------------------------
      1  F 
      2  C 
      3  C 
      4  C 
      5  C 
      6  F 
      7  F 
      8  F 
      9  C 
     10  N 
     11  C 
     12  S 
     13  H 
     14  H 
     15  H 
         X        1   0.000000(     1)      2   0.001410(     7)      3   0.000000(    13)     0
         X       16   0.000000(     2)      1   0.000000(     8)      2   0.000000(    14)     0
     16  H        1  -0.000279(     3)     16   0.001410(     9)     17   0.000000(    15)     0
         X       18   0.000000(     4)      1   0.000162(    10)     16   0.000000(    16)     0
     17  O       18  -0.010624(     5)     19   0.000162(    11)      1   0.000000(    17)     0
     18  H       20  -0.010680(     6)     18   0.000529(    12)     16   0.000000(    18)     0
 -----------------------------------------------------------------------------------------------
 Internal  Forces:  Max     0.010679710 RMS     0.003584757

 GradGradGradGradGradGradGradGradGradGradGradGradGradGradGradGradGradGrad
 Berny optimization.
 Search for a local minimum.
 Step number   3 out of a maximum of   20
 All quantities printed in internal units (Hartrees-Bohrs-Radians)
 Update second derivatives using D2CorN and points    2    3
 DE= -9.36D-06 DEPred=-9.41D-06 R= 9.95D-01
 SS=  1.41D+00  RLast= 2.94D-02 DXNew= 5.0454D-01 8.8141D-02
 Trust test= 9.95D-01 RLast= 2.94D-02 DXMaxT set to 3.00D-01
 The second derivative matrix:
                          RX       RDUM       ROH      ADUM      AHOH
           RX           0.00266
           RDUM         0.00000   0.00000
           ROH         -0.00014   0.00000   1.12160
           ADUM         0.00004   0.00000   0.00000   1.64000
           AHOH        -0.00006   0.00000   0.00000   0.00000   0.16000
           DDUM         0.00006   0.00000   0.00052   0.00201   0.00034
           DH1         -0.00005   0.00000  -0.00041  -0.00159  -0.00027
           DOH2         0.00001   0.00000   0.00011   0.00040   0.00007
           DH2          0.00001   0.00000   0.00011   0.00042   0.00007
                         DDUM       DH1      DOH2       DH2
           DDUM        70.43191
           DH1        -55.76054  44.15543
           DOH2        14.93422 -11.81303   3.54046
           DH2         14.67136 -11.60511   3.12119   3.06625
     Eigenvalues ---    0.002661000.000001000.000001000.000001000.00000
     Eigenvalues --- 1000.000001000.000001000.000001000.00000
 RFO step:  Lambda= 0.00000000D+00 EMin= 2.66019774D-03
 Quartic linear search produced a step of  2.00000.
 Variable       Old X    -DE/DX   Delta X   Delta X   Delta X     New X
                                 (Linear)    (Quad)   (Total)
    RX        4.32101  -0.00028  -0.05876   0.00000  -0.05876   4.26225
   RDUM       1.88973   0.00000   0.00000   0.00000   0.00000   1.88973
   ROH        1.80885  -0.02130   0.00000   0.00000   0.00000   1.80885
   ADUM       1.57080   0.00314   0.00000   0.00000   0.00000   1.57080
   AHOH       1.82422   0.00053   0.00000   0.00000   0.00000   1.82422
   DDUM       0.00000   0.00000   0.00000   0.00000   0.00000   0.00000
   DH1        3.14159   0.00000   0.00000   0.00000   0.00000   3.14159
   DOH2       3.14159   0.00000   0.00000   0.00000   0.00000   3.14159
   DH2        3.14159   0.00000   0.00000   0.00000   0.00000   3.14159
         Item               Value     Threshold  Converged?
 Maximum Force            0.000279     0.000450     YES
 RMS     Force            0.000279     0.000300     YES
 Maximum Displacement     0.058761     0.001800     NO 
 RMS     Displacement     0.019587     0.001200     NO 
 Predicted change in Energy=-1.180926D-05
 GradGradGradGradGradGradGradGradGradGradGradGradGradGradGradGradGradGrad

 ---------------------------------------------------------------------------------------------------
                            Z-MATRIX (ANGSTROMS AND DEGREES)
   CD    Cent   Atom    N1       Length/X        N2       Alpha/Y        N3        Beta/Z          J
 ---------------------------------------------------------------------------------------------------
      1      1  F       -1  -1.969300          2.053680          0.000070
      2      2  C       -1  -1.222250          0.944230          0.000030
      3      3  C       -1   0.140030          1.057400         -0.000020
      4      4  C       -1   0.927950         -0.123640         -0.000080
      5      5  C       -1   2.414660         -0.018650         -0.000010
      6      6  F       -1   3.007080         -1.234610         -0.000560
      7      7  F       -1   2.858290          0.654480         -1.086020
      8      8  F       -1   2.858270          0.653500          1.086650
      9      9  C       -1   0.306540         -1.341490         -0.000090
     10     10  N       -1  -1.054170         -1.389970         -0.000060
     11     11  C       -1  -1.930500         -0.312100          0.000000
     12     12  S       -1  -3.570980         -0.506610          0.000030
     13     13  H       -1   0.596860          2.043100         -0.000020
     14     14  H       -1   0.831760         -2.288990         -0.000150
     15     15  H       -1  -1.521480         -2.296390         -0.000090
     16         X        1   1.000000(    15)      2   90.000(    34)      3    0.000(    52)      0
     17         X       16   1.000000(    16)      1   90.000(    35)      2    0.000(    53)      0
     18     16  H        1   2.255484(    17)     16   90.000(    36)     17  180.000(    54)      0
     19         X       18   1.000000(    18)      1   90.000(    37)     16    0.000(    55)      0
     20     17  O       18   0.957200(    19)     19   90.000(    38)      1  180.000(    56)      0
     21     18  H       20   0.957200(    20)     18  104.520(    39)     16  180.000(    57)      0
 ---------------------------------------------------------------------------------------------------
                         Z-Matrix orientation:                         
 ---------------------------------------------------------------------
 Center     Atomic      Atomic             Coordinates (Angstroms)
 Number     Number       Type             X           Y           Z
 ---------------------------------------------------------------------
      1          9           0       -1.969300    2.053680    0.000070
      2          6           0       -1.222250    0.944230    0.000030
      3          6           0        0.140030    1.057400   -0.000020
      4          6           0        0.927950   -0.123640   -0.000080
      5          6           0        2.414660   -0.018650   -0.000010
      6          9           0        3.007080   -1.234610   -0.000560
      7          9           0        2.858290    0.654480   -1.086020
      8          9           0        2.858270    0.653500    1.086650
      9          6           0        0.306540   -1.341490   -0.000090
     10          7           0       -1.054170   -1.389970   -0.000060
     11          6           0       -1.930500   -0.312100    0.000000
     12         16           0       -3.570980   -0.506610    0.000030
     13          1           0        0.596860    2.043100   -0.000020
     14          1           0        0.831760   -2.288990   -0.000150
     15          1           0       -1.521480   -2.296390   -0.000090
     16         -1           0       -1.139818    2.612213    0.000045
     17         -1           0       -0.581285    1.782731    0.000015
     18          1           0       -3.229063    3.924564    0.000137
     19         -1           0       -2.399581    4.483097    0.000112
     20          8           0       -3.763691    4.718544    0.000166
     21          1           0       -4.666352    4.400057    0.000197
 ---------------------------------------------------------------------
                    Distance matrix (angstroms):
                    1          2          3          4          5
     1  F    0.000000
     2  C    1.337521   0.000000
     3  C    2.332777   1.366973   0.000000
     4  C    3.624194   2.400772   1.419744   0.000000
     5  C    4.849088   3.762214   2.516312   1.490413   0.000000
     6  F    5.964663   4.757581   3.670597   2.357337   1.352598
     7  F    5.142274   4.232525   2.954772   2.347541   1.352527
     8  F    5.142625   4.232719   2.955134   2.347566   1.352555
     9  C    4.087374   2.749857   2.404662   1.367227   2.488790
    10  N    3.563171   2.340244   2.723184   2.352104   3.730054
    11  C    2.366098   1.442215   2.482463   2.864656   4.355058
    12  S    3.020011   2.760701   4.027123   4.515201   6.005497
    13  H    2.566182   2.125247   1.086415   2.191890   2.748674
    14  H    5.167661   3.830492   3.417136   2.167485   2.767673
    15  H    4.373060   3.254406   3.742796   3.274225   4.547669
    16  X    1.000000   1.670019   2.013816   3.429367   4.422189
    17  X    1.414214   1.055424   1.022937   2.431469   3.495806
    18  H    2.255484   3.593005   4.423959   5.802474   6.884805
    19  X    2.467227   3.729569   4.264390   5.682824   6.591103
    20  O    3.212684   4.550205   5.351917   6.742273   7.785437
    21  H    3.574853   4.878994   5.854457   7.194446   8.346599
                    6          7          8          9         10
     6  F    0.000000
     7  F    2.183809   0.000000
     8  F    2.183834   2.172670   0.000000
     9  C    2.702654   3.416807   3.416477   0.000000
    10  N    4.064221   4.546034   4.545756   1.361573   0.000000
    11  C    5.023019   5.004620   5.004549   2.462517   1.389157
    12  S    6.618222   6.622926   6.622828   3.966382   2.667332
    13  H    4.068482   2.867355   2.868068   3.397019   3.809445
    14  H    2.417382   3.734964   3.734451   1.083334   2.089251
    15  H    4.651369   5.391592   5.391203   2.062399   1.019792
    16  X    5.656396   4.582262   4.582791   4.209955   4.003100
    17  X    4.688359   3.779298   3.779745   3.247921   3.207749
    18  H    8.093612   6.994930   6.995426   6.342855   5.742337
    19  X    7.869190   6.594179   6.594799   6.422531   6.025201
    20  O    9.015730   7.845193   7.845725   7.300054   6.682473
    21  H    9.520034   8.475226   8.475672   7.595724   6.824388
                   11         12         13         14         15
    11  C    0.000000
    12  S    1.651971   0.000000
    13  H    3.454637   4.885889   0.000000
    14  H    3.396789   4.749842   4.338454   0.000000
    15  H    2.026007   2.720986   4.828927   2.353252   0.000000
    16  X    3.029321   3.954442   1.827550   5.282889   4.923419
    17  X    2.491726   3.765549   1.206572   4.309943   4.186072
    18  H    4.431206   4.444346   4.263519   7.422839   6.451055
    19  X    4.818086   5.125364   3.864226   7.503514   6.836118
    20  O    5.354248   5.228707   5.115897   8.379958   7.364565
    21  H    5.448790   5.027447   5.766858   8.658672   7.398150
                   16         17         18         19         20
    16  X    0.000000
    17  X    1.000000   0.000000
    18  H    2.467227   3.405610   0.000000
    19  X    2.255484   3.255484   1.000000   0.000000
    20  O    3.364720   4.329747   0.957200   1.384280   0.000000
    21  H    3.953838   4.851616   1.513901   2.268292   0.957200
                   21
    21  H    0.000000
 Symmetry turned off by external request.
 Stoichiometry    C6H5F4NOS
 Framework group  C1[X(C6H5F4NOS)]
 Deg. of freedom    48
 Full point group                 C1      NOp   1
 Rotational constants (GHZ):      0.9688108      0.3338768      0.2597500
 Standard basis: 6-31G(d) (6D, 7F)
 Integral buffers will be    131072 words long.
 Raffenetti 1 integral format.
 Two-electron integral symmetry is turned off.
   209 basis functions,   408 primitive gaussians,   209 cartesian basis functions
    54 alpha electrons       54 beta electrons
       nuclear repulsion energy       902.7090879311 Hartrees.
 NAtoms=   18 NActive=   18 NUniq=   18 SFac= 7.50D-01 NAtFMM=   80 NAOKFM=F Big=F
 One-electron integrals computed using PRISM.
 NBasis=   209 RedAO= T  NBF=   209
 NBsUse=   209 1.00D-06 NBFU=   209
 Initial guess read from the read-write file.
 B after Tr=     0.000000    0.000000    0.000000
         Rot=    1.000000    0.000000    0.000000    0.000000 Ang=   0.00 deg.
 Harris functional with IExCor=  205 diagonalized for initial guess.
 ExpMin= 1.17D-01 ExpMax= 2.19D+04 ExpMxC= 3.30D+03 IAcc=1 IRadAn=         1 AccDes= 0.00D+00
 HarFok:  IExCor=  205 AccDes= 0.00D+00 IRadAn=         1 IDoV= 1
 ScaDFX=  1.000000  1.000000  1.000000  1.000000
 FoFCou: FMM=F IPFlag=           0 FMFlag=      100000 FMFlg1=           0
         NFxFlg=           0 DoJE=T BraDBF=F KetDBF=T FulRan=T
         Omega=  0.000000  0.000000  1.000000  0.000000  0.000000 ICntrl=     500 IOpCl=  0
         NMat0=    1 NMatS0=    1 NMatT0=    0 NMatD0=    1 NMtDS0=    0 NMtDT0=    0
         I1Cent=           4 NGrid=           0.
 Symmetry not used in FoFCou.
 Requested convergence on RMS density matrix=1.00D-08 within 128 cycles.
 Requested convergence on MAX density matrix=1.00D-06.
 Requested convergence on             energy=1.00D-06.
 No special actions if energy rises.
 Integral accuracy reduced to 1.0D-05 until final iterations.
 Initial convergence to 1.0D-05 achieved.  Increase integral accuracy.
 SCF Done:  E(RHF) =  -1154.67682639     A.U. after    9 cycles
             Convg  =    0.6893D-08             -V/T =  2.0019
 Calling FoFJK, ICntrl=      2127 FMM=F ISym2X=0 I1Cent= 0 IOpClX= 0 NMat=1 NMatS=1 NMatT=0.
 -------------------------------------------------------------------
 Center     Atomic                   Forces (Hartrees/Bohr)
 Number     Number              X              Y              Z
 -------------------------------------------------------------------
      1        9           0.000000000    0.000000000    0.000000000
      2        6           0.000000000    0.000000000    0.000000000
      3        6           0.000000000    0.000000000    0.000000000
      4        6           0.000000000    0.000000000    0.000000000
      5        6           0.000000000    0.000000000    0.000000000
      6        9           0.000000000    0.000000000    0.000000000
      7        9           0.000000000    0.000000000    0.000000000
      8        9           0.000000000    0.000000000    0.000000000
      9        6           0.000000000    0.000000000    0.000000000
     10        7           0.000000000    0.000000000    0.000000000
     11        6           0.000000000    0.000000000    0.000000000
     12       16           0.000000000    0.000000000    0.000000000
     13        1           0.000000000    0.000000000    0.000000000
     14        1           0.000000000    0.000000000    0.000000000
     15        1           0.000000000    0.000000000    0.000000000
     16        1          -0.005804090    0.008774923    0.000000290
     17        8          -0.004363889   -0.012855600    0.000000049
     18        1           0.009982951    0.003830521   -0.000000348
 -------------------------------------------------------------------
 Cartesian Forces:  Max     0.012855600 RMS     0.002753210
 -----------------------------------------------------------------------------------------------
                       Internal Coordinate Forces (Hartree/Bohr or radian)
  Cent   Atom   N1       Length/X         N2         Alpha/Y        N3         Beta/Z          J
 -----------------------------------------------------------------------------------------------
      1  F 
      2  C 
      3  C 
      4  C 
      5  C 
      6  F 
      7  F 
      8  F 
      9  C 
     10  N 
     11  C 
     12  S 
     13  H 
     14  H 
     15  H 
         X        1   0.000000(     1)      2   0.001411(     7)      3   0.000000(    13)     0
         X       16   0.000000(     2)      1   0.000000(     8)      2   0.000000(    14)     0
     16  H        1  -0.000104(     3)     16   0.001411(     9)     17   0.000000(    15)     0
         X       18   0.000000(     4)      1   0.000161(    10)     16   0.000000(    16)     0
     17  O       18  -0.010625(     5)     19   0.000161(    11)      1   0.000000(    17)     0
     18  H       20  -0.010689(     6)     18   0.000526(    12)     16   0.000000(    18)     0
 -----------------------------------------------------------------------------------------------
 Internal  Forces:  Max     0.010688673 RMS     0.003585860

 GradGradGradGradGradGradGradGradGradGradGradGradGradGradGradGradGradGrad
 Berny optimization.
 Search for a local minimum.
 Step number   4 out of a maximum of   20
 All quantities printed in internal units (Hartrees-Bohrs-Radians)
 Update second derivatives using D2CorN and points    3    4
 DE= -1.14D-05 DEPred=-1.18D-05 R= 9.64D-01
 SS=  1.41D+00  RLast= 5.88D-02 DXNew= 5.0454D-01 1.7628D-01
 Trust test= 9.64D-01 RLast= 5.88D-02 DXMaxT set to 3.00D-01
 The second derivative matrix:
                          RX       RDUM       ROH      ADUM      AHOH
           RX           0.00298
           RDUM         0.00000   0.00000
           ROH         -0.00015   0.00000   1.12160
           ADUM         0.00002   0.00000   0.00000   1.64000
           AHOH        -0.00006   0.00000   0.00000   0.00000   0.16000
           DDUM         0.00003   0.00000   0.00052   0.00201   0.00034
           DH1         -0.00002   0.00000  -0.00041  -0.00159  -0.00027
           DOH2         0.00001   0.00000   0.00011   0.00040   0.00007
           DH2          0.00001   0.00000   0.00011   0.00042   0.00007
                         DDUM       DH1      DOH2       DH2
           DDUM        70.43191
           DH1        -55.76054  44.15543
           DOH2        14.93422 -11.81303   3.54046
           DH2         14.67136 -11.60511   3.12119   3.06625
     Eigenvalues ---    0.002981000.000001000.000001000.000001000.00000
     Eigenvalues --- 1000.000001000.000001000.000001000.00000
 RFO step:  Lambda= 0.00000000D+00 EMin= 2.97774728D-03
 Quartic linear search produced a step of  0.53288.
 Variable       Old X    -DE/DX   Delta X   Delta X   Delta X     New X
                                 (Linear)    (Quad)   (Total)
    RX        4.26225  -0.00010  -0.03131   0.00000  -0.03131   4.23094
   RDUM       1.88973   0.00000   0.00000   0.00000   0.00000   1.88973
   ROH        1.80885  -0.02131   0.00000   0.00000   0.00000   1.80885
   ADUM       1.57080   0.00314   0.00000   0.00000   0.00000   1.57080
   AHOH       1.82422   0.00053   0.00000   0.00000   0.00000   1.82422
   DDUM       0.00000   0.00000   0.00000   0.00000   0.00000   0.00000
   DH1        3.14159   0.00000   0.00000   0.00000   0.00000   3.14159
   DOH2       3.14159   0.00000   0.00000   0.00000   0.00000   3.14159
   DH2        3.14159   0.00000   0.00000   0.00000   0.00000   3.14159
         Item               Value     Threshold  Converged?
 Maximum Force            0.000104     0.000450     YES
 RMS     Force            0.000104     0.000300     YES
 Maximum Displacement     0.031312     0.001800     NO 
 RMS     Displacement     0.010437     0.001200     NO 
 Predicted change in Energy=-1.801570D-06
 GradGradGradGradGradGradGradGradGradGradGradGradGradGradGradGradGradGrad

 ---------------------------------------------------------------------------------------------------
                            Z-MATRIX (ANGSTROMS AND DEGREES)
   CD    Cent   Atom    N1       Length/X        N2       Alpha/Y        N3        Beta/Z          J
 ---------------------------------------------------------------------------------------------------
      1      1  F       -1  -1.969300          2.053680          0.000070
      2      2  C       -1  -1.222250          0.944230          0.000030
      3      3  C       -1   0.140030          1.057400         -0.000020
      4      4  C       -1   0.927950         -0.123640         -0.000080
      5      5  C       -1   2.414660         -0.018650         -0.000010
      6      6  F       -1   3.007080         -1.234610         -0.000560
      7      7  F       -1   2.858290          0.654480         -1.086020
      8      8  F       -1   2.858270          0.653500          1.086650
      9      9  C       -1   0.306540         -1.341490         -0.000090
     10     10  N       -1  -1.054170         -1.389970         -0.000060
     11     11  C       -1  -1.930500         -0.312100          0.000000
[...]
 !       DH1       180.0      -DE/DX =    0.0                           !
 !      DOH2       180.0      -DE/DX =    0.0                           !
 !       DH2       180.0      -DE/DX =    0.0                           !
 ------------------------------------------------------------------------
 GradGradGradGradGradGradGradGradGradGradGradGradGradGradGradGradGradGrad

 ---------------------------------------------------------------------------------------------------
                            Z-MATRIX (ANGSTROMS AND DEGREES)
   CD    Cent   Atom    N1       Length/X        N2       Alpha/Y        N3        Beta/Z          J
 ---------------------------------------------------------------------------------------------------
      1      1  F       -1  -1.969300          2.053680          0.000070
      2      2  C       -1  -1.222250          0.944230          0.000030
      3      3  C       -1   0.140030          1.057400         -0.000020
      4      4  C       -1   0.927950         -0.123640         -0.000080
      5      5  C       -1   2.414660         -0.018650         -0.000010
      6      6  F       -1   3.007080         -1.234610         -0.000560
      7      7  F       -1   2.858290          0.654480         -1.086020
      8      8  F       -1   2.858270          0.653500          1.086650
      9      9  C       -1   0.306540         -1.341490         -0.000090
     10     10  N       -1  -1.054170         -1.389970         -0.000060
     11     11  C       -1  -1.930500         -0.312100          0.000000
     12     12  S       -1  -3.570980         -0.506610          0.000030
     13     13  H       -1   0.596860          2.043100         -0.000020
     14     14  H       -1   0.831760         -2.288990         -0.000150
     15     15  H       -1  -1.521480         -2.296390         -0.000090
     16         X        1   1.000000(    15)      2   90.000(    34)      3    0.000(    52)      0
     17         X       16   1.000000(    16)      1   90.000(    35)      2    0.000(    53)      0
     18     16  H        1   2.238914(    17)     16   90.000(    36)     17  180.000(    54)      0
     19         X       18   1.000000(    18)      1   90.000(    37)     16    0.000(    55)      0
     20     17  O       18   0.957200(    19)     19   90.000(    38)      1  180.000(    56)      0
     21     18  H       20   0.957200(    20)     18  104.520(    39)     16  180.000(    57)      0
 ---------------------------------------------------------------------------------------------------
                         Z-Matrix orientation:                         
 ---------------------------------------------------------------------
 Center     Atomic      Atomic             Coordinates (Angstroms)
 Number     Number       Type             X           Y           Z
 ---------------------------------------------------------------------
      1          9           0       -1.969300    2.053680    0.000070
      2          6           0       -1.222250    0.944230    0.000030
      3          6           0        0.140030    1.057400   -0.000020
      4          6           0        0.927950   -0.123640   -0.000080
      5          6           0        2.414660   -0.018650   -0.000010
      6          9           0        3.007080   -1.234610   -0.000560
      7          9           0        2.858290    0.654480   -1.086020
      8          9           0        2.858270    0.653500    1.086650
      9          6           0        0.306540   -1.341490   -0.000090
     10          7           0       -1.054170   -1.389970   -0.000060
     11          6           0       -1.930500   -0.312100    0.000000
     12         16           0       -3.570980   -0.506610    0.000030
     13          1           0        0.596860    2.043100   -0.000020
     14          1           0        0.831760   -2.288990   -0.000150
     15          1           0       -1.521480   -2.296390   -0.000090
     16         -1           0       -1.139818    2.612213    0.000045
     17         -1           0       -0.581285    1.782731    0.000015
     18          1           0       -3.219808    3.910820    0.000137
     19         -1           0       -2.390326    4.469353    0.000112
     20          8           0       -3.754436    4.704800    0.000166
     21          1           0       -4.657098    4.386313    0.000196
 ---------------------------------------------------------------------
                    Distance matrix (angstroms):
                    1          2          3          4          5
     1  F    0.000000
     2  C    1.337521   0.000000
     3  C    2.332777   1.366973   0.000000
     4  C    3.624194   2.400772   1.419744   0.000000
     5  C    4.849088   3.762214   2.516312   1.490413   0.000000
     6  F    5.964663   4.757581   3.670597   2.357337   1.352598
     7  F    5.142274   4.232525   2.954772   2.347541   1.352527
     8  F    5.142625   4.232719   2.955134   2.347566   1.352555
     9  C    4.087374   2.749857   2.404662   1.367227   2.488790
    10  N    3.563171   2.340244   2.723184   2.352104   3.730054
    11  C    2.366098   1.442215   2.482463   2.864656   4.355058
    12  S    3.020011   2.760701   4.027123   4.515201   6.005497
    13  H    2.566182   2.125247   1.086415   2.191890   2.748674
    14  H    5.167661   3.830492   3.417136   2.167485   2.767673
    15  H    4.373060   3.254406   3.742796   3.274225   4.547669
    16  X    1.000000   1.670019   2.013816   3.429367   4.422189
    17  X    1.414214   1.055424   1.022937   2.431469   3.495806
    18  H    2.238914   3.576436   4.408006   5.786256   6.869349
    19  X    2.452088   3.713609   4.247837   5.666263   6.574957
    20  O    3.196114   4.533636   5.335765   6.725962   7.769731
    21  H    3.558853   4.862727   5.839015   7.178609   8.331474
                    6          7          8          9         10
     6  F    0.000000
     7  F    2.183809   0.000000
     8  F    2.183834   2.172670   0.000000
     9  C    2.702654   3.416807   3.416477   0.000000
    10  N    4.064221   4.546034   4.545756   1.361573   0.000000
    11  C    5.023019   5.004620   5.004549   2.462517   1.389157
    12  S    6.618222   6.622926   6.622828   3.966382   2.667332
    13  H    4.068482   2.867355   2.868068   3.397019   3.809445
    14  H    2.417382   3.734964   3.734451   1.083334   2.089251
    15  H    4.651369   5.391592   5.391203   2.062399   1.019792
    16  X    5.656396   4.582262   4.582791   4.209955   4.003100
    17  X    4.688359   3.779298   3.779745   3.247921   3.207749
    18  H    8.077721   6.980456   6.980951   6.326285   5.726112
    19  X    7.852845   6.578822   6.579442   6.406167   6.009740
    20  O    8.999705   7.830264   7.830796   7.283485   6.666158
    21  H    9.504441   8.460939   8.461384   7.579276   6.807829
                   11         12         13         14         15
    11  C    0.000000
    12  S    1.651971   0.000000
    13  H    3.454637   4.885889   0.000000
    14  H    3.396789   4.749842   4.338454   0.000000
    15  H    2.026007   2.720986   4.828927   2.353252   0.000000
    16  X    3.029321   3.954442   1.827550   5.282889   4.923419
    17  X    2.491726   3.765549   1.206572   4.309943   4.186072
    18  H    4.415356   4.431366   4.249157   7.406270   6.435353
    19  X    4.803512   5.114113   3.848374   7.487125   6.821303
    20  O    5.338167   5.214638   5.100826   8.363390   7.348657
    21  H    5.432257   5.012020   5.752801   8.642177   7.381776
                   16         17         18         19         20
    16  X    0.000000
    17  X    1.000000   0.000000
    18  H    2.452088   3.389774   0.000000
    19  X    2.238914   3.238914   1.000000   0.000000
    20  O    3.348902   4.313627   0.957200   1.384280   0.000000
    21  H    3.939376   4.836413   1.513901   2.268292   0.957200
                   21
    21  H    0.000000
 Symmetry turned off by external request.
 Stoichiometry    C6H5F4NOS
 Framework group  C1[X(C6H5F4NOS)]
 Deg. of freedom    48
 Full point group                 C1      NOp   1
 Rotational constants (GHZ):      0.9707804      0.3343639      0.2601864

 **********************************************************************

            Population analysis using the SCF density.

 **********************************************************************

 Alpha  occ. eigenvalues --  -91.91112 -26.37089 -26.36121 -26.36119 -26.34988
 Alpha  occ. eigenvalues --  -20.54053 -15.69310 -11.54470 -11.38510 -11.37954
 Alpha  occ. eigenvalues --  -11.36695 -11.31963 -11.30826  -8.92204  -6.60534
 Alpha  occ. eigenvalues --   -6.60254  -6.60133  -1.74314  -1.66254  -1.65323
 Alpha  occ. eigenvalues --   -1.64613  -1.36126  -1.32268  -1.17678  -1.12758
 Alpha  occ. eigenvalues --   -1.03494  -0.97660  -0.93223  -0.88872  -0.85554
 Alpha  occ. eigenvalues --   -0.83992  -0.83544  -0.77699  -0.76768  -0.74745
 Alpha  occ. eigenvalues --   -0.72901  -0.72367  -0.71949  -0.70891  -0.68683
 Alpha  occ. eigenvalues --   -0.67755  -0.67730  -0.66295  -0.65030  -0.63138
 Alpha  occ. eigenvalues --   -0.61354  -0.59915  -0.55259  -0.53248  -0.47928
 Alpha  occ. eigenvalues --   -0.47098  -0.43997  -0.34822  -0.31642
 Alpha virt. eigenvalues --    0.03886   0.08174   0.17190   0.23007   0.24191
 Alpha virt. eigenvalues --    0.24698   0.25946   0.25959   0.28862   0.32232
 Alpha virt. eigenvalues --    0.34710   0.36530   0.39891   0.40378   0.42136
 Alpha virt. eigenvalues --    0.43016   0.46070   0.49043   0.54082   0.54898
 Alpha virt. eigenvalues --    0.56047   0.59201   0.60674   0.63776   0.66409
 Alpha virt. eigenvalues --    0.67690   0.71410   0.72590   0.73242   0.74818
 Alpha virt. eigenvalues --    0.76697   0.77272   0.82288   0.83948   0.86842
 Alpha virt. eigenvalues --    0.88554   0.89617   0.91781   0.95164   0.99227
 Alpha virt. eigenvalues --    1.01744   1.02147   1.03217   1.05005   1.07461
 Alpha virt. eigenvalues --    1.08546   1.09556   1.12995   1.14572   1.14763
 Alpha virt. eigenvalues --    1.16560   1.17668   1.18539   1.19473   1.24157
 Alpha virt. eigenvalues --    1.28092   1.30606   1.31522   1.33067   1.33589
 Alpha virt. eigenvalues --    1.34504   1.38572   1.39475   1.41570   1.42165
 Alpha virt. eigenvalues --    1.43309   1.46343   1.50868   1.56619   1.60452
 Alpha virt. eigenvalues --    1.61538   1.62132   1.63339   1.63901   1.65028
 Alpha virt. eigenvalues --    1.65941   1.66943   1.68380   1.69324   1.70751
 Alpha virt. eigenvalues --    1.75554   1.75735   1.80325   1.84164   1.88943
 Alpha virt. eigenvalues --    1.89512   1.92194   1.93415   1.99861   2.03721
 Alpha virt. eigenvalues --    2.03952   2.05161   2.05607   2.08389   2.08584
 Alpha virt. eigenvalues --    2.09332   2.12194   2.12385   2.16795   2.19824
 Alpha virt. eigenvalues --    2.22038   2.22081   2.24090   2.28266   2.29129
 Alpha virt. eigenvalues --    2.30079   2.32246   2.33230   2.34629   2.35813
 Alpha virt. eigenvalues --    2.37199   2.38543   2.42435   2.44797   2.45004
 Alpha virt. eigenvalues --    2.46699   2.51666   2.60362   2.61240   2.64768
 Alpha virt. eigenvalues --    2.66051   2.68039   2.74683   2.82190   2.83501
 Alpha virt. eigenvalues --    2.84011   2.90893   2.92301   2.92722   2.96714
 Alpha virt. eigenvalues --    2.99930   3.07111   3.09006   3.16903   3.21697
 Alpha virt. eigenvalues --    3.29145   3.37226   3.38136   3.43666   3.44248
 Alpha virt. eigenvalues --    3.48657   3.70732   4.04916   4.36325   4.39415
 Alpha virt. eigenvalues --    4.44865   4.49698   4.60350   4.63970   4.68512
 Alpha virt. eigenvalues --    4.83912   5.02697   5.15387   5.60366   6.02501
          Condensed to atoms (all electrons):
              1          2          3          4          5          6
     1  F    9.170778   0.253579  -0.031886   0.002098  -0.000014   0.000000
     2  C    0.253579   4.594750   0.568842  -0.026940   0.000903  -0.000019
     3  C   -0.031886   0.568842   5.050684   0.360389  -0.011875   0.002205
     4  C    0.002098  -0.026940   0.360389   5.203341   0.414660  -0.045461
     5  C   -0.000014   0.000903  -0.011875   0.414660   3.546977   0.289593
     6  F    0.000000  -0.000019   0.002205  -0.045461   0.289593   9.187407
     7  F    0.000000   0.000293   0.004981  -0.055165   0.285324  -0.030795
     8  F    0.000000   0.000292   0.004975  -0.055172   0.285331  -0.030795
     9  C    0.000139  -0.023301  -0.054930   0.591089  -0.020775   0.005563
    10  N    0.001330  -0.053890  -0.021049  -0.035775   0.001216   0.000241
    11  C   -0.039301   0.383670  -0.077017  -0.001551   0.000066   0.000002
    12  S    0.003345  -0.084856   0.001699  -0.000035   0.000006   0.000000
    13  H   -0.000263  -0.017597   0.367430  -0.028630  -0.000278   0.000036
    14  H    0.000001  -0.000118   0.001832  -0.022305  -0.000144   0.005075
    15  H   -0.000018   0.003861  -0.000585   0.002346  -0.000014   0.000001
    16  H    0.010652  -0.000067   0.000045  -0.000001   0.000000   0.000000
    17  O   -0.001129   0.000041  -0.000002   0.000000   0.000000   0.000000
    18  H   -0.000027   0.000000   0.000000   0.000000   0.000000   0.000000
              7          8          9         10         11         12
     1  F    0.000000   0.000000   0.000139   0.001330  -0.039301   0.003345
     2  C    0.000293   0.000292  -0.023301  -0.053890   0.383670  -0.084856
     3  C    0.004981   0.004975  -0.054930  -0.021049  -0.077017   0.001699
     4  C   -0.055165  -0.055172   0.591089  -0.035775  -0.001551  -0.000035
     5  C    0.285324   0.285331  -0.020775   0.001216   0.000066   0.000006
     6  F   -0.030795  -0.030795   0.005563   0.000241   0.000002   0.000000
     7  F    9.200094  -0.033983   0.000541  -0.000006  -0.000002   0.000000
     8  F   -0.033983   9.200113   0.000537  -0.000006  -0.000002   0.000000
     9  C    0.000541   0.000537   4.733977   0.266307  -0.038785   0.003192
    10  N   -0.000006  -0.000006   0.266307   7.226953   0.218781  -0.102482
    11  C   -0.000002  -0.000002  -0.038785   0.218781   4.939670   0.442292
    12  S    0.000000   0.000000   0.003192  -0.102482   0.442292  15.959939
    13  H    0.000914   0.000910   0.002395  -0.000248   0.002523  -0.000055
    14  H    0.000085   0.000085   0.379378  -0.031948   0.000977  -0.000130
    15  H    0.000000   0.000000  -0.021452   0.310283  -0.018096   0.013292
    16  H    0.000000   0.000000   0.000000   0.000000   0.000037   0.000159
    17  O    0.000000   0.000000   0.000000   0.000000  -0.000003  -0.000013
    18  H    0.000000   0.000000   0.000000   0.000000   0.000000   0.000034
             13         14         15         16         17         18
     1  F   -0.000263   0.000001  -0.000018   0.010652  -0.001129  -0.000027
     2  C   -0.017597  -0.000118   0.003861  -0.000067   0.000041   0.000000
     3  C    0.367430   0.001832  -0.000585   0.000045  -0.000002   0.000000
     4  C   -0.028630  -0.022305   0.002346  -0.000001   0.000000   0.000000
     5  C   -0.000278  -0.000144  -0.000014   0.000000   0.000000   0.000000
     6  F    0.000036   0.005075   0.000001   0.000000   0.000000   0.000000
     7  F    0.000914   0.000085   0.000000   0.000000   0.000000   0.000000
     8  F    0.000910   0.000085   0.000000   0.000000   0.000000   0.000000
     9  C    0.002395   0.379378  -0.021452   0.000000   0.000000   0.000000
    10  N   -0.000248  -0.031948   0.310283   0.000000   0.000000   0.000000
    11  C    0.002523   0.000977  -0.018096   0.000037  -0.000003   0.000000
    12  S   -0.000055  -0.000130   0.013292   0.000159  -0.000013   0.000034
    13  H    0.386843  -0.000061   0.000008   0.000015  -0.000001   0.000000
    14  H   -0.000061   0.378657  -0.002091   0.000000   0.000000   0.000000
    15  H    0.000008  -0.002091   0.269063   0.000000   0.000000   0.000000
    16  H    0.000015   0.000000   0.000000   0.299031   0.262317  -0.018377
    17  O   -0.000001   0.000000   0.000000   0.262317   8.362191   0.266244
    18  H    0.000000   0.000000   0.000000  -0.018377   0.266244   0.319663
 Mulliken atomic charges:
              1
     1  F   -0.369284
     2  C    0.400557
     3  C   -0.165738
     4  C   -0.302888
     5  C    1.209026
     6  F   -0.383052
     7  F   -0.372281
     8  F   -0.372286
     9  C    0.176125
    10  N   -0.779709
    11  C    0.186739
    12  S   -0.236387
    13  H    0.286059
    14  H    0.290709
    15  H    0.443401
    16  H    0.446191
    17  O   -0.889645
    18  H    0.432463
 Sum of Mulliken atomic charges =   0.00000
 Mulliken charges with hydrogens summed into heavy atoms:
              1
     1  F   -0.369284
     2  C    0.400557
     3  C    0.120321
     4  C   -0.302888
     5  C    1.209026
     6  F   -0.383052
     7  F   -0.372281
     8  F   -0.372286
     9  C    0.466834
    10  N   -0.336308
    11  C    0.186739
    12  S   -0.236387
    17  O   -0.010991
 Sum of Mulliken charges with hydrogens summed into heavy atoms =   0.00000
 Electronic spatial extent (au):  <R**2>=           3929.1491
 Charge=              0.0000 electrons
 Dipole moment (field-independent basis, Debye):
    X=              3.2378    Y=             -5.0989    Z=             -0.0004  Tot=              6.0400
 Quadrupole moment (field-independent basis, Debye-Ang):
   XX=            -98.8335   YY=            -91.0066   ZZ=            -82.4885
   XY=              7.4311   XZ=             -0.0004   YZ=              0.0000
 Traceless Quadrupole moment (field-independent basis, Debye-Ang):
   XX=             -8.0573   YY=             -0.2304   ZZ=              8.2877
   XY=              7.4311   XZ=             -0.0004   YZ=              0.0000
 Octapole moment (field-independent basis, Debye-Ang**2):
  XXX=            125.6055  YYY=           -230.8903  ZZZ=             -0.0047  XYY=            103.7637
  XXY=            -23.0657  XXZ=             -0.0008  XZZ=             44.3162  YZZ=            -29.2148
  YYZ=             -0.0037  XYZ=             -0.0001
 Hexadecapole moment (field-independent basis, Debye-Ang**3):
 XXXX=          -2894.8703 YYYY=          -2070.7245 ZZZZ=           -143.3286 XXXY=            160.7502
 XXXZ=              0.0027 YYYX=            741.7488 YYYZ=             -0.0379 ZZZX=              0.0146
 ZZZY=             -0.0234 XXYY=           -848.4058 XXZZ=           -548.3756 YYZZ=           -268.8890
 XXYZ=             -0.0029 YYXZ=              0.0176 ZZXY=            110.7434
 N-N= 9.029844231459D+02 E-N=-4.543479166771D+03  KE= 1.152541100538D+03
 1\1\GINC-B1\FOpt\RHF\6-31G(d)\C6H5F4N1O1S1\ANA\24-Sep-2021\1\\#HF/6-31
 G* Opt=Z-matrix NoSymm\\water interaction with atom F1\\0,1\F,-1,-1.96
 93,2.05368,0.00007\C,-1,-1.22225,0.94423,0.00003\C,-1,0.14003,1.0574,-
 0.00002\C,-1,0.92795,-0.12364,-0.00008\C,-1,2.41466,-0.01865,-0.00001\
 F,-1,3.00708,-1.23461,-0.00056\F,-1,2.85829,0.65448,-1.08602\F,-1,2.85
 827,0.6535,1.08665\C,-1,0.30654,-1.34149,-0.00009\N,-1,-1.05417,-1.389
 97,-0.00006\C,-1,-1.9305,-0.3121,0.\S,-1,-3.57098,-0.50661,0.00003\H,-
 1,0.59686,2.0431,-0.00002\H,-1,0.83176,-2.28899,-0.00015\H,-1,-1.52148
 ,-2.29639,-0.00009\X,1,RDUM,2,ADUM,3,DDUM,0\X,16,RDUM,1,ADUM,2,DDUM,0\
 H,1,RX,16,ADUM,17,DH1,0\X,18,RDUM,1,ADUM,16,DDUM,0\O,18,ROH,19,ADUM,1,
 DOH2,0\H,20,ROH,18,AHOH,16,DH2,0\\RX=2.2389144\RDUM=1.\ROH=0.9572\ADUM
 =90.\AHOH=104.52\DDUM=0.\DH1=180.\DOH2=180.\DH2=180.\\Version=EM64L-G0
 9RevA.01\HF=-1154.676828\RMSD=6.968e-09\RMSF=2.761e-03\Dipole=1.273857
 2,-2.0060453,-0.0001667\Quadrupole=-5.9903916,-0.1713077,6.1616994,5.5
 248331,-0.0002861,0.0000025\PG=C01 [X(C6H5F4N1O1S1)]\\@


 SOME PEOPLE TRY TO PULL THE WOOL OVER YOUR EYES
 USING THE WRONG YARN.
 Job cpu time:  0 days  0 hours  4 minutes 14.3 seconds.
 File lengths (MBytes):  RWF=     33 Int=      0 D2E=      0 Chk=      3 Scr=      1
 Normal termination of Gaussian 09 at Fri Sep 24 08:01:25 2021.
