 Entering Gaussian System, Link 0=g09
 Initial command:
 /home/ana/programs/g09/l1.exe /home/ana/programs/g09/scratch/Gau-698554.inp -scrdir=/home/ana/programs/g09/scratch/
 Entering Link 1 = /home/ana/programs/g09/l1.exe PID=    698556.
  
 Copyright (c) 1988,1990,1992,1993,1995,1998,2003,2009, Gaussian, Inc.
                  All Rights Reserved.
  
 This is part of the Gaussian(R) 09 program.  It is based on
 the Gaussian(R) 03 system (copyright 2003, Gaussian, Inc.),
 the Gaussian(R) 98 system (copyright 1998, Gaussian, Inc.),
 the Gaussian(R) 94 system (copyright 1995, Gaussian, Inc.),
 the Gaussian 92(TM) system (copyright 1992, Gaussian, Inc.),
 the Gaussian 90(TM) system (copyright 1990, Gaussian, Inc.),
 the Gaussian 88(TM) system (copyright 1988, Gaussian, Inc.),
 the Gaussian 86(TM) system (copyright 1986, Carnegie Mellon
 University), and the Gaussian 82(TM) system (copyright 1983,
 Carnegie Mellon University). Gaussian is a federally registered
 trademark of Gaussian, Inc.
  
 This software contains proprietary and confidential information,
 including trade secrets, belonging to Gaussian, Inc.
  
 This software is provided under written license and may be
 used, copied, transmitted, or stored only in accord with that
 written license.
  
 The following legend is applicable only to US Government
 contracts under FAR:
  
                    RESTRICTED RIGHTS LEGEND
  
 Use, reproduction and disclosure by the US Government is
 subject to restrictions as set forth in subparagraphs (a)
 and (c) of the Commercial Computer Software - Restricted
 Rights clause in FAR 52.227-19.
  
 Gaussian, Inc.
 340 Quinnipiac St., Bldg. 40, Wallingford CT 06492
  
  
 ---------------------------------------------------------------
 Warning -- This program may not be used in any manner that
 competes with the business of Gaussian, Inc. or will provide
 assistance to any competitor of Gaussian, Inc.  The licensee
 of this program is prohibited from giving any competitor of
 Gaussian, Inc. access to this program.  By using this program,
 the user acknowledges that Gaussian, Inc. is engaged in the
 business of creating and licensing software in the field of
 computational chemistry and represents and warrants to the
 licensee that it is not a competitor of Gaussian, Inc. and that
 it will not use this program in any manner prohibited above.
 ---------------------------------------------------------------
  

 Cite this work as:
 Gaussian 09, Revision A.01,
 M. J. Frisch, G. W. Trucks, H. B. Schlegel, G. E. Scuseria, 
 M. A. Robb, J. R. Cheeseman, G. Scalmani, V. Barone, B. Mennucci, 
 G. A. Petersson, H. Nakatsuji, M. Caricato, X. Li, H. P. Hratchian, 
 A. F. Izmaylov, J. Bloino, G. Zheng, J. L. Sonnenberg, M. Hada, 
 M. Ehara, K. Toyota, R. Fukuda, J. Hasegawa, M. Ishida, T. Nakajima, 
 Y. Honda, O. Kitao, H. Nakai, T. Vreven, J. A. Montgomery, Jr., 
 J. E. Peralta, F. Ogliaro, M. Bearpark, J. J. Heyd, E. Brothers, 
 K. N. Kudin, V. N. Staroverov, R. Kobayashi, J. Normand, 
 K. Raghavachari, A. Rendell, J. C. Burant, S. S. Iyengar, J. Tomasi, 
 M. Cossi, N. Rega, J. M. Millam, M. Klene, J. E. Knox, J. B. Cross, 
 V. Bakken, C. Adamo, J. Jaramillo, R. Gomperts, R. E. Stratmann, 
 O. Yazyev, A. J. Austin, R. Cammi, C. Pomelli, J. W. Ochterski, 
 R. L. Martin, K. Morokuma, V. G. Zakrzewski, G. A. Voth, 
 P. Salvador, J. J. Dannenberg, S. Dapprich, A. D. Daniels, 
 O. Farkas, J. B. Foresman, J. V. Ortiz, J. Cioslowski, 
 and D. J. Fox, Gaussian, Inc., Wallingford CT, 2009.
 
 ******************************************
 Gaussian 09:  EM64L-G09RevA.01  8-May-2009
                24-Sep-2021 
 ******************************************
 %NPROC=4
 Will use up to    4 processors via shared memory.
 %NoSave
 ------------------------------
 #HF/6-31G* Opt=Z-matrix NoSymm
 ------------------------------
 1/10=7,18=40,38=1/1,3;
 2/12=2,15=1,17=6,18=5,29=3,40=1/2;
 3/5=1,6=6,7=1,11=9,16=1,25=1,30=1,71=1/1,2,3;
 4//1;
 5/5=2,38=5/2;
 6/7=2,8=2,9=2,10=2,28=1/1;
 7/29=1,30=1/1,2,3,16;
 1/10=7,18=40/3(2);
 2/15=1,29=3/2;
 99//99;
 2/15=1,29=3/2;
 3/5=1,6=6,7=1,11=9,16=1,25=1,30=1,71=1/1,2,3;
 4/5=5,16=3/1;
 5/5=2,38=5/2;
 7/30=1/1,2,3,16;
 1/18=40/3(-5);
 2/15=1,29=3/2;
 6/7=2,8=2,9=2,10=2,19=2,28=1/1;
 99/9=1/99;
 ------------------------------
 water interaction with atom F1
 ------------------------------
 Symbolic Z-matrix:
 Charge =  0 Multiplicity = 1
 9                    -1   -1.9693    2.05368   0.00007 
 6                    -1   -1.22225   0.94423   0.00003 
 6                    -1    0.14003   1.0574   -0.00002 
 6                    -1    0.92795  -0.12364  -0.00008 
 6                    -1    2.41466  -0.01865  -0.00001 
 9                    -1    3.00708  -1.23461  -0.00056 
 9                    -1    2.85829   0.65448  -1.08602 
 9                    -1    2.85827   0.6535    1.08665 
 6                    -1    0.30654  -1.34149  -0.00009 
 7                    -1   -1.05417  -1.38997  -0.00006 
 6                    -1   -1.9305   -0.3121    0. 
 16                   -1   -3.57098  -0.50661   0.00003 
 1                    -1    0.59686   2.0431   -0.00002 
 1                    -1    0.83176  -2.28899  -0.00015 
 1                    -1   -1.52148  -2.29639  -0.00009 
 X                    1    RDUM     2    ADUM     3    DDUM     0
 X                    16   RDUM     1    ADUM     2    DDUM     0
 H1                   1    RX       16   ADUM     17   DH1      0
 X                    18   RDUM     1    ADUM     16   DDUM     0
 OH2                  18   ROH      19   ADUM     1    DOH2     0
 H2                   20   ROH      18   AHOH     16   DH2      0
       Variables:
  RX                    2.2389                   
       Constants:
  RDUM                  1.                       
  ROH                   0.9572                   
  ADUM                 90.                       
  AHOH                104.52                     
  DDUM                  0.                       
  DH1                 180.                       
  DOH2                180.                       
  DH2                 270.                       
 

 GradGradGradGradGradGradGradGradGradGradGradGradGradGradGradGradGradGrad
 Berny optimization.
 Initialization pass.
                       ----------------------------
                       !    Initial Parameters    !
                       ! (Angstroms and Degrees)  !
 ----------------------                            ----------------------
 !      Name          Value   Derivative information (Atomic Units)     !
 ------------------------------------------------------------------------
 !       RX          2.2389   estimate D2E/DX2                          !
 !      RDUM         1.0      Frozen                                    !
 !       ROH         0.9572   Frozen                                    !
 !      ADUM        90.0      Frozen                                    !
 !      AHOH       104.52     Frozen                                    !
 !      DDUM         0.0      Frozen                                    !
 !       DH1       180.0      Frozen                                    !
 !      DOH2       180.0      Frozen                                    !
 !       DH2       270.0      Frozen                                    !
 ------------------------------------------------------------------------
 Trust Radius=3.00D-01 FncErr=1.00D-07 GrdErr=1.00D-07
 Number of steps in this run=  20 maximum allowed number of steps= 100.
 GradGradGradGradGradGradGradGradGradGradGradGradGradGradGradGradGradGrad

 ---------------------------------------------------------------------------------------------------
                            Z-MATRIX (ANGSTROMS AND DEGREES)
   CD    Cent   Atom    N1       Length/X        N2       Alpha/Y        N3        Beta/Z          J
 ---------------------------------------------------------------------------------------------------
      1      1  F       -1  -1.969300          2.053680          0.000070
      2      2  C       -1  -1.222250          0.944230          0.000030
      3      3  C       -1   0.140030          1.057400         -0.000020
      4      4  C       -1   0.927950         -0.123640         -0.000080
      5      5  C       -1   2.414660         -0.018650         -0.000010
      6      6  F       -1   3.007080         -1.234610         -0.000560
      7      7  F       -1   2.858290          0.654480         -1.086020
      8      8  F       -1   2.858270          0.653500          1.086650
      9      9  C       -1   0.306540         -1.341490         -0.000090
     10     10  N       -1  -1.054170         -1.389970         -0.000060
     11     11  C       -1  -1.930500         -0.312100          0.000000
     12     12  S       -1  -3.570980         -0.506610          0.000030
     13     13  H       -1   0.596860          2.043100         -0.000020
     14     14  H       -1   0.831760         -2.288990         -0.000150
     15     15  H       -1  -1.521480         -2.296390         -0.000090
     16         X        1   1.000000(    15)      2   90.000(    34)      3    0.000(    52)      0
     17         X       16   1.000000(    16)      1   90.000(    35)      2    0.000(    53)      0
     18     16  H        1   2.238900(    17)     16   90.000(    36)     17  180.000(    54)      0
     19         X       18   1.000000(    18)      1   90.000(    37)     16    0.000(    55)      0
     20     17  O       18   0.957200(    19)     19   90.000(    38)      1  180.000(    56)      0
     21     18  H       20   0.957200(    20)     18  104.520(    39)     16  270.000(    57)      0
 ---------------------------------------------------------------------------------------------------
                         Z-Matrix orientation:                         
 ---------------------------------------------------------------------
 Center     Atomic      Atomic             Coordinates (Angstroms)
 Number     Number       Type             X           Y           Z
 ---------------------------------------------------------------------
      1          9           0       -1.969300    2.053680    0.000070
      2          6           0       -1.222250    0.944230    0.000030
      3          6           0        0.140030    1.057400   -0.000020
      4          6           0        0.927950   -0.123640   -0.000080
      5          6           0        2.414660   -0.018650   -0.000010
      6          9           0        3.007080   -1.234610   -0.000560
      7          9           0        2.858290    0.654480   -1.086020
      8          9           0        2.858270    0.653500    1.086650
      9          6           0        0.306540   -1.341490   -0.000090
     10          7           0       -1.054170   -1.389970   -0.000060
     11          6           0       -1.930500   -0.312100    0.000000
     12         16           0       -3.570980   -0.506610    0.000030
     13          1           0        0.596860    2.043100   -0.000020
     14          1           0        0.831760   -2.288990   -0.000150
     15          1           0       -1.521480   -2.296390   -0.000090
     16         -1           0       -1.139818    2.612213    0.000045
     17         -1           0       -0.581285    1.782731    0.000015
     18          1           0       -3.219800    3.910808    0.000137
     19         -1           0       -2.390318    4.469341    0.000112
     20          8           0       -3.754428    4.704788    0.000166
     21          1           0       -3.888434    4.903843    0.926800
 ---------------------------------------------------------------------
                    Distance matrix (angstroms):
                    1          2          3          4          5
     1  F    0.000000
     2  C    1.337521   0.000000
     3  C    2.332777   1.366973   0.000000
     4  C    3.624194   2.400772   1.419744   0.000000
     5  C    4.849088   3.762214   2.516312   1.490413   0.000000
     6  F    5.964663   4.757581   3.670597   2.357337   1.352598
     7  F    5.142274   4.232525   2.954772   2.347541   1.352527
     8  F    5.142625   4.232719   2.955134   2.347566   1.352555
     9  C    4.087374   2.749857   2.404662   1.367227   2.488790
    10  N    3.563171   2.340244   2.723184   2.352104   3.730054
    11  C    2.366098   1.442215   2.482463   2.864656   4.355058
    12  S    3.020011   2.760701   4.027123   4.515201   6.005497
    13  H    2.566182   2.125247   1.086415   2.191890   2.748674
    14  H    5.167661   3.830492   3.417136   2.167485   2.767673
    15  H    4.373060   3.254406   3.742796   3.274225   4.547669
    16  X    1.000000   1.670019   2.013816   3.429367   4.422189
    17  X    1.414214   1.055424   1.022937   2.431469   3.495806
    18  H    2.238900   3.576421   4.407992   5.786242   6.869336
    19  X    2.452075   3.713595   4.247823   5.666249   6.574943
    20  O    3.196100   4.533621   5.335751   6.725948   7.769718
    21  H    3.558839   4.862713   5.646472   7.023692   8.051019
                    6          7          8          9         10
     6  F    0.000000
     7  F    2.183809   0.000000
     8  F    2.183834   2.172670   0.000000
     9  C    2.702654   3.416807   3.416477   0.000000
    10  N    4.064221   4.546034   4.545756   1.361573   0.000000
    11  C    5.023019   5.004620   5.004549   2.462517   1.389157
    12  S    6.618222   6.622926   6.622828   3.966382   2.667332
    13  H    4.068482   2.867355   2.868068   3.397019   3.809445
    14  H    2.417382   3.734964   3.734451   1.083334   2.089251
    15  H    4.651369   5.391592   5.391203   2.062399   1.019792
    16  X    5.656396   4.582262   4.582791   4.209955   4.003100
    17  X    4.688359   3.779298   3.779745   3.247921   3.207749
    18  H    8.077707   6.980443   6.980938   6.326271   5.726098
    19  X    7.852831   6.578809   6.579429   6.406153   6.009727
    20  O    8.999691   7.830251   7.830783   7.283470   6.666143
    21  H    9.278400   8.223552   7.975524   7.580311   6.964496
                   11         12         13         14         15
    11  C    0.000000
    12  S    1.651971   0.000000
    13  H    3.454637   4.885889   0.000000
    14  H    3.396789   4.749842   4.338454   0.000000
    15  H    2.026007   2.720986   4.828927   2.353252   0.000000
    16  X    3.029321   3.954442   1.827550   5.282889   4.923419
    17  X    2.491726   3.765549   1.206572   4.309943   4.186072
    18  H    4.415342   4.431355   4.249144   7.406256   6.435339
    19  X    4.803500   5.114103   3.848360   7.487110   6.821290
    20  O    5.338153   5.214626   5.100813   8.363376   7.348643
    21  H    5.647878   5.498425   5.400066   8.653110   7.635768
                   16         17         18         19         20
    16  X    0.000000
    17  X    1.000000   0.000000
    18  H    2.452075   3.389760   0.000000
    19  X    2.238900   3.238900   1.000000   0.000000
    20  O    3.348889   4.313613   0.957200   1.384280   0.000000
    21  H    3.696665   4.640852   1.513901   1.814358   0.957200
                   21
    21  H    0.000000
 Symmetry turned off by external request.
 Stoichiometry    C6H5F4NOS
 Framework group  C1[X(C6H5F4NOS)]
 Deg. of freedom    48
 Full point group                 C1      NOp   1
 Rotational constants (GHZ):      0.9617023      0.3354725      0.2604191
 Standard basis: 6-31G(d) (6D, 7F)
 Integral buffers will be    131072 words long.
 Raffenetti 1 integral format.
 Two-electron integral symmetry is turned off.
   209 basis functions,   408 primitive gaussians,   209 cartesian basis functions
    54 alpha electrons       54 beta electrons
       nuclear repulsion energy       902.9084631011 Hartrees.
 NAtoms=   18 NActive=   18 NUniq=   18 SFac= 7.50D-01 NAtFMM=   80 NAOKFM=F Big=F
 One-electron integrals computed using PRISM.
 NBasis=   209 RedAO= T  NBF=   209
 NBsUse=   209 1.00D-06 NBFU=   209
 Harris functional with IExCor=  205 diagonalized for initial guess.
 ExpMin= 1.17D-01 ExpMax= 2.19D+04 ExpMxC= 3.30D+03 IAcc=1 IRadAn=         1 AccDes= 0.00D+00
 HarFok:  IExCor=  205 AccDes= 0.00D+00 IRadAn=         1 IDoV= 1
 ScaDFX=  1.000000  1.000000  1.000000  1.000000
 FoFCou: FMM=F IPFlag=           0 FMFlag=      100000 FMFlg1=           0
         NFxFlg=           0 DoJE=T BraDBF=F KetDBF=T FulRan=T
         Omega=  0.000000  0.000000  1.000000  0.000000  0.000000 ICntrl=     500 IOpCl=  0
         NMat0=    1 NMatS0=    1 NMatT0=    0 NMatD0=    1 NMtDS0=    0 NMtDT0=    0
         I1Cent=           4 NGrid=           0.
 Symmetry not used in FoFCou.
 Requested convergence on RMS density matrix=1.00D-08 within 128 cycles.
 Requested convergence on MAX density matrix=1.00D-06.
 Requested convergence on             energy=1.00D-06.
 No special actions if energy rises.
 Integral accuracy reduced to 1.0D-05 until final iterations.
 Initial convergence to 1.0D-05 achieved.  Increase integral accuracy.
 SCF Done:  E(RHF) =  -1154.67549035     A.U. after   15 cycles
             Convg  =    0.6929D-08             -V/T =  2.0018

 **********************************************************************

            Population analysis using the SCF density.

 **********************************************************************

 Alpha  occ. eigenvalues --  -91.90947 -26.37078 -26.36142 -26.36112 -26.34968
 Alpha  occ. eigenvalues --  -20.54147 -15.69179 -11.54457 -11.38370 -11.37906
 Alpha  occ. eigenvalues --  -11.36631 -11.31911 -11.30753  -8.92035  -6.60362
 Alpha  occ. eigenvalues --   -6.60084  -6.59960  -1.74316  -1.66236  -1.65320
 Alpha  occ. eigenvalues --   -1.64623  -1.36020  -1.32364  -1.17620  -1.12670
 Alpha  occ. eigenvalues --   -1.03427  -0.97592  -0.93170  -0.88769  -0.85521
 Alpha  occ. eigenvalues --   -0.83985  -0.83550  -0.77638  -0.76734  -0.74678
 Alpha  occ. eigenvalues --   -0.72890  -0.72371  -0.71943  -0.70847  -0.68751
 Alpha  occ. eigenvalues --   -0.67758  -0.67734  -0.66304  -0.64993  -0.63050
 Alpha  occ. eigenvalues --   -0.61309  -0.59860  -0.55320  -0.53073  -0.47991
 Alpha  occ. eigenvalues --   -0.47051  -0.43908  -0.34604  -0.31495
 Alpha virt. eigenvalues --    0.03975   0.08248   0.17276   0.22859   0.24113
 Alpha virt. eigenvalues --    0.24828   0.25999   0.26127   0.28770   0.32196
 Alpha virt. eigenvalues --    0.34765   0.36465   0.40003   0.40393   0.42215
 Alpha virt. eigenvalues --    0.43100   0.46181   0.49113   0.54173   0.55040
 Alpha virt. eigenvalues --    0.56250   0.59295   0.60852   0.63878   0.66445
 Alpha virt. eigenvalues --    0.67713   0.71465   0.72635   0.73275   0.74850
 Alpha virt. eigenvalues --    0.76735   0.77357   0.82342   0.84041   0.86899
 Alpha virt. eigenvalues --    0.88624   0.89637   0.91819   0.95256   0.99339
 Alpha virt. eigenvalues --    1.01812   1.02245   1.03235   1.04980   1.07490
 Alpha virt. eigenvalues --    1.08732   1.09686   1.13062   1.14679   1.14797
 Alpha virt. eigenvalues --    1.16586   1.17718   1.18497   1.19381   1.24238
 Alpha virt. eigenvalues --    1.28148   1.30656   1.31502   1.33087   1.33676
 Alpha virt. eigenvalues --    1.34545   1.38596   1.39533   1.41643   1.42203
 Alpha virt. eigenvalues --    1.43193   1.46352   1.50902   1.56675   1.60443
 Alpha virt. eigenvalues --    1.61534   1.62161   1.63355   1.63923   1.65023
 Alpha virt. eigenvalues --    1.65972   1.67002   1.68421   1.69378   1.70806
 Alpha virt. eigenvalues --    1.75663   1.75789   1.80331   1.84195   1.88982
 Alpha virt. eigenvalues --    1.89531   1.92210   1.93477   1.99869   2.03714
 Alpha virt. eigenvalues --    2.03952   2.05137   2.05640   2.08407   2.08523
 Alpha virt. eigenvalues --    2.09328   2.12180   2.12410   2.16834   2.19874
 Alpha virt. eigenvalues --    2.22074   2.22119   2.24110   2.28269   2.29182
 Alpha virt. eigenvalues --    2.30096   2.32284   2.33312   2.34640   2.35810
 Alpha virt. eigenvalues --    2.37272   2.38607   2.42453   2.44831   2.45095
 Alpha virt. eigenvalues --    2.46731   2.51745   2.60391   2.61312   2.64832
 Alpha virt. eigenvalues --    2.65984   2.68051   2.74714   2.82260   2.83534
 Alpha virt. eigenvalues --    2.84096   2.90940   2.92362   2.92792   2.96676
 Alpha virt. eigenvalues --    2.99973   3.07124   3.09070   3.16932   3.21766
 Alpha virt. eigenvalues --    3.29188   3.37222   3.38148   3.43688   3.44254
 Alpha virt. eigenvalues --    3.48708   3.70804   4.04820   4.36441   4.39568
 Alpha virt. eigenvalues --    4.44916   4.49773   4.60428   4.64027   4.68498
 Alpha virt. eigenvalues --    4.83972   5.02731   5.15402   5.60386   6.02503
          Condensed to atoms (all electrons):
              1          2          3          4          5          6
     1  F    9.171292   0.253433  -0.032048   0.002097  -0.000014   0.000000
     2  C    0.253433   4.599000   0.569470  -0.027143   0.000900  -0.000019
     3  C   -0.032048   0.569470   5.052303   0.360154  -0.011967   0.002207
     4  C    0.002097  -0.027143   0.360154   5.203492   0.415207  -0.045455
     5  C   -0.000014   0.000900  -0.011967   0.415207   3.547477   0.289584
     6  F    0.000000  -0.000019   0.002207  -0.045455   0.289584   9.187446
     7  F    0.000000   0.000293   0.005001  -0.055277   0.285278  -0.030791
     8  F    0.000000   0.000293   0.005002  -0.055257   0.284914  -0.030778
     9  C    0.000138  -0.023244  -0.055093   0.591435  -0.020770   0.005535
    10  N    0.001335  -0.054950  -0.021003  -0.035841   0.001217   0.000241
    11  C   -0.039171   0.380541  -0.077175  -0.001516   0.000066   0.000002
    12  S    0.003348  -0.085175   0.001589  -0.000027   0.000006   0.000000
    13  H   -0.000226  -0.017942   0.367705  -0.028623  -0.000298   0.000036
    14  H    0.000001  -0.000118   0.001838  -0.022361  -0.000146   0.005065
    15  H   -0.000018   0.003907  -0.000584   0.002343  -0.000014   0.000001
    16  H    0.010668  -0.000069   0.000045  -0.000001   0.000000   0.000000
    17  O   -0.001131   0.000041  -0.000002   0.000000   0.000000   0.000000
    18  H   -0.000022   0.000000   0.000000   0.000000   0.000000   0.000000
              7          8          9         10         11         12
     1  F    0.000000   0.000000   0.000138   0.001335  -0.039171   0.003348
     2  C    0.000293   0.000293  -0.023244  -0.054950   0.380541  -0.085175
     3  C    0.005001   0.005002  -0.055093  -0.021003  -0.077175   0.001589
     4  C   -0.055277  -0.055257   0.591435  -0.035841  -0.001516  -0.000027
     5  C    0.285278   0.284914  -0.020770   0.001217   0.000066   0.000006
     6  F   -0.030791  -0.030778   0.005535   0.000241   0.000002   0.000000
     7  F    9.200292  -0.033988   0.000539  -0.000006  -0.000002   0.000000
     8  F   -0.033988   9.201260   0.000535  -0.000006  -0.000002   0.000000
     9  C    0.000539   0.000535   4.733322   0.266020  -0.038368   0.003171
    10  N   -0.000006  -0.000006   0.266020   7.233428   0.214792  -0.103221
    11  C   -0.000002  -0.000002  -0.038368   0.214792   4.946080   0.446277
    12  S    0.000000   0.000000   0.003171  -0.103221   0.446277  15.946340
    13  H    0.000917   0.000913   0.002414  -0.000250   0.002542  -0.000055
    14  H    0.000084   0.000085   0.379441  -0.031940   0.000962  -0.000130
    15  H    0.000000   0.000000  -0.021440   0.309976  -0.017897   0.013494
    16  H    0.000000   0.000000   0.000000   0.000000   0.000040   0.000158
    17  O    0.000000   0.000000   0.000000   0.000000  -0.000003  -0.000007
    18  H    0.000000   0.000000   0.000000   0.000000   0.000000   0.000002
             13         14         15         16         17         18
     1  F   -0.000226   0.000001  -0.000018   0.010668  -0.001131  -0.000022
     2  C   -0.017942  -0.000118   0.003907  -0.000069   0.000041   0.000000
     3  C    0.367705   0.001838  -0.000584   0.000045  -0.000002   0.000000
     4  C   -0.028623  -0.022361   0.002343  -0.000001   0.000000   0.000000
     5  C   -0.000298  -0.000146  -0.000014   0.000000   0.000000   0.000000
     6  F    0.000036   0.005065   0.000001   0.000000   0.000000   0.000000
     7  F    0.000917   0.000084   0.000000   0.000000   0.000000   0.000000
     8  F    0.000913   0.000085   0.000000   0.000000   0.000000   0.000000
     9  C    0.002414   0.379441  -0.021440   0.000000   0.000000   0.000000
    10  N   -0.000250  -0.031940   0.309976   0.000000   0.000000   0.000000
    11  C    0.002542   0.000962  -0.017897   0.000040  -0.000003   0.000000
    12  S   -0.000055  -0.000130   0.013494   0.000158  -0.000007   0.000002
    13  H    0.389619  -0.000061   0.000008   0.000016   0.000000   0.000000
    14  H   -0.000061   0.379043  -0.002100   0.000000   0.000000   0.000000
    15  H    0.000008  -0.002100   0.269201   0.000000   0.000000   0.000000
    16  H    0.000016   0.000000   0.000000   0.298759   0.262115  -0.018311
    17  O    0.000000   0.000000   0.000000   0.262115   8.359222   0.265249
    18  H    0.000000   0.000000   0.000000  -0.018311   0.265249   0.325168
 Mulliken atomic charges:
              1
     1  F   -0.369682
     2  C    0.400781
     3  C   -0.167442
     4  C   -0.303227
     5  C    1.208561
     6  F   -0.383075
     7  F   -0.372341
     8  F   -0.372970
     9  C    0.176365
    10  N   -0.779791
    11  C    0.182832
    12  S   -0.225770
    13  H    0.283286
    14  H    0.290338
    15  H    0.443124
    16  H    0.446581
    17  O   -0.885483
    18  H    0.427915
 Sum of Mulliken atomic charges =   0.00000
 Mulliken charges with hydrogens summed into heavy atoms:
              1
     1  F   -0.369682
     2  C    0.400781
     3  C    0.115843
     4  C   -0.303227
     5  C    1.208561
     6  F   -0.383075
     7  F   -0.372341
     8  F   -0.372970
     9  C    0.466703
    10  N   -0.336668
    11  C    0.182832
    12  S   -0.225770
    17  O   -0.010987
 Sum of Mulliken charges with hydrogens summed into heavy atoms =   0.00000
 Electronic spatial extent (au):  <R**2>=           3926.8586
 Charge=              0.0000 electrons
 Dipole moment (field-independent basis, Debye):
    X=              4.5306    Y=             -4.1518    Z=              1.7004  Tot=              6.3762
 Quadrupole moment (field-independent basis, Debye-Ang):
   XX=           -111.3671   YY=            -81.9910   ZZ=            -80.2283
   XY=              9.8121   XZ=             -6.8429   YZ=              8.7158
 Traceless Quadrupole moment (field-independent basis, Debye-Ang):
   XX=            -20.1716   YY=              9.2044   ZZ=             10.9672
   XY=              9.8121   XZ=             -6.8429   YZ=              8.7158
 Octapole moment (field-independent basis, Debye-Ang**2):
  XXX=            209.2431  YYY=           -168.1557  ZZZ=              0.4176  XYY=             94.0939
  XXY=            -64.7268  XXZ=             26.6609  XZZ=             35.1525  YZZ=            -18.5179
  YYZ=             43.2302  XYZ=            -34.5166
 Hexadecapole moment (field-independent basis, Debye-Ang**3):
 XXXX=          -3383.3194 YYYY=          -1688.0564 ZZZZ=           -143.0505 XXXY=            478.7068
 XXXZ=           -102.8686 YYYX=            602.5175 YYYZ=            212.4545 ZZZX=             -1.8968
 ZZZY=              2.4946 XXYY=           -949.1683 XXZZ=           -512.0728 YYZZ=           -217.9422
 XXYZ=            134.4766 YYXZ=           -170.8280 ZZXY=             68.0162
 N-N= 9.029084631011D+02 E-N=-4.543382035910D+03  KE= 1.152544618796D+03
 Calling FoFJK, ICntrl=      2127 FMM=F ISym2X=0 I1Cent= 0 IOpClX= 0 NMat=1 NMatS=1 NMatT=0.
 -------------------------------------------------------------------
 Center     Atomic                   Forces (Hartrees/Bohr)
 Number     Number              X              Y              Z
 -------------------------------------------------------------------
      1        9           0.000000000    0.000000000    0.000000000
      2        6           0.000000000    0.000000000    0.000000000
      3        6           0.000000000    0.000000000    0.000000000
      4        6           0.000000000    0.000000000    0.000000000
      5        6           0.000000000    0.000000000    0.000000000
      6        9           0.000000000    0.000000000    0.000000000
      7        9           0.000000000    0.000000000    0.000000000
      8        9           0.000000000    0.000000000    0.000000000
      9        6           0.000000000    0.000000000    0.000000000
     10        7           0.000000000    0.000000000    0.000000000
     11        6           0.000000000    0.000000000    0.000000000
     12       16           0.000000000    0.000000000    0.000000000
     13        1           0.000000000    0.000000000    0.000000000
     14        1           0.000000000    0.000000000    0.000000000
     15        1           0.000000000    0.000000000    0.000000000
     16        1          -0.007235846    0.007873740   -0.001580225
     17        8           0.006117679   -0.005935270    0.012080629
     18        1           0.000496473   -0.001858388   -0.010765238
 -------------------------------------------------------------------
 Cartesian Forces:  Max     0.012080629 RMS     0.002902859
 -----------------------------------------------------------------------------------------------
                       Internal Coordinate Forces (Hartree/Bohr or radian)
  Cent   Atom   N1       Length/X         N2         Alpha/Y        N3         Beta/Z          J
 -----------------------------------------------------------------------------------------------
      1  F 
      2  C 
      3  C 
      4  C 
      5  C 
      6  F 
      7  F 
      8  F 
      9  C 
     10  N 
     11  C 
     12  S 
     13  H 
     14  H 
     15  H 
         X        1   0.000000(     1)      2   0.000226(     7)      3  -0.001096(    13)     0
         X       16   0.000000(     2)      1   0.000000(     8)      2  -0.000437(    14)     0
     16  H        1   0.000414(     3)     16   0.000226(     9)     17   0.000437(    15)     0
         X       18   0.000000(     4)      1  -0.001766(    10)     16   0.000000(    16)     0
     17  O       18  -0.010159(     5)     19  -0.001766(    11)      1  -0.003137(    17)     0
     18  H       20  -0.010877(     6)     18   0.001697(    12)     16  -0.001096(    18)     0
 -----------------------------------------------------------------------------------------------
 Internal  Forces:  Max     0.010877447 RMS     0.003678299

 GradGradGradGradGradGradGradGradGradGradGradGradGradGradGradGradGradGrad
 Berny optimization.
 Search for a local minimum.
 Step number   1 out of a maximum of   20
 All quantities printed in internal units (Hartrees-Bohrs-Radians)
 Second derivative matrix not updated -- first step.
 The second derivative matrix:
                          RX       RDUM       ROH      ADUM      AHOH
           RX           0.02971
           RDUM         0.00000   0.00000
           ROH          0.00000   0.00000   1.12160
           ADUM         0.00000   0.00000   0.00000   1.64000
           AHOH         0.00000   0.00000   0.00000   0.00000   0.16000
           DDUM         0.00000   0.00000   0.00000   0.00001   0.00000
           DH1          0.00000   0.00000   0.00000  -0.00001   0.00000
           DOH2         0.00000   0.00000   0.00000  -0.00002   0.00000
           DH2          0.00000   0.00000   0.00000   0.00000   0.00000
                         DDUM       DH1      DOH2       DH2
           DDUM         0.23254
           DH1         -0.23254   0.23254
           DOH2         0.00000   0.00000   0.36335
           DH2          0.00000   0.00000   0.00000   0.00000
     Eigenvalues ---    0.029711000.000001000.000001000.000001000.00000
     Eigenvalues --- 1000.000001000.000001000.000001000.00000
 RFO step:  Lambda=-5.75912205D-06 EMin= 2.97112354D-02
 Linear search not attempted -- first point.
 Variable       Old X    -DE/DX   Delta X   Delta X   Delta X     New X
                                 (Linear)    (Quad)   (Total)
    RX        4.23091   0.00041   0.00000   0.01392   0.01392   4.24483
   RDUM       1.88973   0.00000   0.00000   0.00000   0.00000   1.88973
   ROH        1.80885  -0.02104   0.00000   0.00000   0.00000   1.80885
   ADUM       1.57080  -0.00308   0.00000   0.00000   0.00000   1.57080
   AHOH       1.82422   0.00170   0.00000   0.00000   0.00000   1.82422
   DDUM       0.00000  -0.00153   0.00000   0.00000   0.00000   0.00000
   DH1        3.14159   0.00044   0.00000   0.00000   0.00000   3.14159
   DOH2       3.14159  -0.00314   0.00000   0.00000   0.00000   3.14159
   DH2        4.71239  -0.00110   0.00000   0.00000   0.00000   4.71239
         Item               Value     Threshold  Converged?
 Maximum Force            0.000414     0.000450     YES
 RMS     Force            0.000414     0.000300     NO 
 Maximum Displacement     0.013920     0.001800     NO 
 RMS     Displacement     0.004640     0.001200     NO 
 Predicted change in Energy=-2.879561D-06
 GradGradGradGradGradGradGradGradGradGradGradGradGradGradGradGradGradGrad

 ---------------------------------------------------------------------------------------------------
                            Z-MATRIX (ANGSTROMS AND DEGREES)
   CD    Cent   Atom    N1       Length/X        N2       Alpha/Y        N3        Beta/Z          J
 ---------------------------------------------------------------------------------------------------
      1      1  F       -1  -1.969300          2.053680          0.000070
      2      2  C       -1  -1.222250          0.944230          0.000030
      3      3  C       -1   0.140030          1.057400         -0.000020
      4      4  C       -1   0.927950         -0.123640         -0.000080
      5      5  C       -1   2.414660         -0.018650         -0.000010
      6      6  F       -1   3.007080         -1.234610         -0.000560
      7      7  F       -1   2.858290          0.654480         -1.086020
      8      8  F       -1   2.858270          0.653500          1.086650
      9      9  C       -1   0.306540         -1.341490         -0.000090
     10     10  N       -1  -1.054170         -1.389970         -0.000060
     11     11  C       -1  -1.930500         -0.312100          0.000000
     12     12  S       -1  -3.570980         -0.506610          0.000030
     13     13  H       -1   0.596860          2.043100         -0.000020
     14     14  H       -1   0.831760         -2.288990         -0.000150
     15     15  H       -1  -1.521480         -2.296390         -0.000090
     16         X        1   1.000000(    15)      2   90.000(    34)      3    0.000(    52)      0
     17         X       16   1.000000(    16)      1   90.000(    35)      2    0.000(    53)      0
     18     16  H        1   2.246266(    17)     16   90.000(    36)     17  180.000(    54)      0
     19         X       18   1.000000(    18)      1   90.000(    37)     16    0.000(    55)      0
     20     17  O       18   0.957200(    19)     19   90.000(    38)      1  180.000(    56)      0
     21     18  H       20   0.957200(    20)     18  104.520(    39)     16  270.000(    57)      0
 ---------------------------------------------------------------------------------------------------
                         Z-Matrix orientation:                         
 ---------------------------------------------------------------------
 Center     Atomic      Atomic             Coordinates (Angstroms)
 Number     Number       Type             X           Y           Z
 ---------------------------------------------------------------------
      1          9           0       -1.969300    2.053680    0.000070
      2          6           0       -1.222250    0.944230    0.000030
      3          6           0        0.140030    1.057400   -0.000020
      4          6           0        0.927950   -0.123640   -0.000080
      5          6           0        2.414660   -0.018650   -0.000010
      6          9           0        3.007080   -1.234610   -0.000560
      7          9           0        2.858290    0.654480   -1.086020
      8          9           0        2.858270    0.653500    1.086650
      9          6           0        0.306540   -1.341490   -0.000090
     10          7           0       -1.054170   -1.389970   -0.000060
     11          6           0       -1.930500   -0.312100    0.000000
     12         16           0       -3.570980   -0.506610    0.000030
     13          1           0        0.596860    2.043100   -0.000020
     14          1           0        0.831760   -2.288990   -0.000150
     15          1           0       -1.521480   -2.296390   -0.000090
     16         -1           0       -1.139818    2.612213    0.000045
     17         -1           0       -0.581285    1.782731    0.000015
     18          1           0       -3.223914    3.916918    0.000137
     19         -1           0       -2.394432    4.475451    0.000112
     20          8           0       -3.758542    4.710898    0.000166
     21          1           0       -3.892548    4.909953    0.926800
 ---------------------------------------------------------------------
                    Distance matrix (angstroms):
                    1          2          3          4          5
     1  F    0.000000
     2  C    1.337521   0.000000
     3  C    2.332777   1.366973   0.000000
     4  C    3.624194   2.400772   1.419744   0.000000
     5  C    4.849088   3.762214   2.516312   1.490413   0.000000
     6  F    5.964663   4.757581   3.670597   2.357337   1.352598
     7  F    5.142274   4.232525   2.954772   2.347541   1.352527
     8  F    5.142625   4.232719   2.955134   2.347566   1.352555
     9  C    4.087374   2.749857   2.404662   1.367227   2.488790
    10  N    3.563171   2.340244   2.723184   2.352104   3.730054
    11  C    2.366098   1.442215   2.482463   2.864656   4.355058
    12  S    3.020011   2.760701   4.027123   4.515201   6.005497
    13  H    2.566182   2.125247   1.086415   2.191890   2.748674
    14  H    5.167661   3.830492   3.417136   2.167485   2.767673
    15  H    4.373060   3.254406   3.742796   3.274225   4.547669
    16  X    1.000000   1.670019   2.013816   3.429367   4.422189
    17  X    1.414214   1.055424   1.022937   2.431469   3.495806
    18  H    2.246266   3.583787   4.415083   5.793452   6.876206
    19  X    2.458803   3.720690   4.255181   5.673611   6.582120
    20  O    3.203466   4.540987   5.342931   6.733199   7.776699
    21  H    3.565951   4.869944   5.653569   7.030887   8.057976
                    6          7          8          9         10
     6  F    0.000000
     7  F    2.183809   0.000000
     8  F    2.183834   2.172670   0.000000
     9  C    2.702654   3.416807   3.416477   0.000000
    10  N    4.064221   4.546034   4.545756   1.361573   0.000000
    11  C    5.023019   5.004620   5.004549   2.462517   1.389157
    12  S    6.618222   6.622926   6.622828   3.966382   2.667332
    13  H    4.068482   2.867355   2.868068   3.397019   3.809445
    14  H    2.417382   3.734964   3.734451   1.083334   2.089251
    15  H    4.651369   5.391592   5.391203   2.062399   1.019792
    16  X    5.656396   4.582262   4.582791   4.209955   4.003100
    17  X    4.688359   3.779298   3.779745   3.247921   3.207749
    18  H    8.084771   6.986877   6.987372   6.333637   5.733310
    19  X    7.860097   6.585635   6.586255   6.413427   6.016599
    20  O    9.006815   7.836887   7.837419   7.290836   6.673396
    21  H    9.285501   8.230086   7.982261   7.587622   6.971692
                   11         12         13         14         15
    11  C    0.000000
    12  S    1.651971   0.000000
    13  H    3.454637   4.885889   0.000000
    14  H    3.396789   4.749842   4.338454   0.000000
    15  H    2.026007   2.720986   4.828927   2.353252   0.000000
    16  X    3.029321   3.954442   1.827550   5.282889   4.923419
    17  X    2.491726   3.765549   1.206572   4.309943   4.186072
    18  H    4.422387   4.437122   4.255527   7.413621   6.442319
    19  X    4.809977   5.119101   3.855406   7.494396   6.827875
    20  O    5.345301   5.220878   5.107512   8.370741   7.355714
    21  H    5.654947   5.504677   5.406721   8.660433   7.642805
                   16         17         18         19         20
    16  X    0.000000
    17  X    1.000000   0.000000
    18  H    2.458803   3.396799   0.000000
    19  X    2.246266   3.246266   1.000000   0.000000
    20  O    3.355919   4.320778   0.957200   1.384280   0.000000
    21  H    3.703513   4.647894   1.513901   1.814358   0.957200
                   21
    21  H    0.000000
 Symmetry turned off by external request.
 Stoichiometry    C6H5F4NOS
 Framework group  C1[X(C6H5F4NOS)]
 Deg. of freedom    48
 Full point group                 C1      NOp   1
 Rotational constants (GHZ):      0.9608363      0.3352553      0.2602247
 Standard basis: 6-31G(d) (6D, 7F)
 Integral buffers will be    131072 words long.
 Raffenetti 1 integral format.
 Two-electron integral symmetry is turned off.
   209 basis functions,   408 primitive gaussians,   209 cartesian basis functions
    54 alpha electrons       54 beta electrons
       nuclear repulsion energy       902.7862243321 Hartrees.
 NAtoms=   18 NActive=   18 NUniq=   18 SFac= 7.50D-01 NAtFMM=   80 NAOKFM=F Big=F
 One-electron integrals computed using PRISM.
 NBasis=   209 RedAO= T  NBF=   209
 NBsUse=   209 1.00D-06 NBFU=   209
 Initial guess read from the read-write file.
 B after Tr=     0.000000    0.000000    0.000000
         Rot=    1.000000    0.000000    0.000000    0.000000 Ang=   0.00 deg.
 Requested convergence on RMS density matrix=1.00D-08 within 128 cycles.
 Requested convergence on MAX density matrix=1.00D-06.
 Requested convergence on             energy=1.00D-06.
 No special actions if energy rises.
 SCF Done:  E(RHF) =  -1154.67549576     A.U. after    7 cycles
             Convg  =    0.6658D-08             -V/T =  2.0018
 Calling FoFJK, ICntrl=      2127 FMM=F ISym2X=0 I1Cent= 0 IOpClX= 0 NMat=1 NMatS=1 NMatT=0.
 -------------------------------------------------------------------
 Center     Atomic                   Forces (Hartrees/Bohr)
 Number     Number              X              Y              Z
 -------------------------------------------------------------------
      1        9           0.000000000    0.000000000    0.000000000
      2        6           0.000000000    0.000000000    0.000000000
      3        6           0.000000000    0.000000000    0.000000000
      4        6           0.000000000    0.000000000    0.000000000
      5        6           0.000000000    0.000000000    0.000000000
      6        9           0.000000000    0.000000000    0.000000000
      7        9           0.000000000    0.000000000    0.000000000
      8        9           0.000000000    0.000000000    0.000000000
      9        6           0.000000000    0.000000000    0.000000000
     10        7           0.000000000    0.000000000    0.000000000
     11        6           0.000000000    0.000000000    0.000000000
     12       16           0.000000000    0.000000000    0.000000000
     13        1           0.000000000    0.000000000    0.000000000
     14        1           0.000000000    0.000000000    0.000000000
     15        1           0.000000000    0.000000000    0.000000000
     16        1          -0.007204498    0.007838780   -0.001575360
     17        8           0.006112068   -0.005939746    0.012073528
     18        1           0.000499720   -0.001859058   -0.010761614
 -------------------------------------------------------------------
 Cartesian Forces:  Max     0.012073528 RMS     0.002898784
 -----------------------------------------------------------------------------------------------
                       Internal Coordinate Forces (Hartree/Bohr or radian)
  Cent   Atom   N1       Length/X         N2         Alpha/Y        N3         Beta/Z          J
 -----------------------------------------------------------------------------------------------
      1  F 
      2  C 
      3  C 
      4  C 
      5  C 
      6  F 
      7  F 
      8  F 
      9  C 
     10  N 
     11  C 
     12  S 
     13  H 
     14  H 
     15  H 
         X        1   0.000000(     1)      2   0.000234(     7)      3  -0.001092(    13)     0
         X       16   0.000000(     2)      1   0.000000(     8)      2  -0.000436(    14)     0
     16  H        1   0.000364(     3)     16   0.000234(     9)     17   0.000436(    15)     0
         X       18   0.000000(     4)      1  -0.001758(    10)     16   0.000000(    16)     0
     17  O       18  -0.010162(     5)     19  -0.001758(    11)      1  -0.003135(    17)     0
     18  H       20  -0.010875(     6)     18   0.001691(    12)     16  -0.001092(    18)     0
 -----------------------------------------------------------------------------------------------
 Internal  Forces:  Max     0.010874532 RMS     0.003677245

 GradGradGradGradGradGradGradGradGradGradGradGradGradGradGradGradGradGrad
 Berny optimization.
 Search for a local minimum.
 Step number   2 out of a maximum of   20
 All quantities printed in internal units (Hartrees-Bohrs-Radians)
 Update second derivatives using D2CorN and points    1    2
 DE= -5.41D-06 DEPred=-2.88D-06 R= 1.88D+00
 SS=  1.41D+00  RLast= 1.39D-02 DXNew= 5.0454D-01 4.1759D-02
 Trust test= 1.88D+00 RLast= 1.39D-02 DXMaxT set to 3.00D-01
 The second derivative matrix:
                          RX       RDUM       ROH      ADUM      AHOH
           RX           0.00355
           RDUM         0.00000   0.00000
           ROH          0.00000   0.00000   1.12160
           ADUM        -0.00108   0.00000   0.00000   1.64000
           AHOH         0.00021   0.00000   0.00000   0.00000   0.16000
           DDUM        -0.00021   0.00000   0.00000   0.00001   0.00000
           DH1          0.00006   0.00000   0.00000  -0.00001   0.00000
           DOH2        -0.00006   0.00000   0.00000  -0.00002   0.00000
           DH2         -0.00015   0.00000   0.00000   0.00000   0.00000
                         DDUM       DH1      DOH2       DH2
           DDUM         0.23254
           DH1         -0.23254   0.23254
           DOH2         0.00000   0.00000   0.36335
           DH2          0.00000   0.00000   0.00000   0.00000
     Eigenvalues ---    0.003551000.000001000.000001000.000001000.00000
     Eigenvalues --- 1000.000001000.000001000.000001000.00000
 RFO step:  Lambda= 0.00000000D+00 EMin= 3.55288326D-03
 Quartic linear search produced a step of  2.00000.
 Variable       Old X    -DE/DX   Delta X   Delta X   Delta X     New X
                                 (Linear)    (Quad)   (Total)
    RX        4.24483   0.00036   0.02784   0.00000   0.02784   4.27267
   RDUM       1.88973   0.00000   0.00000   0.00000   0.00000   1.88973
   ROH        1.80885  -0.02104   0.00000   0.00000   0.00000   1.80885
   ADUM       1.57080  -0.00305   0.00000   0.00000   0.00000   1.57080
   AHOH       1.82422   0.00169   0.00000   0.00000   0.00000   1.82422
   DDUM       0.00000  -0.00153   0.00000   0.00000   0.00000   0.00000
   DH1        3.14159   0.00044   0.00000   0.00000   0.00000   3.14159
   DOH2       3.14159  -0.00314   0.00000   0.00000   0.00000   3.14159
   DH2        4.71239  -0.00109   0.00000   0.00000   0.00000   4.71239
         Item               Value     Threshold  Converged?
 Maximum Force            0.000364     0.000450     YES
 RMS     Force            0.000364     0.000300     NO 
 Maximum Displacement     0.027840     0.001800     NO 
 RMS     Displacement     0.009280     0.001200     NO 
 Predicted change in Energy=-8.762366D-06
 GradGradGradGradGradGradGradGradGradGradGradGradGradGradGradGradGradGrad

 ---------------------------------------------------------------------------------------------------
                            Z-MATRIX (ANGSTROMS AND DEGREES)
   CD    Cent   Atom    N1       Length/X        N2       Alpha/Y        N3        Beta/Z          J
 ---------------------------------------------------------------------------------------------------
      1      1  F       -1  -1.969300          2.053680          0.000070
      2      2  C       -1  -1.222250          0.944230          0.000030
      3      3  C       -1   0.140030          1.057400         -0.000020
      4      4  C       -1   0.927950         -0.123640         -0.000080
      5      5  C       -1   2.414660         -0.018650         -0.000010
      6      6  F       -1   3.007080         -1.234610         -0.000560
      7      7  F       -1   2.858290          0.654480         -1.086020
      8      8  F       -1   2.858270          0.653500          1.086650
      9      9  C       -1   0.306540         -1.341490         -0.000090
     10     10  N       -1  -1.054170         -1.389970         -0.000060
     11     11  C       -1  -1.930500         -0.312100          0.000000
     12     12  S       -1  -3.570980         -0.506610          0.000030
     13     13  H       -1   0.596860          2.043100         -0.000020
     14     14  H       -1   0.831760         -2.288990         -0.000150
     15     15  H       -1  -1.521480         -2.296390         -0.000090
     16         X        1   1.000000(    15)      2   90.000(    34)      3    0.000(    52)      0
     17         X       16   1.000000(    16)      1   90.000(    35)      2    0.000(    53)      0
     18     16  H        1   2.260998(    17)     16   90.000(    36)     17  180.000(    54)      0
     19         X       18   1.000000(    18)      1   90.000(    37)     16    0.000(    55)      0
     20     17  O       18   0.957200(    19)     19   90.000(    38)      1  180.000(    56)      0
     21     18  H       20   0.957200(    20)     18  104.520(    39)     16  270.000(    57)      0
 ---------------------------------------------------------------------------------------------------
                         Z-Matrix orientation:                         
 ---------------------------------------------------------------------
 Center     Atomic      Atomic             Coordinates (Angstroms)
 Number     Number       Type             X           Y           Z
 ---------------------------------------------------------------------
      1          9           0       -1.969300    2.053680    0.000070
      2          6           0       -1.222250    0.944230    0.000030
      3          6           0        0.140030    1.057400   -0.000020
      4          6           0        0.927950   -0.123640   -0.000080
      5          6           0        2.414660   -0.018650   -0.000010
      6          9           0        3.007080   -1.234610   -0.000560
      7          9           0        2.858290    0.654480   -1.086020
      8          9           0        2.858270    0.653500    1.086650
      9          6           0        0.306540   -1.341490   -0.000090
     10          7           0       -1.054170   -1.389970   -0.000060
     11          6           0       -1.930500   -0.312100    0.000000
     12         16           0       -3.570980   -0.506610    0.000030
     13          1           0        0.596860    2.043100   -0.000020
     14          1           0        0.831760   -2.288990   -0.000150
     15          1           0       -1.521480   -2.296390   -0.000090
     16         -1           0       -1.139818    2.612213    0.000045
     17         -1           0       -0.581285    1.782731    0.000015
     18          1           0       -3.232143    3.929138    0.000138
     19         -1           0       -2.402660    4.487671    0.000112
     20          8           0       -3.766770    4.723118    0.000166
     21          1           0       -3.900776    4.922173    0.926801
 ---------------------------------------------------------------------
                    Distance matrix (angstroms):
                    1          2          3          4          5
     1  F    0.000000
     2  C    1.337521   0.000000
     3  C    2.332777   1.366973   0.000000
     4  C    3.624194   2.400772   1.419744   0.000000
     5  C    4.849088   3.762214   2.516312   1.490413   0.000000
     6  F    5.964663   4.757581   3.670597   2.357337   1.352598
     7  F    5.142274   4.232525   2.954772   2.347541   1.352527
     8  F    5.142625   4.232719   2.955134   2.347566   1.352555
     9  C    4.087374   2.749857   2.404662   1.367227   2.488790
    10  N    3.563171   2.340244   2.723184   2.352104   3.730054
    11  C    2.366098   1.442215   2.482463   2.864656   4.355058
    12  S    3.020011   2.760701   4.027123   4.515201   6.005497
    13  H    2.566182   2.125247   1.086415   2.191890   2.748674
    14  H    5.167661   3.830492   3.417136   2.167485   2.767673
    15  H    4.373060   3.254406   3.742796   3.274225   4.547669
    16  X    1.000000   1.670019   2.013816   3.429367   4.422189
    17  X    1.414214   1.055424   1.022937   2.431469   3.495806
    18  H    2.260998   3.598519   4.429269   5.807872   6.889950
    19  X    2.472269   3.734882   4.269898   5.688335   6.596477
    20  O    3.218198   4.555719   5.357292   6.747701   7.790664
    21  H    3.580179   4.884408   5.667767   7.045278   8.071893
                    6          7          8          9         10
     6  F    0.000000
     7  F    2.183809   0.000000
     8  F    2.183834   2.172670   0.000000
     9  C    2.702654   3.416807   3.416477   0.000000
    10  N    4.064221   4.546034   4.545756   1.361573   0.000000
    11  C    5.023019   5.004620   5.004549   2.462517   1.389157
    12  S    6.618222   6.622926   6.622828   3.966382   2.667332
    13  H    4.068482   2.867355   2.868068   3.397019   3.809445
    14  H    2.417382   3.734964   3.734451   1.083334   2.089251
    15  H    4.651369   5.391592   5.391203   2.062399   1.019792
    16  X    5.656396   4.582262   4.582791   4.209955   4.003100
    17  X    4.688359   3.779298   3.779745   3.247921   3.207749
    18  H    8.098900   6.999749   7.000245   6.348369   5.747736
    19  X    7.874629   6.599290   6.599910   6.427977   6.030347
    20  O    9.021063   7.850162   7.850694   7.305568   6.687903
    21  H    9.299702   8.243157   7.995738   7.602244   6.986085
                   11         12         13         14         15
    11  C    0.000000
    12  S    1.651971   0.000000
    13  H    3.454637   4.885889   0.000000
    14  H    3.396789   4.749842   4.338454   0.000000
    15  H    2.026007   2.720986   4.828927   2.353252   0.000000
    16  X    3.029321   3.954442   1.827550   5.282889   4.923419
    17  X    2.491726   3.765549   1.206572   4.309943   4.186072
    18  H    4.436482   4.448670   4.268302   7.428352   6.456281
    19  X    4.822938   5.129114   3.869502   7.508968   6.841050
    20  O    5.359600   5.233392   5.120915   8.385472   7.369859
    21  H    5.669088   5.517187   5.420036   8.675080   7.656881
                   16         17         18         19         20
    16  X    0.000000
    17  X    1.000000   0.000000
    18  H    2.472269   3.410881   0.000000
    19  X    2.260998   3.260998   1.000000   0.000000
    20  O    3.369985   4.335112   0.957200   1.384280   0.000000
    21  H    3.717215   4.661980   1.513901   1.814358   0.957200
                   21
    21  H    0.000000
 Symmetry turned off by external request.
 Stoichiometry    C6H5F4NOS
 Framework group  C1[X(C6H5F4NOS)]
 Deg. of freedom    48
 Full point group                 C1      NOp   1
 Rotational constants (GHZ):      0.9591107      0.3348203      0.2598361
 Standard basis: 6-31G(d) (6D, 7F)
 Integral buffers will be    131072 words long.
 Raffenetti 1 integral format.
 Two-electron integral symmetry is turned off.
   209 basis functions,   408 primitive gaussians,   209 cartesian basis functions
    54 alpha electrons       54 beta electrons
       nuclear repulsion energy       902.5428568635 Hartrees.
 NAtoms=   18 NActive=   18 NUniq=   18 SFac= 7.50D-01 NAtFMM=   80 NAOKFM=F Big=F
 One-electron integrals computed using PRISM.
 NBasis=   209 RedAO= T  NBF=   209
 NBsUse=   209 1.00D-06 NBFU=   209
 Initial guess read from the read-write file.
 B after Tr=     0.000000    0.000000    0.000000
         Rot=    1.000000    0.000000    0.000000    0.000000 Ang=   0.00 deg.
 Harris functional with IExCor=  205 diagonalized for initial guess.
 ExpMin= 1.17D-01 ExpMax= 2.19D+04 ExpMxC= 3.30D+03 IAcc=1 IRadAn=         1 AccDes= 0.00D+00
 HarFok:  IExCor=  205 AccDes= 0.00D+00 IRadAn=         1 IDoV= 1
 ScaDFX=  1.000000  1.000000  1.000000  1.000000
 FoFCou: FMM=F IPFlag=           0 FMFlag=      100000 FMFlg1=           0
         NFxFlg=           0 DoJE=T BraDBF=F KetDBF=T FulRan=T
         Omega=  0.000000  0.000000  1.000000  0.000000  0.000000 ICntrl=     500 IOpCl=  0
         NMat0=    1 NMatS0=    1 NMatT0=    0 NMatD0=    1 NMtDS0=    0 NMtDT0=    0
         I1Cent=           4 NGrid=           0.
 Symmetry not used in FoFCou.
 Requested convergence on RMS density matrix=1.00D-08 within 128 cycles.
 Requested convergence on MAX density matrix=1.00D-06.
 Requested convergence on             energy=1.00D-06.
 No special actions if energy rises.
 Integral accuracy reduced to 1.0D-05 until final iterations.
 Initial convergence to 1.0D-05 achieved.  Increase integral accuracy.
 SCF Done:  E(RHF) =  -1154.67550458     A.U. after    8 cycles
             Convg  =    0.6165D-08             -V/T =  2.0018
 Calling FoFJK, ICntrl=      2127 FMM=F ISym2X=0 I1Cent= 0 IOpClX= 0 NMat=1 NMatS=1 NMatT=0.
 -------------------------------------------------------------------
 Center     Atomic                   Forces (Hartrees/Bohr)
 Number     Number              X              Y              Z
 -------------------------------------------------------------------
      1        9           0.000000000    0.000000000    0.000000000
      2        6           0.000000000    0.000000000    0.000000000
      3        6           0.000000000    0.000000000    0.000000000
      4        6           0.000000000    0.000000000    0.000000000
      5        6           0.000000000    0.000000000    0.000000000
      6        9           0.000000000    0.000000000    0.000000000
      7        9           0.000000000    0.000000000    0.000000000
      8        9           0.000000000    0.000000000    0.000000000
      9        6           0.000000000    0.000000000    0.000000000
     10        7           0.000000000    0.000000000    0.000000000
     11        6           0.000000000    0.000000000    0.000000000
     12       16           0.000000000    0.000000000    0.000000000
     13        1           0.000000000    0.000000000    0.000000000
     14        1           0.000000000    0.000000000    0.000000000
     15        1           0.000000000    0.000000000    0.000000000
     16        1          -0.007144311    0.007772456   -0.001565845
     17        8           0.006100808   -0.005948468    0.012059701
     18        1           0.000506034   -0.001860188   -0.010754521
 -------------------------------------------------------------------
 Cartesian Forces:  Max     0.012059701 RMS     0.002890984
 -----------------------------------------------------------------------------------------------
                       Internal Coordinate Forces (Hartree/Bohr or radian)
  Cent   Atom   N1       Length/X         N2         Alpha/Y        N3         Beta/Z          J
 -----------------------------------------------------------------------------------------------
      1  F 
      2  C 
      3  C 
      4  C 
      5  C 
      6  F 
      7  F 
      8  F 
      9  C 
     10  N 
     11  C 
     12  S 
     13  H 
     14  H 
     15  H 
         X        1   0.000000(     1)      2   0.000248(     7)      3  -0.001084(    13)     0
         X       16   0.000000(     2)      1   0.000000(     8)      2  -0.000432(    14)     0
     16  H        1   0.000270(     3)     16   0.000248(     9)     17   0.000432(    15)     0
         X       18   0.000000(     4)      1  -0.001743(    10)     16   0.000000(    16)     0
     17  O       18  -0.010167(     5)     19  -0.001743(    11)      1  -0.003132(    17)     0
     18  H       20  -0.010869(     6)     18   0.001680(    12)     16  -0.001084(    18)     0
 -----------------------------------------------------------------------------------------------
 Internal  Forces:  Max     0.010868784 RMS     0.003675229

 GradGradGradGradGradGradGradGradGradGradGradGradGradGradGradGradGradGrad
 Berny optimization.
 Search for a local minimum.
 Step number   3 out of a maximum of   20
 All quantities printed in internal units (Hartrees-Bohrs-Radians)
 Update second derivatives using D2CorN and points    2    3
 DE= -8.82D-06 DEPred=-8.76D-06 R= 1.01D+00
 SS=  1.41D+00  RLast= 2.78D-02 DXNew= 5.0454D-01 8.3519D-02
 Trust test= 1.01D+00 RLast= 2.78D-02 DXMaxT set to 3.00D-01
 The second derivative matrix:
                          RX       RDUM       ROH      ADUM      AHOH
           RX           0.00338
           RDUM         0.00000   0.00000
           ROH         -0.00001   0.00000   1.12160
           ADUM        -0.00160   0.00000   0.00000   1.64000
           AHOH         0.00030   0.00000   0.00000   0.00000   0.16000
           DDUM        -0.00031   0.00000   0.00000   0.00001   0.00000
           DH1          0.00009   0.00000   0.00000  -0.00001   0.00000
           DOH2        -0.00009   0.00000   0.00000  -0.00002   0.00000
           DH2         -0.00022   0.00000   0.00000   0.00000   0.00000
                         DDUM       DH1      DOH2       DH2
           DDUM         0.23254
           DH1         -0.23254   0.23254
           DOH2         0.00000   0.00000   0.36335
           DH2          0.00000   0.00000   0.00000   0.00000
     Eigenvalues ---    0.003381000.000001000.000001000.000001000.00000
     Eigenvalues --- 1000.000001000.000001000.000001000.00000
 RFO step:  Lambda= 0.00000000D+00 EMin= 3.37793867D-03
 Quartic linear search produced a step of  2.00000.
 Variable       Old X    -DE/DX   Delta X   Delta X   Delta X     New X
                                 (Linear)    (Quad)   (Total)
    RX        4.27267   0.00027   0.05568   0.00000   0.05568   4.32835
   RDUM       1.88973   0.00000   0.00000   0.00000   0.00000   1.88973
   ROH        1.80885  -0.02104   0.00000   0.00000   0.00000   1.80885
   ADUM       1.57080  -0.00299   0.00000   0.00000   0.00000   1.57080
   AHOH       1.82422   0.00168   0.00000   0.00000   0.00000   1.82422
   DDUM       0.00000  -0.00152   0.00000   0.00000   0.00000   0.00000
   DH1        3.14159   0.00043   0.00000   0.00000   0.00000   3.14159
   DOH2       3.14159  -0.00313   0.00000   0.00000   0.00000   3.14159
   DH2        4.71239  -0.00108   0.00000   0.00000   0.00000   4.71239
         Item               Value     Threshold  Converged?
 Maximum Force            0.000270     0.000450     YES
 RMS     Force            0.000270     0.000300     YES
 Maximum Displacement     0.055679     0.001800     NO 
 RMS     Displacement     0.018560     0.001200     NO 
 Predicted change in Energy=-9.806152D-06
 GradGradGradGradGradGradGradGradGradGradGradGradGradGradGradGradGradGrad

 ---------------------------------------------------------------------------------------------------
                            Z-MATRIX (ANGSTROMS AND DEGREES)
   CD    Cent   Atom    N1       Length/X        N2       Alpha/Y        N3        Beta/Z          J
 ---------------------------------------------------------------------------------------------------
      1      1  F       -1  -1.969300          2.053680          0.000070
      2      2  C       -1  -1.222250          0.944230          0.000030
      3      3  C       -1   0.140030          1.057400         -0.000020
      4      4  C       -1   0.927950         -0.123640         -0.000080
      5      5  C       -1   2.414660         -0.018650         -0.000010
      6      6  F       -1   3.007080         -1.234610         -0.000560
      7      7  F       -1   2.858290          0.654480         -1.086020
      8      8  F       -1   2.858270          0.653500          1.086650
      9      9  C       -1   0.306540         -1.341490         -0.000090
     10     10  N       -1  -1.054170         -1.389970         -0.000060
     11     11  C       -1  -1.930500         -0.312100          0.000000
     12     12  S       -1  -3.570980         -0.506610          0.000030
     13     13  H       -1   0.596860          2.043100         -0.000020
     14     14  H       -1   0.831760         -2.288990         -0.000150
     15     15  H       -1  -1.521480         -2.296390         -0.000090
     16         X        1   1.000000(    15)      2   90.000(    34)      3    0.000(    52)      0
     17         X       16   1.000000(    16)      1   90.000(    35)      2    0.000(    53)      0
     18     16  H        1   2.290462(    17)     16   90.000(    36)     17  180.000(    54)      0
     19         X       18   1.000000(    18)      1   90.000(    37)     16    0.000(    55)      0
     20     17  O       18   0.957200(    19)     19   90.000(    38)      1  180.000(    56)      0
     21     18  H       20   0.957200(    20)     18  104.520(    39)     16  270.000(    57)      0
 ---------------------------------------------------------------------------------------------------
                         Z-Matrix orientation:                         
 ---------------------------------------------------------------------
 Center     Atomic      Atomic             Coordinates (Angstroms)
 Number     Number       Type             X           Y           Z
 ---------------------------------------------------------------------
      1          9           0       -1.969300    2.053680    0.000070
      2          6           0       -1.222250    0.944230    0.000030
      3          6           0        0.140030    1.057400   -0.000020
      4          6           0        0.927950   -0.123640   -0.000080
      5          6           0        2.414660   -0.018650   -0.000010
      6          9           0        3.007080   -1.234610   -0.000560
      7          9           0        2.858290    0.654480   -1.086020
      8          9           0        2.858270    0.653500    1.086650
      9          6           0        0.306540   -1.341490   -0.000090
     10          7           0       -1.054170   -1.389970   -0.000060
     11          6           0       -1.930500   -0.312100    0.000000
     12         16           0       -3.570980   -0.506610    0.000030
     13          1           0        0.596860    2.043100   -0.000020
     14          1           0        0.831760   -2.288990   -0.000150
     15          1           0       -1.521480   -2.296390   -0.000090
     16         -1           0       -1.139818    2.612213    0.000045
     17         -1           0       -0.581285    1.782731    0.000015
     18          1           0       -3.248599    3.953578    0.000138
     19         -1           0       -2.419117    4.512111    0.000113
     20          8           0       -3.783227    4.747558    0.000167
     21          1           0       -3.917233    4.946613    0.926802
 ---------------------------------------------------------------------
                    Distance matrix (angstroms):
                    1          2          3          4          5
     1  F    0.000000
     2  C    1.337521   0.000000
     3  C    2.332777   1.366973   0.000000
     4  C    3.624194   2.400772   1.419744   0.000000
     5  C    4.849088   3.762214   2.516312   1.490413   0.000000
     6  F    5.964663   4.757581   3.670597   2.357337   1.352598
     7  F    5.142274   4.232525   2.954772   2.347541   1.352527
     8  F    5.142625   4.232719   2.955134   2.347566   1.352555
     9  C    4.087374   2.749857   2.404662   1.367227   2.488790
    10  N    3.563171   2.340244   2.723184   2.352104   3.730054
    11  C    2.366098   1.442215   2.482463   2.864656   4.355058
    12  S    3.020011   2.760701   4.027123   4.515201   6.005497
    13  H    2.566182   2.125247   1.086415   2.191890   2.748674
    14  H    5.167661   3.830492   3.417136   2.167485   2.767673
    15  H    4.373060   3.254406   3.742796   3.274225   4.547669
    16  X    1.000000   1.670019   2.013816   3.429367   4.422189
    17  X    1.414214   1.055424   1.022937   2.431469   3.495806
    18  H    2.290462   3.627984   4.457651   5.836717   6.917449
    19  X    2.499243   3.763278   4.299333   5.717783   6.625194
    20  O    3.247662   4.585184   5.386020   6.776707   7.818603
    21  H    3.608648   4.913340   5.696171   7.074064   8.099734
                    6          7          8          9         10
     6  F    0.000000
     7  F    2.183809   0.000000
     8  F    2.183834   2.172670   0.000000
     9  C    2.702654   3.416807   3.416477   0.000000
    10  N    4.064221   4.546034   4.545756   1.361573   0.000000
    11  C    5.023019   5.004620   5.004549   2.462517   1.389157
    12  S    6.618222   6.622926   6.622828   3.966382   2.667332
    13  H    4.068482   2.867355   2.868068   3.397019   3.809445
    14  H    2.417382   3.734964   3.734451   1.083334   2.089251
    15  H    4.651369   5.391592   5.391203   2.062399   1.019792
    16  X    5.656396   4.582262   4.582791   4.209955   4.003100
    17  X    4.688359   3.779298   3.779745   3.247921   3.207749
    18  H    8.127165   7.025517   7.026014   6.377833   5.776593
    19  X    7.903696   6.626615   6.627236   6.457078   6.057858
    20  O    9.049564   7.876728   7.877261   7.335033   6.716919
    21  H    9.328110   8.269315   8.022706   7.631489   7.014876
                   11         12         13         14         15
    11  C    0.000000
    12  S    1.651971   0.000000
    13  H    3.454637   4.885889   0.000000
    14  H    3.396789   4.749842   4.338454   0.000000
    15  H    2.026007   2.720986   4.828927   2.353252   0.000000
    16  X    3.029321   3.954442   1.827550   5.282889   4.923419
    17  X    2.491726   3.765549   1.206572   4.309943   4.186072
    18  H    4.464683   4.471823   4.293889   7.457814   6.484214
    19  X    4.848892   5.149208   3.897709   7.538115   6.867418
    20  O    5.388204   5.258453   5.147743   8.414934   7.398155
    21  H    5.697380   5.542241   5.446689   8.704374   7.685041
                   16         17         18         19         20
    16  X    0.000000
    17  X    1.000000   0.000000
    18  H    2.499243   3.439061   0.000000
    19  X    2.290462   3.290462   1.000000   0.000000
    20  O    3.398133   4.363787   0.957200   1.384280   0.000000
    21  H    3.744641   4.690164   1.513901   1.814358   0.957200
                   21
    21  H    0.000000
 Symmetry turned off by external request.
 Stoichiometry    C6H5F4NOS
 Framework group  C1[X(C6H5F4NOS)]
 Deg. of freedom    48
 Full point group                 C1      NOp   1
 Rotational constants (GHZ):      0.9556843      0.3339482      0.2590594
 Standard basis: 6-31G(d) (6D, 7F)
 Integral buffers will be    131072 words long.
 Raffenetti 1 integral format.
 Two-electron integral symmetry is turned off.
   209 basis functions,   408 primitive gaussians,   209 cartesian basis functions
    54 alpha electrons       54 beta electrons
       nuclear repulsion energy       902.0605073780 Hartrees.
 NAtoms=   18 NActive=   18 NUniq=   18 SFac= 7.50D-01 NAtFMM=   80 NAOKFM=F Big=F
 One-electron integrals computed using PRISM.
 NBasis=   209 RedAO= T  NBF=   209
 NBsUse=   209 1.00D-06 NBFU=   209
 Initial guess read from the read-write file.
 B after Tr=     0.000000    0.000000    0.000000
         Rot=    1.000000    0.000000    0.000000    0.000000 Ang=   0.00 deg.
 Harris functional with IExCor=  205 diagonalized for initial guess.
 ExpMin= 1.17D-01 ExpMax= 2.19D+04 ExpMxC= 3.30D+03 IAcc=1 IRadAn=         1 AccDes= 0.00D+00
 HarFok:  IExCor=  205 AccDes= 0.00D+00 IRadAn=         1 IDoV= 1
 ScaDFX=  1.000000  1.000000  1.000000  1.000000
 FoFCou: FMM=F IPFlag=           0 FMFlag=      100000 FMFlg1=           0
         NFxFlg=           0 DoJE=T BraDBF=F KetDBF=T FulRan=T
         Omega=  0.000000  0.000000  1.000000  0.000000  0.000000 ICntrl=     500 IOpCl=  0
         NMat0=    1 NMatS0=    1 NMatT0=    0 NMatD0=    1 NMtDS0=    0 NMtDT0=    0
         I1Cent=           4 NGrid=           0.
 Symmetry not used in FoFCou.
 Requested convergence on RMS density matrix=1.00D-08 within 128 cycles.
 Requested convergence on MAX density matrix=1.00D-06.
 Requested convergence on             energy=1.00D-06.
 No special actions if energy rises.
 Integral accuracy reduced to 1.0D-05 until final iterations.
 Initial convergence to 1.0D-05 achieved.  Increase integral accuracy.
 SCF Done:  E(RHF) =  -1154.67551478     A.U. after    9 cycles
             Convg  =    0.6373D-08             -V/T =  2.0018
 Calling FoFJK, ICntrl=      2127 FMM=F ISym2X=0 I1Cent= 0 IOpClX= 0 NMat=1 NMatS=1 NMatT=0.
 -------------------------------------------------------------------
 Center     Atomic                   Forces (Hartrees/Bohr)
 Number     Number              X              Y              Z
 -------------------------------------------------------------------
      1        9           0.000000000    0.000000000    0.000000000
      2        6           0.000000000    0.000000000    0.000000000
      3        6           0.000000000    0.000000000    0.000000000
      4        6           0.000000000    0.000000000    0.000000000
      5        6           0.000000000    0.000000000    0.000000000
      6        9           0.000000000    0.000000000    0.000000000
      7        9           0.000000000    0.000000000    0.000000000
      8        9           0.000000000    0.000000000    0.000000000
      9        6           0.000000000    0.000000000    0.000000000
     10        7           0.000000000    0.000000000    0.000000000
     11        6           0.000000000    0.000000000    0.000000000
     12       16           0.000000000    0.000000000    0.000000000
     13        1           0.000000000    0.000000000    0.000000000
     14        1           0.000000000    0.000000000    0.000000000
     15        1           0.000000000    0.000000000    0.000000000
     16        1          -0.007033264    0.007653155   -0.001547644
     17        8           0.006078157   -0.005965077    0.012033543
     18        1           0.000518019   -0.001861686   -0.010741010
 -------------------------------------------------------------------
 Cartesian Forces:  Max     0.012033543 RMS     0.002876690
 -----------------------------------------------------------------------------------------------
                       Internal Coordinate Forces (Hartree/Bohr or radian)
  Cent   Atom   N1       Length/X         N2         Alpha/Y        N3         Beta/Z          J
 -----------------------------------------------------------------------------------------------
      1  F 
      2  C 
      3  C 
      4  C 
      5  C 
      6  F 
      7  F 
      8  F 
      9  C 
     10  N 
     11  C 
     12  S 
     13  H 
     14  H 
     15  H 
         X        1   0.000000(     1)      2   0.000276(     7)      3  -0.001068(    13)     0
         X       16   0.000000(     2)      1   0.000000(     8)      2  -0.000426(    14)     0
     16  H        1   0.000100(     3)     16   0.000276(     9)     17   0.000426(    15)     0
         X       18   0.000000(     4)      1  -0.001713(    10)     16   0.000000(    16)     0
     17  O       18  -0.010176(     5)     19  -0.001713(    11)      1  -0.003125(    17)     0
     18  H       20  -0.010858(     6)     18   0.001660(    12)     16  -0.001068(    18)     0
 -----------------------------------------------------------------------------------------------
 Internal  Forces:  Max     0.010857695 RMS     0.003671507

 GradGradGradGradGradGradGradGradGradGradGradGradGradGradGradGradGradGrad
 Berny optimization.
 Search for a local minimum.
 Step number   4 out of a maximum of   20
 All quantities printed in internal units (Hartrees-Bohrs-Radians)
 Update second derivatives using D2CorN and points    3    4
 DE= -1.02D-05 DEPred=-9.81D-06 R= 1.04D+00
 SS=  1.41D+00  RLast= 5.57D-02 DXNew= 5.0454D-01 1.6704D-01
 Trust test= 1.04D+00 RLast= 5.57D-02 DXMaxT set to 3.00D-01
 The second derivative matrix:
                          RX       RDUM       ROH      ADUM      AHOH
           RX           0.00305
           RDUM         0.00000   0.00000
           ROH         -0.00002   0.00000   1.12160
           ADUM        -0.00184   0.00000   0.00000   1.64000
           AHOH         0.00033   0.00000   0.00000   0.00000   0.16000
           DDUM        -0.00036   0.00000   0.00000   0.00001   0.00000
           DH1          0.00011   0.00000   0.00000  -0.00001   0.00000
           DOH2        -0.00011   0.00000   0.00000  -0.00002   0.00000
           DH2         -0.00025   0.00000   0.00000   0.00000   0.00000
                         DDUM       DH1      DOH2       DH2
           DDUM         0.23254
           DH1         -0.23254   0.23254
           DOH2         0.00000   0.00000   0.36335
           DH2          0.00000   0.00000   0.00000   0.00000
     Eigenvalues ---    0.003051000.000001000.000001000.000001000.00000
     Eigenvalues --- 1000.000001000.000001000.000001000.00000
 RFO step:  Lambda= 0.00000000D+00 EMin= 3.05397691D-03
 Quartic linear search produced a step of  0.66106.
 Variable       Old X    -DE/DX   Delta X   Delta X   Delta X     New X
                                 (Linear)    (Quad)   (Total)
    RX        4.32835   0.00010   0.03681   0.00000   0.03681   4.36515
   RDUM       1.88973   0.00000   0.00000   0.00000   0.00000   1.88973
   ROH        1.80885  -0.02103   0.00000   0.00000   0.00000   1.80885
   ADUM       1.57080  -0.00287   0.00000   0.00000   0.00000   1.57080
   AHOH       1.82422   0.00166   0.00000   0.00000   0.00000   1.82422
   DDUM       0.00000  -0.00149   0.00000   0.00000   0.00000   0.00000
   DH1        3.14159   0.00043   0.00000   0.00000   0.00000   3.14159
   DOH2       3.14159  -0.00312   0.00000   0.00000   0.00000   3.14159
   DH2        4.71239  -0.00107   0.00000   0.00000   0.00000   4.71239
         Item               Value     Threshold  Converged?
 Maximum Force            0.000100     0.000450     YES
 RMS     Force            0.000100     0.000300     YES
 Maximum Displacement     0.036808     0.001800     NO 
 RMS     Displacement     0.012269     0.001200     NO 
 Predicted change in Energy=-1.616262D-06
 GradGradGradGradGradGradGradGradGradGradGradGradGradGradGradGradGradGrad

 ---------------------------------------------------------------------------------------------------
                            Z-MATRIX (ANGSTROMS AND DEGREES)
   CD    Cent   Atom    N1       Length/X        N2       Alpha/Y        N3        Beta/Z          J
 ---------------------------------------------------------------------------------------------------
      1      1  F       -1  -1.969300          2.053680          0.000070
      2      2  C       -1  -1.222250          0.944230          0.000030
      3      3  C       -1   0.140030          1.057400         -0.000020
      4      4  C       -1   0.927950         -0.123640         -0.000080
      5      5  C       -1   2.414660         -0.018650         -0.000010
      6      6  F       -1   3.007080         -1.234610         -0.000560
      7      7  F       -1   2.858290          0.654480         -1.086020
      8      8  F       -1   2.858270          0.653500          1.086650
      9      9  C       -1   0.306540         -1.341490         -0.000090
     10     10  N       -1  -1.054170         -1.389970         -0.000060
     11     11  C       -1  -1.930500         -0.312100          0.000000
[...]
 !      DOH2       180.0      -DE/DX =   -0.0031                        !
 !       DH2       270.0      -DE/DX =   -0.0011                        !
 ------------------------------------------------------------------------
 GradGradGradGradGradGradGradGradGradGradGradGradGradGradGradGradGradGrad

 ---------------------------------------------------------------------------------------------------
                            Z-MATRIX (ANGSTROMS AND DEGREES)
   CD    Cent   Atom    N1       Length/X        N2       Alpha/Y        N3        Beta/Z          J
 ---------------------------------------------------------------------------------------------------
      1      1  F       -1  -1.969300          2.053680          0.000070
      2      2  C       -1  -1.222250          0.944230          0.000030
      3      3  C       -1   0.140030          1.057400         -0.000020
      4      4  C       -1   0.927950         -0.123640         -0.000080
      5      5  C       -1   2.414660         -0.018650         -0.000010
      6      6  F       -1   3.007080         -1.234610         -0.000560
      7      7  F       -1   2.858290          0.654480         -1.086020
      8      8  F       -1   2.858270          0.653500          1.086650
      9      9  C       -1   0.306540         -1.341490         -0.000090
     10     10  N       -1  -1.054170         -1.389970         -0.000060
     11     11  C       -1  -1.930500         -0.312100          0.000000
     12     12  S       -1  -3.570980         -0.506610          0.000030
     13     13  H       -1   0.596860          2.043100         -0.000020
     14     14  H       -1   0.831760         -2.288990         -0.000150
     15     15  H       -1  -1.521480         -2.296390         -0.000090
     16         X        1   1.000000(    15)      2   90.000(    34)      3    0.000(    52)      0
     17         X       16   1.000000(    16)      1   90.000(    35)      2    0.000(    53)      0
     18     16  H        1   2.309940(    17)     16   90.000(    36)     17  180.000(    54)      0
     19         X       18   1.000000(    18)      1   90.000(    37)     16    0.000(    55)      0
     20     17  O       18   0.957200(    19)     19   90.000(    38)      1  180.000(    56)      0
     21     18  H       20   0.957200(    20)     18  104.520(    39)     16  270.000(    57)      0
 ---------------------------------------------------------------------------------------------------
                         Z-Matrix orientation:                         
 ---------------------------------------------------------------------
 Center     Atomic      Atomic             Coordinates (Angstroms)
 Number     Number       Type             X           Y           Z
 ---------------------------------------------------------------------
      1          9           0       -1.969300    2.053680    0.000070
      2          6           0       -1.222250    0.944230    0.000030
      3          6           0        0.140030    1.057400   -0.000020
      4          6           0        0.927950   -0.123640   -0.000080
      5          6           0        2.414660   -0.018650   -0.000010
      6          9           0        3.007080   -1.234610   -0.000560
      7          9           0        2.858290    0.654480   -1.086020
      8          9           0        2.858270    0.653500    1.086650
      9          6           0        0.306540   -1.341490   -0.000090
     10          7           0       -1.054170   -1.389970   -0.000060
     11          6           0       -1.930500   -0.312100    0.000000
     12         16           0       -3.570980   -0.506610    0.000030
     13          1           0        0.596860    2.043100   -0.000020
     14          1           0        0.831760   -2.288990   -0.000150
     15          1           0       -1.521480   -2.296390   -0.000090
     16         -1           0       -1.139818    2.612213    0.000045
     17         -1           0       -0.581285    1.782731    0.000015
     18          1           0       -3.259478    3.969734    0.000139
     19         -1           0       -2.429996    4.528267    0.000114
     20          8           0       -3.794106    4.763714    0.000168
     21          1           0       -3.928112    4.962770    0.926802
 ---------------------------------------------------------------------
                    Distance matrix (angstroms):
                    1          2          3          4          5
     1  F    0.000000
     2  C    1.337521   0.000000
     3  C    2.332777   1.366973   0.000000
     4  C    3.624194   2.400772   1.419744   0.000000
     5  C    4.849088   3.762214   2.516312   1.490413   0.000000
     6  F    5.964663   4.757581   3.670597   2.357337   1.352598
     7  F    5.142274   4.232525   2.954772   2.347541   1.352527
     8  F    5.142625   4.232719   2.955134   2.347566   1.352555
     9  C    4.087374   2.749857   2.404662   1.367227   2.488790
    10  N    3.563171   2.340244   2.723184   2.352104   3.730054
    11  C    2.366098   1.442215   2.482463   2.864656   4.355058
    12  S    3.020011   2.760701   4.027123   4.515201   6.005497
    13  H    2.566182   2.125247   1.086415   2.191890   2.748674
    14  H    5.167661   3.830492   3.417136   2.167485   2.767673
    15  H    4.373060   3.254406   3.742796   3.274225   4.547669
    16  X    1.000000   1.670019   2.013816   3.429367   4.422189
    17  X    1.414214   1.055424   1.022937   2.431469   3.495806
    18  H    2.309940   3.647461   4.476421   5.855789   6.935636
    19  X    2.517106   3.782060   4.318791   5.737251   6.644182
    20  O    3.267140   4.604661   5.405016   6.795885   7.837078
    21  H    3.627476   4.932470   5.714953   7.093096   8.118145
                    6          7          8          9         10
     6  F    0.000000
     7  F    2.183809   0.000000
     8  F    2.183834   2.172670   0.000000
     9  C    2.702654   3.416807   3.416477   0.000000
    10  N    4.064221   4.546034   4.545756   1.361573   0.000000
    11  C    5.023019   5.004620   5.004549   2.462517   1.389157
    12  S    6.618222   6.622926   6.622828   3.966382   2.667332
    13  H    4.068482   2.867355   2.868068   3.397019   3.809445
    14  H    2.417382   3.734964   3.734451   1.083334   2.089251
    15  H    4.651369   5.391592   5.391203   2.062399   1.019792
    16  X    5.656396   4.582262   4.582791   4.209955   4.003100
    17  X    4.688359   3.779298   3.779745   3.247921   3.207749
    18  H    8.145855   7.042566   7.043065   6.397311   5.795672
    19  X    7.922913   6.644688   6.645310   6.476317   6.076054
    20  O    9.068408   7.894301   7.894835   7.354510   6.736103
    21  H    9.346893   8.286620   8.040543   7.650823   7.033912
                   11         12         13         14         15
    11  C    0.000000
    12  S    1.651971   0.000000
    13  H    3.454637   4.885889   0.000000
    14  H    3.396789   4.749842   4.338454   0.000000
    15  H    2.026007   2.720986   4.828927   2.353252   0.000000
    16  X    3.029321   3.954442   1.827550   5.282889   4.923419
    17  X    2.491726   3.765549   1.206572   4.309943   4.186072
    18  H    4.483334   4.487169   4.310831   7.477289   6.502688
    19  X    4.866072   5.162541   3.916365   7.557384   6.884864
    20  O    5.407118   5.275046   5.165494   8.434410   7.416866
    21  H    5.716088   5.558828   5.464325   8.723740   7.703662
                   16         17         18         19         20
    16  X    0.000000
    17  X    1.000000   0.000000
    18  H    2.517106   3.457702   0.000000
    19  X    2.309940   3.309940   1.000000   0.000000
    20  O    3.416753   4.382749   0.957200   1.384280   0.000000
    21  H    3.762789   4.708804   1.513901   1.814358   0.957200
                   21
    21  H    0.000000
 Symmetry turned off by external request.
 Stoichiometry    C6H5F4NOS
 Framework group  C1[X(C6H5F4NOS)]
 Deg. of freedom    48
 Full point group                 C1      NOp   1
 Rotational constants (GHZ):      0.9534374      0.3333702      0.2585465

 **********************************************************************

            Population analysis using the SCF density.

 **********************************************************************

 Alpha  occ. eigenvalues --  -91.90928 -26.37065 -26.36130 -26.36101 -26.34881
 Alpha  occ. eigenvalues --  -20.54246 -15.69160 -11.54443 -11.38346 -11.37869
 Alpha  occ. eigenvalues --  -11.36606 -11.31879 -11.30734  -8.92016  -6.60343
 Alpha  occ. eigenvalues --   -6.60066  -6.59941  -1.74304  -1.66142  -1.65308
 Alpha  occ. eigenvalues --   -1.64611  -1.35999  -1.32449  -1.17596  -1.12640
 Alpha  occ. eigenvalues --   -1.03406  -0.97572  -0.93137  -0.88743  -0.85475
 Alpha  occ. eigenvalues --   -0.83969  -0.83538  -0.77602  -0.76671  -0.74625
 Alpha  occ. eigenvalues --   -0.72817  -0.72346  -0.71922  -0.70815  -0.68863
 Alpha  occ. eigenvalues --   -0.67746  -0.67722  -0.66292  -0.64936  -0.63025
 Alpha  occ. eigenvalues --   -0.61283  -0.59835  -0.55409  -0.53053  -0.48078
 Alpha  occ. eigenvalues --   -0.47028  -0.43877  -0.34586  -0.31473
 Alpha virt. eigenvalues --    0.03997   0.08271   0.17294   0.22730   0.24114
 Alpha virt. eigenvalues --    0.24844   0.26026   0.26140   0.28754   0.32150
 Alpha virt. eigenvalues --    0.34765   0.36186   0.39846   0.40408   0.42224
 Alpha virt. eigenvalues --    0.43039   0.46195   0.49129   0.54143   0.55061
 Alpha virt. eigenvalues --    0.56265   0.59320   0.60859   0.63902   0.66463
 Alpha virt. eigenvalues --    0.67726   0.71484   0.72658   0.73295   0.74878
 Alpha virt. eigenvalues --    0.76756   0.77383   0.82371   0.84061   0.86926
 Alpha virt. eigenvalues --    0.88649   0.89646   0.91839   0.95256   0.99358
 Alpha virt. eigenvalues --    1.01807   1.02268   1.03049   1.04922   1.07453
 Alpha virt. eigenvalues --    1.08750   1.09585   1.13057   1.14676   1.14758
 Alpha virt. eigenvalues --    1.16480   1.17729   1.18422   1.19253   1.24234
 Alpha virt. eigenvalues --    1.28092   1.30533   1.31513   1.33103   1.33655
 Alpha virt. eigenvalues --    1.34557   1.38452   1.39254   1.41667   1.42207
 Alpha virt. eigenvalues --    1.43133   1.46365   1.50958   1.56442   1.60455
 Alpha virt. eigenvalues --    1.61546   1.62114   1.63374   1.63945   1.65035
 Alpha virt. eigenvalues --    1.66005   1.67030   1.68484   1.69357   1.70856
 Alpha virt. eigenvalues --    1.75687   1.75800   1.80264   1.83209   1.87879
 Alpha virt. eigenvalues --    1.89547   1.92226   1.93402   1.99885   2.03688
 Alpha virt. eigenvalues --    2.03887   2.05054   2.05657   2.08442   2.08489
 Alpha virt. eigenvalues --    2.09343   2.12191   2.12421   2.16898   2.19861
 Alpha virt. eigenvalues --    2.22100   2.22149   2.24135   2.28282   2.29206
 Alpha virt. eigenvalues --    2.30119   2.32303   2.33330   2.34654   2.35823
 Alpha virt. eigenvalues --    2.37303   2.38635   2.42507   2.44847   2.45121
 Alpha virt. eigenvalues --    2.46752   2.51767   2.60417   2.61342   2.64857
 Alpha virt. eigenvalues --    2.65356   2.68067   2.74744   2.82285   2.83591
 Alpha virt. eigenvalues --    2.84117   2.90959   2.92393   2.92816   2.96479
 Alpha virt. eigenvalues --    2.99992   3.07138   3.09092   3.16950   3.21779
 Alpha virt. eigenvalues --    3.29207   3.37234   3.38163   3.43619   3.44267
 Alpha virt. eigenvalues --    3.48740   3.70816   4.04037   4.36424   4.39581
 Alpha virt. eigenvalues --    4.44918   4.49583   4.60349   4.64019   4.68510
 Alpha virt. eigenvalues --    4.83700   5.02500   5.15395   5.59740   6.02321
          Condensed to atoms (all electrons):
              1          2          3          4          5          6
     1  F    9.171032   0.254647  -0.032225   0.002110  -0.000014   0.000000
     2  C    0.254647   4.597568   0.569345  -0.027055   0.000895  -0.000019
     3  C   -0.032225   0.569345   5.053340   0.359781  -0.011964   0.002206
     4  C    0.002110  -0.027055   0.359781   5.203640   0.415227  -0.045457
     5  C   -0.000014   0.000895  -0.011964   0.415227   3.547575   0.289570
     6  F    0.000000  -0.000019   0.002206  -0.045457   0.289570   9.187490
     7  F    0.000000   0.000293   0.005001  -0.055274   0.285252  -0.030790
     8  F    0.000000   0.000293   0.005002  -0.055254   0.284895  -0.030777
     9  C    0.000137  -0.023230  -0.055099   0.591468  -0.020772   0.005533
    10  N    0.001341  -0.054805  -0.021038  -0.035824   0.001216   0.000241
    11  C   -0.039346   0.380439  -0.077184  -0.001541   0.000068   0.000002
    12  S    0.003360  -0.085087   0.001599  -0.000029   0.000006   0.000000
    13  H   -0.000228  -0.017952   0.367784  -0.028705  -0.000296   0.000036
    14  H    0.000001  -0.000117   0.001836  -0.022365  -0.000146   0.005064
    15  H   -0.000018   0.003901  -0.000583   0.002342  -0.000014   0.000001
    16  H    0.009425  -0.000058   0.000036  -0.000001   0.000000   0.000000
    17  O   -0.000873   0.000031  -0.000001   0.000000   0.000000   0.000000
    18  H   -0.000023   0.000000   0.000000   0.000000   0.000000   0.000000
              7          8          9         10         11         12
     1  F    0.000000   0.000000   0.000137   0.001341  -0.039346   0.003360
     2  C    0.000293   0.000293  -0.023230  -0.054805   0.380439  -0.085087
     3  C    0.005001   0.005002  -0.055099  -0.021038  -0.077184   0.001599
     4  C   -0.055274  -0.055254   0.591468  -0.035824  -0.001541  -0.000029
     5  C    0.285252   0.284895  -0.020772   0.001216   0.000068   0.000006
     6  F   -0.030790  -0.030777   0.005533   0.000241   0.000002   0.000000
     7  F    9.200351  -0.033987   0.000538  -0.000006  -0.000002   0.000000
     8  F   -0.033987   9.201300   0.000534  -0.000006  -0.000002   0.000000
     9  C    0.000538   0.000534   4.733552   0.265984  -0.038390   0.003178
    10  N   -0.000006  -0.000006   0.265984   7.233395   0.214716  -0.103256
    11  C   -0.000002  -0.000002  -0.038390   0.214716   4.946708   0.446066
    12  S    0.000000   0.000000   0.003178  -0.103256   0.446066  15.947110
    13  H    0.000916   0.000912   0.002417  -0.000251   0.002551  -0.000055
    14  H    0.000084   0.000085   0.379467  -0.031950   0.000961  -0.000130
    15  H    0.000000   0.000000  -0.021445   0.309976  -0.017894   0.013502
    16  H    0.000000   0.000000   0.000000   0.000000   0.000033   0.000141
    17  O    0.000000   0.000000   0.000000   0.000000  -0.000002  -0.000006
    18  H    0.000000   0.000000   0.000000   0.000000   0.000000   0.000001
             13         14         15         16         17         18
     1  F   -0.000228   0.000001  -0.000018   0.009425  -0.000873  -0.000023
     2  C   -0.017952  -0.000117   0.003901  -0.000058   0.000031   0.000000
     3  C    0.367784   0.001836  -0.000583   0.000036  -0.000001   0.000000
     4  C   -0.028705  -0.022365   0.002342  -0.000001   0.000000   0.000000
     5  C   -0.000296  -0.000146  -0.000014   0.000000   0.000000   0.000000
     6  F    0.000036   0.005064   0.000001   0.000000   0.000000   0.000000
     7  F    0.000916   0.000084   0.000000   0.000000   0.000000   0.000000
     8  F    0.000912   0.000085   0.000000   0.000000   0.000000   0.000000
     9  C    0.002417   0.379467  -0.021445   0.000000   0.000000   0.000000
    10  N   -0.000251  -0.031950   0.309976   0.000000   0.000000   0.000000
    11  C    0.002551   0.000961  -0.017894   0.000033  -0.000002   0.000000
    12  S   -0.000055  -0.000130   0.013502   0.000141  -0.000006   0.000001
    13  H    0.389900  -0.000061   0.000008   0.000014   0.000000   0.000000
    14  H   -0.000061   0.379147  -0.002101   0.000000   0.000000   0.000000
    15  H    0.000008  -0.002101   0.269269   0.000000   0.000000   0.000000
    16  H    0.000014   0.000000   0.000000   0.301636   0.262479  -0.018389
    17  O    0.000000   0.000000   0.000000   0.262479   8.356037   0.265244
    18  H    0.000000   0.000000   0.000000  -0.018389   0.265244   0.324771
 Mulliken atomic charges:
              1
     1  F   -0.369323
     2  C    0.400913
     3  C   -0.167834
     4  C   -0.303060
     5  C    1.208503
     6  F   -0.383100
     7  F   -0.372378
     8  F   -0.372995
     9  C    0.176128
    10  N   -0.779733
    11  C    0.182815
    12  S   -0.226400
    13  H    0.283012
    14  H    0.290224
    15  H    0.443055
    16  H    0.444685
    17  O   -0.882908
    18  H    0.428396
 Sum of Mulliken atomic charges =   0.00000
 Mulliken charges with hydrogens summed into heavy atoms:
              1
     1  F   -0.369323
     2  C    0.400913
     3  C    0.115177
     4  C   -0.303060
     5  C    1.208503
     6  F   -0.383100
     7  F   -0.372378
     8  F   -0.372995
     9  C    0.466352
    10  N   -0.336677
    11  C    0.182815
    12  S   -0.226400
    17  O   -0.009827
 Sum of Mulliken charges with hydrogens summed into heavy atoms =   0.00000
 Electronic spatial extent (au):  <R**2>=           3957.1707
 Charge=              0.0000 electrons
 Dipole moment (field-independent basis, Debye):
    X=              4.5177    Y=             -4.1263    Z=              1.7031  Tot=              6.3511
 Quadrupole moment (field-independent basis, Debye-Ang):
   XX=           -111.4027   YY=            -82.0279   ZZ=            -80.2306
   XY=              9.8092   XZ=             -6.9192   YZ=              8.8257
 Traceless Quadrupole moment (field-independent basis, Debye-Ang):
   XX=            -20.1823   YY=              9.1925   ZZ=             10.9898
   XY=              9.8092   XZ=             -6.9192   YZ=              8.8257
 Octapole moment (field-independent basis, Debye-Ang**2):
  XXX=            210.5768  YYY=           -170.4871  ZZZ=              0.4222  XYY=             95.1258
  XXY=            -65.6318  XXZ=             27.2391  XZZ=             35.3465  YZZ=            -18.7978
  YYZ=             44.2988  XYZ=            -35.2992
 Hexadecapole moment (field-independent basis, Debye-Ang**3):
 XXXX=          -3399.7755 YYYY=          -1721.9827 ZZZZ=           -143.0562 XXXY=            491.3286
 XXXZ=           -106.2061 YYYX=            618.6294 YYYZ=            220.3573 ZZZX=             -1.9293
 ZZZY=              2.5369 XXYY=           -960.7345 XXZZ=           -513.5400 YYZZ=           -220.6006
 XXYZ=            138.9471 YYXZ=           -176.8030 ZZXY=             69.9585
 N-N= 9.017448050117D+02 E-N=-4.541071550170D+03  KE= 1.152543832823D+03
 1\1\GINC-B1\FOpt\RHF\6-31G(d)\C6H5F4N1O1S1\ANA\24-Sep-2021\1\\#HF/6-31
 G* Opt=Z-matrix NoSymm\\water interaction with atom F1\\0,1\F,-1,-1.96
 93,2.05368,0.00007\C,-1,-1.22225,0.94423,0.00003\C,-1,0.14003,1.0574,-
 0.00002\C,-1,0.92795,-0.12364,-0.00008\C,-1,2.41466,-0.01865,-0.00001\
 F,-1,3.00708,-1.23461,-0.00056\F,-1,2.85829,0.65448,-1.08602\F,-1,2.85
 827,0.6535,1.08665\C,-1,0.30654,-1.34149,-0.00009\N,-1,-1.05417,-1.389
 97,-0.00006\C,-1,-1.9305,-0.3121,0.\S,-1,-3.57098,-0.50661,0.00003\H,-
 1,0.59686,2.0431,-0.00002\H,-1,0.83176,-2.28899,-0.00015\H,-1,-1.52148
 ,-2.29639,-0.00009\X,1,RDUM,2,ADUM,3,DDUM,0\X,16,RDUM,1,ADUM,2,DDUM,0\
 H,1,RX,16,ADUM,17,DH1,0\X,18,RDUM,1,ADUM,16,DDUM,0\O,18,ROH,19,ADUM,1,
 DOH2,0\H,20,ROH,18,AHOH,16,DH2,0\\RX=2.3099401\RDUM=1.\ROH=0.9572\ADUM
 =90.\AHOH=104.52\DDUM=0.\DH1=180.\DOH2=180.\DH2=270.\\Version=EM64L-G0
 9RevA.01\HF=-1154.6755166\RMSD=7.623e-09\RMSF=2.868e-03\Dipole=1.77739
 79,-1.6233944,0.6700316\Quadrupole=-15.0050241,6.8344051,8.170619,7.29
 29165,-5.144281,6.5616788\PG=C01 [X(C6H5F4N1O1S1)]\\@


 ACCORDING TO HEN3RY, LIFE IS MUCH LIKE A SEWER........
 YOU GET OUT OF IT JUST WHAT YOU PUT INTO IT...........
                         TOM LEHRER - (THE 3 IS SILENT)
 Job cpu time:  0 days  0 hours  4 minutes 22.9 seconds.
 File lengths (MBytes):  RWF=     33 Int=      0 D2E=      0 Chk=      3 Scr=      1
 Normal termination of Gaussian 09 at Fri Sep 24 08:02:31 2021.
