 Entering Gaussian System, Link 0=g16
 Initial command:
 /home/alexey/programs//g16/l1.exe "/home/alexey/tmp/Gau-1343538.inp" -scrdir="/home/alexey/tmp/"
 Entering Link 1 = /home/alexey/programs//g16/l1.exe PID=   1343540.
  
 Copyright (c) 1988-2021, Gaussian, Inc.  All Rights Reserved.
  
 This is part of the Gaussian(R) 16 program.  It is based on
 the Gaussian(R) 09 system (copyright 2009, Gaussian, Inc.),
 the Gaussian(R) 03 system (copyright 2003, Gaussian, Inc.),
 the Gaussian(R) 98 system (copyright 1998, Gaussian, Inc.),
 the Gaussian(R) 94 system (copyright 1995, Gaussian, Inc.),
 the Gaussian 92(TM) system (copyright 1992, Gaussian, Inc.),
 the Gaussian 90(TM) system (copyright 1990, Gaussian, Inc.),
 the Gaussian 88(TM) system (copyright 1988, Gaussian, Inc.),
 the Gaussian 86(TM) system (copyright 1986, Carnegie Mellon
 University), and the Gaussian 82(TM) system (copyright 1983,
 Carnegie Mellon University). Gaussian is a federally registered
 trademark of Gaussian, Inc.
  
 This software contains proprietary and confidential information,
 including trade secrets, belonging to Gaussian, Inc.
  
 This software is provided under written license and may be
 used, copied, transmitted, or stored only in accord with that
 written license.
  
 The following legend is applicable only to US Government
 contracts under FAR:
  
                    RESTRICTED RIGHTS LEGEND
  
 Use, reproduction and disclosure by the US Government is
 subject to restrictions as set forth in subparagraphs (a)
 and (c) of the Commercial Computer Software - Restricted
 Rights clause in FAR 52.227-19.
  
 Gaussian, Inc.
 340 Quinnipiac St., Bldg. 40, Wallingford CT 06492
  
  
 ---------------------------------------------------------------
 Warning -- This program may not be used in any manner that
 competes with the business of Gaussian, Inc. or will provide
 assistance to any competitor of Gaussian, Inc.  The licensee
 of this program is prohibited from giving any competitor of
 Gaussian, Inc. access to this program.  By using this program,
 the user acknowledges that Gaussian, Inc. is engaged in the
 business of creating and licensing software in the field of
 computational chemistry and represents and warrants to the
 licensee that it is not a competitor of Gaussian, Inc. and that
 it will not use this program in any manner prohibited above.
 ---------------------------------------------------------------
  

 Cite this work as:
 Gaussian 16, Revision C.02,
 M. J. Frisch, G. W. Trucks, H. B. Schlegel, G. E. Scuseria, 
 M. A. Robb, J. R. Cheeseman, G. Scalmani, V. Barone, 
 G. A. Petersson, H. Nakatsuji, X. Li, M. Caricato, A. V. Marenich, 
 J. Bloino, B. G. Janesko, R. Gomperts, B. Mennucci, H. P. Hratchian, 
 J. V. Ortiz, A. F. Izmaylov, J. L. Sonnenberg, D. Williams-Young, 
 F. Ding, F. Lipparini, F. Egidi, J. Goings, B. Peng, A. Petrone, 
 T. Henderson, D. Ranasinghe, V. G. Zakrzewski, J. Gao, N. Rega, 
 G. Zheng, W. Liang, M. Hada, M. Ehara, K. Toyota, R. Fukuda, 
 J. Hasegawa, M. Ishida, T. Nakajima, Y. Honda, O. Kitao, H. Nakai, 
 T. Vreven, K. Throssell, J. A. Montgomery, Jr., J. E. Peralta, 
 F. Ogliaro, M. J. Bearpark, J. J. Heyd, E. N. Brothers, K. N. Kudin, 
 V. N. Staroverov, T. A. Keith, R. Kobayashi, J. Normand, 
 K. Raghavachari, A. P. Rendell, J. C. Burant, S. S. Iyengar, 
 J. Tomasi, M. Cossi, J. M. Millam, M. Klene, C. Adamo, R. Cammi, 
 J. W. Ochterski, R. L. Martin, K. Morokuma, O. Farkas, 
 J. B. Foresman, and D. J. Fox, Gaussian, Inc., Wallingford CT, 2019.
 
 ******************************************
 Gaussian 16:  ES64L-G16RevC.02  7-Dec-2021
                 1-Jul-2023 
 ******************************************
 %mem=8GB
 %NPROCS=4
 Will use up to    4 processors via shared memory.
 %NoSave
 ---------------------------------------------------------
 #MP2/6-31G* SCF=Tight Opt=(ModRedun, MaxCycle=20 ) NoSymm
 ---------------------------------------------------------
 1/6=20,18=120,19=15,38=1/1,3;
 2/9=110,12=2,15=1,17=6,18=5,40=1/2;
 3/5=1,6=6,7=1,11=9,25=1,30=1,71=1/1,2,3;
 4//1;
 5/5=2,32=2,38=5/2;
 8/6=4,10=2/1;
 9/15=2,16=-3/6;
 10/5=1,31=1/2;
 6/7=2,8=2,9=2,10=2/1;
 7/12=2,30=1/1,2,3,16;
 1/6=20,18=20,19=15/3(2);
 2/9=110,15=1/2;
 99//99;
 2/9=110,15=1/2;
 3/5=1,6=6,7=1,11=9,25=1,30=1,71=1/1,2,3;
 4/5=5,16=3,69=1/1;
 5/5=2,32=2,38=5/2;
 8/6=4,10=2/1;
 9/15=2,16=-3/6;
 10/5=1,31=1/2;
 7/12=2,30=1/1,2,3,16;
 1/6=20,18=20,19=15/3(-8);
 2/9=110,15=1/2;
 6/7=2,8=2,9=2,10=2/1;
 99/9=10/99;
 --------
 MolName:
 --------
 Symbolic Z-matrix:
 Charge =  0 Multiplicity = 1
 8                    0    -3.66629  -1.3215   -0.19242 
 7                    0    -3.24945  -0.1718   -0.07107 
 8                    0    -3.99195   0.81417  -0.10892 
 6                    0    -1.71165  -0.03602  -0.06464 
 6                    0    -1.3815    1.28789   0.25916 
 7                    0    -0.10073   1.73572   0.44581 
 6                    0     1.18657   0.9743    0.39078 
 1                    0     1.85749   1.47589   1.13548 
 6                    0     1.92477   1.04431  -0.96942 
 6                    0     3.34954   0.48009  -0.80993 
 6                    0     3.32265  -0.93959  -0.22193 
 6                    0     2.50007  -0.99338   1.08325 
 6                    0     1.04941  -0.48412   0.86232 
 1                    0     0.5177   -0.53446   1.84136 
 7                    0     0.39075  -1.37149  -0.10308 
 6                    0    -0.85958  -1.20288  -0.37911 
 1                    0    -2.17087   2.03924   0.42767 
 1                    0     0.12959   2.72607   0.33374 
 1                    0     1.36976   0.46171  -1.73528 
 1                    0     1.98695   2.09708  -1.318 
 1                    0     3.86574   0.46975  -1.79484 
 1                    0     3.92905   1.14007  -0.12637 
 1                    0     2.87329  -1.63288  -0.96835 
 1                    0     4.36064  -1.28678  -0.02616 
 1                    0     2.46806  -2.04174   1.45292 
 1                    0     2.99679  -0.37557   1.8604 
 1                    0    -1.38281  -1.98907  -0.94437 
 
 The following ModRedundant input section has been read:
 A       2       4       5 F                                                   
 D       1       2       4      16 F                                           
 D       7      13      15      16 F                                           
 D       7       9      10      11 F                                           
 D       9      10      11      12 F                                           
 D       6       7      13      15 F                                           
 

 GradGradGradGradGradGradGradGradGradGradGradGradGradGradGradGradGradGrad
 Berny optimization.
 Initialization pass.
                           ----------------------------
                           !    Initial Parameters    !
                           ! (Angstroms and Degrees)  !
 --------------------------                            --------------------------
 ! Name  Definition              Value          Derivative Info.                !
 --------------------------------------------------------------------------------
 ! R1    R(1,2)                  1.2289         estimate D2E/DX2                !
 ! R2    R(2,3)                  1.2349         estimate D2E/DX2                !
 ! R3    R(2,4)                  1.5438         estimate D2E/DX2                !
 ! R4    R(4,5)                  1.4023         estimate D2E/DX2                !
 ! R5    R(4,16)                 1.4787         estimate D2E/DX2                !
 ! R6    R(5,6)                  1.3696         estimate D2E/DX2                !
 ! R7    R(5,17)                 1.1027         estimate D2E/DX2                !
 ! R8    R(6,7)                  1.4966         estimate D2E/DX2                !
 ! R9    R(6,18)                 1.0229         estimate D2E/DX2                !
 ! R10   R(7,8)                  1.1208         estimate D2E/DX2                !
 ! R11   R(7,9)                  1.5492         estimate D2E/DX2                !
 ! R12   R(7,13)                 1.5389         estimate D2E/DX2                !
 ! R13   R(9,10)                 1.5407         estimate D2E/DX2                !
 ! R14   R(9,19)                 1.1109         estimate D2E/DX2                !
 ! R15   R(9,20)                 1.1107         estimate D2E/DX2                !
 ! R16   R(10,11)                1.5369         estimate D2E/DX2                !
 ! R17   R(10,21)                1.112          estimate D2E/DX2                !
 ! R18   R(10,22)                1.113          estimate D2E/DX2                !
 ! R19   R(11,12)                1.5437         estimate D2E/DX2                !
 ! R20   R(11,23)                1.1134         estimate D2E/DX2                !
 ! R21   R(11,24)                1.1119         estimate D2E/DX2                !
 ! R22   R(12,13)                1.5532         estimate D2E/DX2                !
 ! R23   R(12,25)                1.1121         estimate D2E/DX2                !
 ! R24   R(12,26)                1.1101         estimate D2E/DX2                !
 ! R25   R(13,14)                1.1152         estimate D2E/DX2                !
 ! R26   R(13,15)                1.4674         estimate D2E/DX2                !
 ! R27   R(15,16)                1.2915         estimate D2E/DX2                !
 ! R28   R(16,27)                1.1006         estimate D2E/DX2                !
 ! A1    A(1,2,3)              122.6831         estimate D2E/DX2                !
 ! A2    A(1,2,4)              114.8701         estimate D2E/DX2                !
 ! A3    A(3,2,4)              121.9278         estimate D2E/DX2                !
 ! A4    A(2,4,5)              108.5726         Frozen                          !
 ! A5    A(2,4,16)             120.2458         estimate D2E/DX2                !
 ! A6    A(5,4,16)             131.1803         estimate D2E/DX2                !
 ! A7    A(4,5,6)              124.0779         estimate D2E/DX2                !
 ! A8    A(4,5,17)             120.6637         estimate D2E/DX2                !
 ! A9    A(6,5,17)             115.2009         estimate D2E/DX2                !
 ! A10   A(5,6,7)              129.2707         estimate D2E/DX2                !
 ! A11   A(5,6,18)             120.8098         estimate D2E/DX2                !
 ! A12   A(7,6,18)             107.1489         estimate D2E/DX2                !
 ! A13   A(6,7,8)              105.2336         estimate D2E/DX2                !
 ! A14   A(6,7,9)              114.7809         estimate D2E/DX2                !
 ! A15   A(6,7,13)             113.2176         estimate D2E/DX2                !
 ! A16   A(8,7,9)              106.135          estimate D2E/DX2                !
 ! A17   A(8,7,13)             105.8951         estimate D2E/DX2                !
 ! A18   A(9,7,13)             110.7528         estimate D2E/DX2                !
 ! A19   A(7,9,10)             109.464          estimate D2E/DX2                !
 ! A20   A(7,9,19)             110.0934         estimate D2E/DX2                !
 ! A21   A(7,9,20)             110.1853         estimate D2E/DX2                !
 ! A22   A(10,9,19)            109.9583         estimate D2E/DX2                !
 ! A23   A(10,9,20)            109.1366         estimate D2E/DX2                !
 ! A24   A(19,9,20)            107.981          estimate D2E/DX2                !
 ! A25   A(9,10,11)            111.2054         estimate D2E/DX2                !
 ! A26   A(9,10,21)            109.9371         estimate D2E/DX2                !
 ! A27   A(9,10,22)            109.1434         estimate D2E/DX2                !
 ! A28   A(11,10,21)           109.779          estimate D2E/DX2                !
 ! A29   A(11,10,22)           108.7784         estimate D2E/DX2                !
 ! A30   A(21,10,22)           107.9258         estimate D2E/DX2                !
 ! A31   A(10,11,12)           111.407          estimate D2E/DX2                !
 ! A32   A(10,11,23)           109.0117         estimate D2E/DX2                !
 ! A33   A(10,11,24)           109.8448         estimate D2E/DX2                !
 ! A34   A(12,11,23)           109.2716         estimate D2E/DX2                !
 ! A35   A(12,11,24)           109.7369         estimate D2E/DX2                !
 ! A36   A(23,11,24)           107.4796         estimate D2E/DX2                !
 ! A37   A(11,12,13)           111.4681         estimate D2E/DX2                !
 ! A38   A(11,12,25)           109.2223         estimate D2E/DX2                !
 ! A39   A(11,12,26)           109.5159         estimate D2E/DX2                !
 ! A40   A(13,12,25)           109.2371         estimate D2E/DX2                !
 ! A41   A(13,12,26)           109.5726         estimate D2E/DX2                !
 ! A42   A(25,12,26)           107.7464         estimate D2E/DX2                !
 ! A43   A(7,13,12)            105.7278         estimate D2E/DX2                !
 ! A44   A(7,13,14)            110.7485         estimate D2E/DX2                !
 ! A45   A(7,13,15)            114.3004         estimate D2E/DX2                !
 ! A46   A(12,13,14)           107.795          estimate D2E/DX2                !
 ! A47   A(12,13,15)           108.3322         estimate D2E/DX2                !
 ! A48   A(14,13,15)           109.6487         estimate D2E/DX2                !
 ! A49   A(13,15,16)           119.7503         estimate D2E/DX2                !
 ! A50   A(4,16,15)            127.9842         estimate D2E/DX2                !
 ! A51   A(4,16,27)            113.5134         estimate D2E/DX2                !
 ! A52   A(15,16,27)           118.4735         estimate D2E/DX2                !
 ! D1    D(1,2,4,5)           -172.1214         estimate D2E/DX2                !
 ! D2    D(1,2,4,16)             8.2584         Frozen                          !
 ! D3    D(3,2,4,5)             15.9365         estimate D2E/DX2                !
 ! D4    D(3,2,4,16)          -163.6836         estimate D2E/DX2                !
 ! D5    D(2,4,5,6)            175.1951         estimate D2E/DX2                !
 ! D6    D(2,4,5,17)            -1.9136         estimate D2E/DX2                !
 ! D7    D(16,4,5,6)            -5.2409         estimate D2E/DX2                !
 ! D8    D(16,4,5,17)          177.6505         estimate D2E/DX2                !
 ! D9    D(2,4,16,15)         -160.9948         estimate D2E/DX2                !
 ! D10   D(2,4,16,27)           21.0115         estimate D2E/DX2                !
 ! D11   D(5,4,16,15)           19.4836         estimate D2E/DX2                !
 ! D12   D(5,4,16,27)         -158.5102         estimate D2E/DX2                !
 ! D13   D(4,5,6,7)             -1.6242         estimate D2E/DX2                !
 ! D14   D(4,5,6,18)           156.9753         estimate D2E/DX2                !
 ! D15   D(17,5,6,7)           175.6272         estimate D2E/DX2                !
 ! D16   D(17,5,6,18)          -25.7732         estimate D2E/DX2                !
 ! D17   D(5,6,7,8)           -147.5483         estimate D2E/DX2                !
 ! D18   D(5,6,7,9)             96.1591         estimate D2E/DX2                !
 ! D19   D(5,6,7,13)           -32.3545         estimate D2E/DX2                !
 ! D20   D(18,6,7,8)            51.5973         estimate D2E/DX2                !
 ! D21   D(18,6,7,9)           -64.6953         estimate D2E/DX2                !
 ! D22   D(18,6,7,13)          166.7911         estimate D2E/DX2                !
 ! D23   D(6,7,9,10)           168.3002         estimate D2E/DX2                !
 ! D24   D(6,7,9,19)           -70.7175         estimate D2E/DX2                !
 ! D25   D(6,7,9,20)            48.2757         estimate D2E/DX2                !
 ! D26   D(8,7,9,10)            52.5258         estimate D2E/DX2                !
 ! D27   D(8,7,9,19)           173.5081         estimate D2E/DX2                !
 ! D28   D(8,7,9,20)           -67.4987         estimate D2E/DX2                !
 ! D29   D(13,7,9,10)          -61.9626         estimate D2E/DX2                !
 ! D30   D(13,7,9,19)           59.0196         estimate D2E/DX2                !
 ! D31   D(13,7,9,20)          178.0128         estimate D2E/DX2                !
 ! D32   D(6,7,13,12)         -165.9204         estimate D2E/DX2                !
 ! D33   D(6,7,13,14)          -49.4201         estimate D2E/DX2                !
 ! D34   D(6,7,13,15)           75.0226         Frozen                          !
 ! D35   D(8,7,13,12)          -51.1219         estimate D2E/DX2                !
 ! D36   D(8,7,13,14)           65.3785         estimate D2E/DX2                !
 ! D37   D(8,7,13,15)         -170.1788         estimate D2E/DX2                !
 ! D38   D(9,7,13,12)           63.5173         estimate D2E/DX2                !
 ! D39   D(9,7,13,14)         -179.9824         estimate D2E/DX2                !
 ! D40   D(9,7,13,15)          -55.5396         estimate D2E/DX2                !
 ! D41   D(7,9,10,11)           54.8125         Frozen                          !
 ! D42   D(7,9,10,21)          176.6048         estimate D2E/DX2                !
 ! D43   D(7,9,10,22)          -65.1994         estimate D2E/DX2                !
 ! D44   D(19,9,10,11)         -66.2516         estimate D2E/DX2                !
 ! D45   D(19,9,10,21)          55.5406         estimate D2E/DX2                !
 ! D46   D(19,9,10,22)         173.7364         estimate D2E/DX2                !
 ! D47   D(20,9,10,11)         175.477          estimate D2E/DX2                !
 ! D48   D(20,9,10,21)         -62.7307         estimate D2E/DX2                !
 ! D49   D(20,9,10,22)          55.4651         estimate D2E/DX2                !
 ! D50   D(9,10,11,12)         -52.8224         Frozen                          !
 ! D51   D(9,10,11,23)          67.8438         estimate D2E/DX2                !
 ! D52   D(9,10,11,24)        -174.6331         estimate D2E/DX2                !
 ! D53   D(21,10,11,12)       -174.7067         estimate D2E/DX2                !
 ! D54   D(21,10,11,23)        -54.0405         estimate D2E/DX2                !
 ! D55   D(21,10,11,24)         63.4826         estimate D2E/DX2                !
 ! D56   D(22,10,11,12)         67.4057         estimate D2E/DX2                !
 ! D57   D(22,10,11,23)       -171.9281         estimate D2E/DX2                !
 ! D58   D(22,10,11,24)        -54.405          estimate D2E/DX2                !
 ! D59   D(10,11,12,13)         56.7914         estimate D2E/DX2                !
 ! D60   D(10,11,12,25)        177.5931         estimate D2E/DX2                !
 ! D61   D(10,11,12,26)        -64.6283         estimate D2E/DX2                !
 ! D62   D(23,11,12,13)        -63.7222         estimate D2E/DX2                !
 ! D63   D(23,11,12,25)         57.0795         estimate D2E/DX2                !
 ! D64   D(23,11,12,26)        174.8581         estimate D2E/DX2                !
 ! D65   D(24,11,12,13)        178.6647         estimate D2E/DX2                !
 ! D66   D(24,11,12,25)        -60.5337         estimate D2E/DX2                !
 ! D67   D(24,11,12,26)         57.2449         estimate D2E/DX2                !
 ! D68   D(11,12,13,7)         -60.6695         estimate D2E/DX2                !
 ! D69   D(11,12,13,14)       -179.1545         estimate D2E/DX2                !
 ! D70   D(11,12,13,15)         62.2659         estimate D2E/DX2                !
 ! D71   D(25,12,13,7)         178.5375         estimate D2E/DX2                !
 ! D72   D(25,12,13,14)         60.0526         estimate D2E/DX2                !
 ! D73   D(25,12,13,15)        -58.527          estimate D2E/DX2                !
 ! D74   D(26,12,13,7)          60.7172         estimate D2E/DX2                !
 ! D75   D(26,12,13,14)        -57.7677         estimate D2E/DX2                !
 ! D76   D(26,12,13,15)       -176.3473         estimate D2E/DX2                !
 ! D77   D(7,13,15,16)         -67.1604         Frozen                          !
 ! D78   D(12,13,15,16)        175.2633         estimate D2E/DX2                !
 ! D79   D(14,13,15,16)         57.8659         estimate D2E/DX2                !
 ! D80   D(13,15,16,4)          14.0368         estimate D2E/DX2                !
 ! D81   D(13,15,16,27)       -168.0561         estimate D2E/DX2                !
 --------------------------------------------------------------------------------
 Trust Radius=3.00D-01 FncErr=1.00D-07 GrdErr=1.00D-07 EigMax=2.50D+02 EigMin=1.00D-04
 Number of steps in this run=     20 maximum allowed number of steps=    162.
 GradGradGradGradGradGradGradGradGradGradGradGradGradGradGradGradGradGrad

                          Input orientation:                          
 ---------------------------------------------------------------------
 Center     Atomic      Atomic             Coordinates (Angstroms)
 Number     Number       Type             X           Y           Z
 ---------------------------------------------------------------------
      1          8           0       -3.666290   -1.321500   -0.192420
      2          7           0       -3.249450   -0.171800   -0.071070
      3          8           0       -3.991950    0.814170   -0.108920
      4          6           0       -1.711650   -0.036020   -0.064640
      5          6           0       -1.381500    1.287890    0.259160
      6          7           0       -0.100730    1.735720    0.445810
      7          6           0        1.186570    0.974300    0.390780
      8          1           0        1.857490    1.475890    1.135480
      9          6           0        1.924770    1.044310   -0.969420
     10          6           0        3.349540    0.480090   -0.809930
     11          6           0        3.322650   -0.939590   -0.221930
     12          6           0        2.500070   -0.993380    1.083250
     13          6           0        1.049410   -0.484120    0.862320
     14          1           0        0.517700   -0.534460    1.841360
     15          7           0        0.390750   -1.371490   -0.103080
     16          6           0       -0.859580   -1.202880   -0.379110
     17          1           0       -2.170870    2.039240    0.427670
     18          1           0        0.129590    2.726070    0.333740
     19          1           0        1.369760    0.461710   -1.735280
     20          1           0        1.986950    2.097080   -1.318000
     21          1           0        3.865740    0.469750   -1.794840
     22          1           0        3.929050    1.140070   -0.126370
     23          1           0        2.873290   -1.632880   -0.968350
     24          1           0        4.360640   -1.286780   -0.026160
     25          1           0        2.468060   -2.041740    1.452920
     26          1           0        2.996790   -0.375570    1.860400
     27          1           0       -1.382810   -1.989070   -0.944370
 ---------------------------------------------------------------------
                    Distance matrix (angstroms):
                    1          2          3          4          5
     1  O    0.000000
     2  N    1.228939   0.000000
     3  O    2.161970   1.234859   0.000000
     4  C    2.342948   1.543796   2.434040   0.000000
     5  C    3.497586   2.393530   2.678496   1.402349   0.000000
     6  N    4.739953   3.717558   4.037149   2.448405   1.369585
     7  C    5.400099   4.604902   5.205037   3.102875   2.590491
     8  H    6.332524   5.500135   6.016839   4.057699   3.360705
     9  C    6.120518   5.390594   5.983394   3.899909   3.535557
    10  C    7.269726   6.672147   7.382445   5.141738   4.917137
    11  C    6.999429   6.618516   7.522753   5.117163   5.227059
    12  C    6.305473   5.921522   6.843598   4.469091   4.577106
    13  C    4.904234   4.410097   5.295675   2.946778   3.068085
    14  H    4.718206   4.240322   5.095031   2.975110   3.071038
    15  N    4.058331   3.832928   4.897469   2.490992   3.216270
    16  C    2.815412   2.620972   3.735403   1.478674   2.623685
    17  H    3.730331   2.510134   2.259437   2.181732   1.102736
    18  H    5.573901   4.469836   4.564910   3.343353   2.087419
    19  H    5.560760   4.950559   5.614019   3.540319   3.497113
    20  H    6.701697   5.841450   6.233376   4.449794   3.806400
    21  H    7.906188   7.349075   8.043895   5.861457   5.694014
    22  H    7.984540   7.297597   7.927721   5.762334   5.326577
    23  H    6.592809   6.358287   7.338814   4.938454   5.304801
    24  H    8.028727   7.691467   8.613164   6.199886   6.299405
    25  H    6.391881   6.205573   7.233761   4.878102   5.227869
    26  H    7.036014   6.541224   7.357730   5.098086   4.949797
    27  H    2.495067   2.747630   3.919661   2.167133   3.490982
                    6          7          8          9         10
     6  N    0.000000
     7  C    1.496640   0.000000
     8  H    2.092315   1.120850   0.000000
     9  C    2.565848   1.549188   2.149742   0.000000
    10  C    3.880445   2.522774   2.646214   1.540698   0.000000
    11  C    4.395758   2.932785   3.134294   2.539423   1.536866
    12  C    3.823412   2.465068   2.552045   2.949001   2.544964
    13  C    2.534560   1.538880   2.137580   2.541186   3.002785
    14  H    2.735641   2.197254   2.516905   3.517505   4.009734
    15  N    3.193366   2.525858   3.434084   2.989959   3.561239
    16  C    3.145110   3.085381   4.105151   3.626422   4.553535
    17  H    2.092351   3.522479   4.128685   4.440272   5.868350
    18  H    1.022937   2.046743   2.278459   2.783741   4.089069
    19  H    2.922772   2.194639   3.083457   1.110856   2.185438
    20  H    2.756812   2.195717   2.534206   1.110720   2.174728
    21  H    4.728221   3.494203   3.692176   2.186047   1.112033
    22  H    4.113553   2.795733   2.448755   2.176475   1.112951
    23  H    4.710850   3.389638   3.888753   2.840253   2.171763
    24  H    5.409444   3.919317   3.904806   3.501026   2.181387
    25  H    4.677837   3.444830   3.584311   3.960631   3.501018
    26  H    4.006650   2.694221   2.291597   3.342629   2.826172
    27  H    4.177366   4.143175   5.179891   4.487996   5.339472
                   11         12         13         14         15
    11  C    0.000000
    12  C    1.543705   0.000000
    13  C    2.559428   1.553245   0.000000
    14  H    3.505573   2.171435   1.115244   0.000000
    15  N    2.965923   2.449403   1.467398   2.120750   0.000000
    16  C    4.193456   3.670100   2.387888   2.697067   1.291490
    17  H    6.282847   5.607517   4.114179   3.981314   4.298450
    18  H    4.893002   4.473841   3.380944   3.613115   4.129045
    19  H    2.840361   3.367343   2.782938   3.809293   2.642567
    20  H    3.493827   3.947181   3.506475   4.366378   4.006852
    21  H    2.180649   3.505596   3.987741   5.043784   4.281095
    22  H    2.168372   2.838446   3.450772   4.279407   4.339129
    23  H    1.113426   2.181127   2.827992   3.827506   2.641973
    24  H    1.111886   2.186000   3.521066   4.338410   3.971539
    25  H    2.179491   1.112088   2.188049   2.495332   2.680595
    26  H    2.181834   1.110127   2.190944   2.484250   3.411533
    27  H    4.874903   4.492149   3.383001   3.672618   2.057836
                   16         17         18         19         20
    16  C    0.000000
    17  H    3.589111   0.000000
    18  H    4.113789   2.402639   0.000000
    19  H    3.095160   4.438808   3.308503   0.000000
    20  H    4.458025   4.509787   2.563915   1.797076   0.000000
    21  H    5.208707   6.621443   4.855991   2.496703   2.530895
    22  H    5.337066   6.190678   4.142824   3.098182   2.471356
    23  H    3.803475   6.393504   5.312605   2.689998   3.849734
    24  H    5.232811   7.343636   5.842455   3.863117   4.330562
    25  H    3.890142   6.263003   5.427063   4.199779   5.003928
    26  H    4.535575   5.881219   4.491291   4.034499   4.151626
    27  H    1.100629   4.327911   5.114046   3.769417   5.309567
                   21         22         23         24         25
    21  H    0.000000
    22  H    1.799202   0.000000
    23  H    2.467609   3.084285   0.000000
    24  H    2.541368   2.466964   1.794357   0.000000
    25  H    4.336939   3.840907   2.488760   2.517837   0.000000
    26  H    3.851028   2.667120   3.098049   2.499900   1.794914
    27  H    5.858018   6.219043   4.271046   5.858629   4.536405
                   26         27
    26  H    0.000000
    27  H    5.445274   0.000000
 Symmetry turned off by external request.
 Stoichiometry    C9H13N3O2
 Framework group  C1[X(C9H13N3O2)]
 Deg. of freedom    75
 Full point group                 C1      NOp   1
 Rotational constants (GHZ):           1.6751684           0.4009495           0.3560168
 Standard basis: 6-31G(d) (6D, 7F)
   236 basis functions,   444 primitive gaussians,   236 cartesian basis functions
    52 alpha electrons       52 beta electrons
       nuclear repulsion energy       917.5606263543 Hartrees.
 NAtoms=   27 NActive=   27 NUniq=   27 SFac= 1.00D+00 NAtFMM=   60 NAOKFM=F Big=F
 Integral buffers will be    131072 words long.
 Raffenetti 1 integral format.
 Two-electron integral symmetry is turned off.
 One-electron integrals computed using PRISM.
 NBasis=   236 RedAO= T EigKep=  1.42D-03  NBF=   236
 NBsUse=   236 1.00D-06 EigRej= -1.00D+00 NBFU=   236
 ExpMin= 1.61D-01 ExpMax= 5.48D+03 ExpMxC= 8.25D+02 IAcc=3 IRadAn=         5 AccDes= 0.00D+00
 Harris functional with IExCor=  205 and IRadAn=       5 diagonalized for initial guess.
 HarFok:  IExCor=  205 AccDes= 0.00D+00 IRadAn=         5 IDoV= 1 UseB2=F ITyADJ=14
 ICtDFT=  3500011 ScaDFX=  1.000000  1.000000  1.000000  1.000000
 FoFCou: FMM=F IPFlag=           0 FMFlag=      100000 FMFlg1=           0
         NFxFlg=           0 DoJE=T BraDBF=F KetDBF=T FulRan=T
         wScrn=  0.000000 ICntrl=       500 IOpCl=  0 I1Cent=   200000004 NGrid=           0
         NMat0=    1 NMatS0=      1 NMatT0=    0 NMatD0=    1 NMtDS0=    0 NMtDT0=    0
 Symmetry not used in FoFCou.
 Keep R1 ints in memory in canonical form, NReq=397720213.
 Requested convergence on RMS density matrix=1.00D-08 within 128 cycles.
 Requested convergence on MAX density matrix=1.00D-06.
 Requested convergence on             energy=1.00D-06.
 No special actions if energy rises.
 SCF Done:  E(RHF) =  -661.275613594     A.U. after   16 cycles
            NFock= 16  Conv=0.91D-08     -V/T= 2.0037
 ExpMin= 1.61D-01 ExpMax= 5.48D+03 ExpMxC= 8.25D+02 IAcc=3 IRadAn=         5 AccDes= 0.00D+00
 HarFok:  IExCor=  205 AccDes= 0.00D+00 IRadAn=         5 IDoV=-2 UseB2=F ITyADJ=14
 ICtDFT= 12500011 ScaDFX=  1.000000  1.000000  1.000000  1.000000
 Range of M.O.s used for correlation:    15   236
 NBasis=   236 NAE=    52 NBE=    52 NFC=    14 NFV=     0
 NROrb=    222 NOA=    38 NOB=    38 NVA=   184 NVB=   184
 Fully direct method using O(ONN) memory.
 JobTyp=1 Pass  1:  I=  15 to  52 NPSUse=  4 ParTrn=T ParDer=T DoDerP=T.
 Spin components of T(2) and E(2):
     alpha-alpha T2 =       0.9218023378D-01 E2=     -0.2720005177D+00
     alpha-beta  T2 =       0.5002299937D+00 E2=     -0.1494339011D+01
     beta-beta   T2 =       0.9218023378D-01 E2=     -0.2720005177D+00
 ANorm=    0.1297917741D+01
 E2 =    -0.2038340046D+01 EUMP2 =    -0.66331395363972D+03
          IDoAtm=111111111111111111111111111
          Differentiating once with respect to electric field.
                with respect to dipole field.
          Differentiating once with respect to nuclear coordinates.
 Keep R1 ints in memory in canonical form, NReq=397723379.
          There are     1 degrees of freedom in the 1st order CPHF.  IDoFFX=0 NUNeed=     1.
 LinEq1:  Iter=  0 NonCon=     1 RMS=4.65D-03 Max=1.22D-01 NDo=     1
 AX will form     1 AO Fock derivatives at one time.
 LinEq1:  Iter=  1 NonCon=     1 RMS=1.58D-03 Max=3.14D-02 NDo=     1
 LinEq1:  Iter=  2 NonCon=     1 RMS=6.51D-04 Max=1.96D-02 NDo=     1
 LinEq1:  Iter=  3 NonCon=     1 RMS=2.92D-04 Max=8.41D-03 NDo=     1
 LinEq1:  Iter=  4 NonCon=     1 RMS=9.06D-05 Max=2.26D-03 NDo=     1
 LinEq1:  Iter=  5 NonCon=     1 RMS=3.72D-05 Max=1.72D-03 NDo=     1
 LinEq1:  Iter=  6 NonCon=     1 RMS=1.59D-05 Max=5.99D-04 NDo=     1
 LinEq1:  Iter=  7 NonCon=     1 RMS=6.24D-06 Max=1.00D-04 NDo=     1
 LinEq1:  Iter=  8 NonCon=     1 RMS=2.54D-06 Max=6.30D-05 NDo=     1
 LinEq1:  Iter=  9 NonCon=     1 RMS=1.01D-06 Max=2.92D-05 NDo=     1
 LinEq1:  Iter= 10 NonCon=     1 RMS=4.89D-07 Max=1.32D-05 NDo=     1
 LinEq1:  Iter= 11 NonCon=     1 RMS=1.75D-07 Max=5.12D-06 NDo=     1
 LinEq1:  Iter= 12 NonCon=     1 RMS=6.41D-08 Max=1.37D-06 NDo=     1
 LinEq1:  Iter= 13 NonCon=     1 RMS=2.22D-08 Max=5.47D-07 NDo=     1
 LinEq1:  Iter= 14 NonCon=     1 RMS=7.27D-09 Max=1.91D-07 NDo=     1
 LinEq1:  Iter= 15 NonCon=     1 RMS=2.50D-09 Max=8.28D-08 NDo=     1
 LinEq1:  Iter= 16 NonCon=     1 RMS=7.64D-10 Max=9.85D-09 NDo=     1
 LinEq1:  Iter= 17 NonCon=     1 RMS=2.27D-10 Max=3.04D-09 NDo=     1
 LinEq1:  Iter= 18 NonCon=     1 RMS=7.03D-11 Max=1.10D-09 NDo=     1
 LinEq1:  Iter= 19 NonCon=     0 RMS=2.23D-11 Max=5.58D-10 NDo=     1
 Linear equations converged to 1.000D-10 1.000D-09 after    19 iterations.
 End of Minotr F.D. properties file   721 does not exist.
 End of Minotr F.D. properties file   722 does not exist.
 End of Minotr F.D. properties file   788 does not exist.

 **********************************************************************

            Population analysis using the SCF Density.

 **********************************************************************

 Alpha  occ. eigenvalues --  -20.59422 -20.59202 -15.84796 -15.63288 -15.56927
 Alpha  occ. eigenvalues --  -11.35663 -11.30967 -11.30151 -11.30133 -11.27882
 Alpha  occ. eigenvalues --  -11.24672 -11.23926 -11.23485 -11.22920  -1.58125
 Alpha  occ. eigenvalues --   -1.37504  -1.28576  -1.22885  -1.13309  -1.08338
 Alpha  occ. eigenvalues --   -1.01879  -1.00647  -0.93061  -0.89063  -0.84934
 Alpha  occ. eigenvalues --   -0.81683  -0.77825  -0.77195  -0.74321  -0.70754
 Alpha  occ. eigenvalues --   -0.69932  -0.69425  -0.67349  -0.64330  -0.63411
 Alpha  occ. eigenvalues --   -0.61906  -0.60605  -0.57418  -0.56564  -0.54954
 Alpha  occ. eigenvalues --   -0.53905  -0.50730  -0.49677  -0.48280  -0.47516
 Alpha  occ. eigenvalues --   -0.47440  -0.46284  -0.45710  -0.43773  -0.42287
 Alpha  occ. eigenvalues --   -0.40011  -0.33580
 Alpha virt. eigenvalues --    0.07884   0.11099   0.18015   0.21410   0.23542
 Alpha virt. eigenvalues --    0.24310   0.26042   0.27809   0.28555   0.28851
 Alpha virt. eigenvalues --    0.29692   0.30855   0.31866   0.32251   0.33106
 Alpha virt. eigenvalues --    0.33705   0.34086   0.35089   0.37492   0.38345
 Alpha virt. eigenvalues --    0.40393   0.41591   0.44515   0.45221   0.45589
 Alpha virt. eigenvalues --    0.46763   0.49901   0.53688   0.57951   0.59251
 Alpha virt. eigenvalues --    0.63242   0.68246   0.69123   0.72205   0.73837
 Alpha virt. eigenvalues --    0.74361   0.75727   0.75804   0.77773   0.78901
 Alpha virt. eigenvalues --    0.80978   0.83155   0.84807   0.85513   0.87990
 Alpha virt. eigenvalues --    0.89038   0.90098   0.90536   0.91912   0.94196
 Alpha virt. eigenvalues --    0.94824   0.97109   0.98979   1.00539   1.01919
 Alpha virt. eigenvalues --    1.02977   1.05011   1.06771   1.07290   1.08715
 Alpha virt. eigenvalues --    1.09517   1.10442   1.11263   1.12045   1.13211
 Alpha virt. eigenvalues --    1.13826   1.14284   1.15424   1.16001   1.16749
 Alpha virt. eigenvalues --    1.17914   1.19901   1.21407   1.22219   1.23144
 Alpha virt. eigenvalues --    1.23306   1.23985   1.25500   1.27562   1.28039
 Alpha virt. eigenvalues --    1.28643   1.31881   1.33359   1.36606   1.39410
 Alpha virt. eigenvalues --    1.42520   1.44920   1.47500   1.50123   1.52345
 Alpha virt. eigenvalues --    1.53884   1.55908   1.60300   1.62274   1.65373
 Alpha virt. eigenvalues --    1.68009   1.71091   1.72821   1.73863   1.76516
 Alpha virt. eigenvalues --    1.77870   1.80139   1.84281   1.89011   1.91180
 Alpha virt. eigenvalues --    1.92762   1.94751   1.96978   1.99143   2.00453
 Alpha virt. eigenvalues --    2.03098   2.04011   2.06146   2.09171   2.12300
 Alpha virt. eigenvalues --    2.12728   2.14037   2.17359   2.18238   2.20113
 Alpha virt. eigenvalues --    2.20594   2.22383   2.23895   2.25133   2.25843
 Alpha virt. eigenvalues --    2.29772   2.31909   2.32236   2.35320   2.36392
 Alpha virt. eigenvalues --    2.39580   2.40157   2.41798   2.44238   2.45927
 Alpha virt. eigenvalues --    2.48288   2.50534   2.51181   2.56109   2.56977
 Alpha virt. eigenvalues --    2.60434   2.63219   2.65144   2.68274   2.68787
 Alpha virt. eigenvalues --    2.69073   2.69550   2.74684   2.77927   2.80537
 Alpha virt. eigenvalues --    2.84341   2.86431   2.89977   2.91182   2.95647
 Alpha virt. eigenvalues --    2.97225   2.97592   3.02122   3.04645   3.05612
 Alpha virt. eigenvalues --    3.07527   3.12800   3.17574   3.22416   3.26626
 Alpha virt. eigenvalues --    3.29632   3.33226   3.35553   3.44131   3.60715
 Alpha virt. eigenvalues --    4.09677   4.22540   4.30885   4.34880   4.42564
 Alpha virt. eigenvalues --    4.51938   4.59324   4.60084   4.70819   4.77352
 Alpha virt. eigenvalues --    4.96994   4.99129   5.03494   5.09405
          Condensed to atoms (all electrons):
               1          2          3          4          5          6
     1  O    8.304077   0.306324  -0.090654  -0.082020   0.004610  -0.000022
     2  N    0.306324   5.705257   0.303839   0.266331  -0.062584   0.001074
     3  O   -0.090654   0.303839   8.334978  -0.078780   0.005925   0.000563
     4  C   -0.082020   0.266331  -0.078780   5.261134   0.553158  -0.053700
     5  C    0.004610  -0.062584   0.005925   0.553158   4.711361   0.302350
     6  N   -0.000022   0.001074   0.000563  -0.053700   0.302350   7.187803
     7  C    0.000003  -0.000118  -0.000001   0.003475  -0.027865   0.202109
     8  H   -0.000000   0.000002  -0.000000  -0.000132   0.002215  -0.048443
     9  C   -0.000000  -0.000004   0.000000   0.000354   0.001681  -0.057553
    10  C   -0.000000   0.000000  -0.000000  -0.000014  -0.000066   0.003370
    11  C   -0.000000  -0.000000  -0.000000  -0.000021   0.000015  -0.000150
    12  C   -0.000000   0.000001  -0.000000  -0.000092  -0.000164   0.003552
    13  C   -0.000013  -0.000005  -0.000001  -0.009538   0.000230  -0.044529
    14  H   -0.000002  -0.000046   0.000000   0.002567   0.004301  -0.005279
    15  N    0.000266   0.001534  -0.000010  -0.062332  -0.004880   0.002389
    16  C    0.003144  -0.016923   0.001457   0.324976  -0.041566   0.000377
    17  H    0.000238  -0.004906   0.014082  -0.025715   0.377115  -0.031924
    18  H    0.000001  -0.000053   0.000014   0.001255  -0.024838   0.328666
    19  H    0.000000   0.000001   0.000000  -0.000840   0.000755   0.000445
    20  H    0.000000  -0.000000   0.000000  -0.000034   0.000041  -0.001421
    21  H   -0.000000  -0.000000   0.000000   0.000000   0.000001  -0.000060
    22  H   -0.000000   0.000000  -0.000000  -0.000000  -0.000002  -0.000097
    23  H    0.000000  -0.000000   0.000000   0.000025   0.000001  -0.000023
    24  H    0.000000   0.000000   0.000000   0.000000  -0.000000   0.000004
    25  H    0.000000  -0.000000   0.000000   0.000020  -0.000000  -0.000069
    26  H    0.000000  -0.000000   0.000000   0.000004   0.000002  -0.000066
    27  H    0.005835  -0.000131   0.000000  -0.065216   0.002060   0.000020
               7          8          9         10         11         12
     1  O    0.000003  -0.000000  -0.000000  -0.000000  -0.000000  -0.000000
     2  N   -0.000118   0.000002  -0.000004   0.000000  -0.000000   0.000001
     3  O   -0.000001  -0.000000   0.000000  -0.000000  -0.000000  -0.000000
     4  C    0.003475  -0.000132   0.000354  -0.000014  -0.000021  -0.000092
     5  C   -0.027865   0.002215   0.001681  -0.000066   0.000015  -0.000164
     6  N    0.202109  -0.048443  -0.057553   0.003370  -0.000150   0.003552
     7  C    5.012813   0.415924   0.340655  -0.049315  -0.007760  -0.064012
     8  H    0.415924   0.545039  -0.059602   0.001168  -0.000273  -0.003085
     9  C    0.340655  -0.059602   5.179511   0.318374  -0.053205  -0.005856
    10  C   -0.049315   0.001168   0.318374   5.127084   0.332676  -0.060429
    11  C   -0.007760  -0.000273  -0.053205   0.332676   5.124869   0.330374
    12  C   -0.064012  -0.003085  -0.005856  -0.060429   0.330374   5.138200
    13  C    0.327695  -0.039175  -0.051904  -0.001496  -0.048011   0.367711
    14  H   -0.040828  -0.000896   0.003839  -0.000386   0.003961  -0.040790
    15  N   -0.059242   0.003966  -0.012366   0.001462  -0.007766  -0.073928
    16  C   -0.001355  -0.000083  -0.000301  -0.000063   0.000034   0.002277
    17  H    0.001345  -0.000033  -0.000054   0.000001   0.000000   0.000001
    18  H   -0.029008  -0.003070   0.000864  -0.000121   0.000011  -0.000137
    19  H   -0.035166   0.004066   0.386676  -0.032998  -0.002214   0.000599
    20  H   -0.041588  -0.001778   0.397387  -0.037277   0.004122  -0.000363
    21  H    0.004053  -0.000076  -0.035852   0.400139  -0.035861   0.004226
    22  H   -0.004324   0.003519  -0.045613   0.395924  -0.045564  -0.001261
    23  H    0.000440   0.000035  -0.002003  -0.040144   0.396750  -0.036700
    24  H   -0.000143  -0.000100   0.004388  -0.038434   0.400310  -0.037851
    25  H    0.004994  -0.000004  -0.000377   0.004098  -0.033832   0.395377
    26  H   -0.004479   0.001560   0.001054  -0.002430  -0.042204   0.394628
    27  H   -0.000366   0.000008  -0.000049   0.000004   0.000005  -0.000023
              13         14         15         16         17         18
     1  O   -0.000013  -0.000002   0.000266   0.003144   0.000238   0.000001
     2  N   -0.000005  -0.000046   0.001534  -0.016923  -0.004906  -0.000053
     3  O   -0.000001   0.000000  -0.000010   0.001457   0.014082   0.000014
     4  C   -0.009538   0.002567  -0.062332   0.324976  -0.025715   0.001255
     5  C    0.000230   0.004301  -0.004880  -0.041566   0.377115  -0.024838
     6  N   -0.044529  -0.005279   0.002389   0.000377  -0.031924   0.328666
     7  C    0.327695  -0.040828  -0.059242  -0.001355   0.001345  -0.029008
     8  H   -0.039175  -0.000896   0.003966  -0.000083  -0.000033  -0.003070
     9  C   -0.051904   0.003839  -0.012366  -0.000301  -0.000054   0.000864
    10  C   -0.001496  -0.000386   0.001462  -0.000063   0.000001  -0.000121
    11  C   -0.048011   0.003961  -0.007766   0.000034   0.000000   0.000011
    12  C    0.367711  -0.040790  -0.073928   0.002277   0.000001  -0.000137
    13  C    5.018690   0.403996   0.243361  -0.067722  -0.000043   0.003679
    14  H    0.403996   0.517292  -0.035581  -0.005270   0.000043   0.000005
    15  N    0.243361  -0.035581   6.942043   0.585764  -0.000052  -0.000116
    16  C   -0.067722  -0.005270   0.585764   4.679055   0.000961  -0.000194
    17  H   -0.000043   0.000043  -0.000052   0.000961   0.369810  -0.001794
    18  H    0.003679   0.000005  -0.000116  -0.000194  -0.001794   0.328118
    19  H   -0.006192   0.000064   0.006845   0.002151   0.000010  -0.000126
    20  H    0.003872  -0.000051   0.000076  -0.000034  -0.000003   0.002667
    21  H   -0.000389   0.000009  -0.000032   0.000003  -0.000000   0.000000
    22  H    0.000333  -0.000043   0.000006  -0.000001   0.000000   0.000002
    23  H   -0.005912   0.000006   0.006735   0.000083   0.000000   0.000000
    24  H    0.004163  -0.000060   0.000032   0.000004   0.000000  -0.000000
    25  H   -0.034445  -0.002688   0.000957  -0.000059  -0.000000   0.000002
    26  H   -0.044743  -0.000902   0.004168  -0.000043   0.000000  -0.000001
    27  H    0.004543  -0.000143  -0.038586   0.401102  -0.000053   0.000002
              19         20         21         22         23         24
     1  O    0.000000   0.000000  -0.000000  -0.000000   0.000000   0.000000
     2  N    0.000001  -0.000000  -0.000000   0.000000  -0.000000   0.000000
     3  O    0.000000   0.000000   0.000000  -0.000000   0.000000   0.000000
     4  C   -0.000840  -0.000034   0.000000  -0.000000   0.000025   0.000000
     5  C    0.000755   0.000041   0.000001  -0.000002   0.000001  -0.000000
     6  N    0.000445  -0.001421  -0.000060  -0.000097  -0.000023   0.000004
     7  C   -0.035166  -0.041588   0.004053  -0.004324   0.000440  -0.000143
     8  H    0.004066  -0.001778  -0.000076   0.003519   0.000035  -0.000100
     9  C    0.386676   0.397387  -0.035852  -0.045613  -0.002003   0.004388
    10  C   -0.032998  -0.037277   0.400139   0.395924  -0.040144  -0.038434
    11  C   -0.002214   0.004122  -0.035861  -0.045564   0.396750   0.400310
    12  C    0.000599  -0.000363   0.004226  -0.001261  -0.036700  -0.037851
    13  C   -0.006192   0.003872  -0.000389   0.000333  -0.005912   0.004163
    14  H    0.000064  -0.000051   0.000009  -0.000043   0.000006  -0.000060
    15  N    0.006845   0.000076  -0.000032   0.000006   0.006735   0.000032
    16  C    0.002151  -0.000034   0.000003  -0.000001   0.000083   0.000004
    17  H    0.000010  -0.000003  -0.000000   0.000000   0.000000   0.000000
    18  H   -0.000126   0.002667   0.000000   0.000002   0.000000  -0.000000
    19  H    0.507402  -0.023786  -0.002581   0.003764   0.001657  -0.000071
    20  H   -0.023786   0.548037  -0.002641  -0.002930  -0.000050  -0.000090
    21  H   -0.002581  -0.002641   0.525788  -0.024664  -0.002821  -0.002074
    22  H    0.003764  -0.002930  -0.024664   0.568783   0.004061  -0.003583
    23  H    0.001657  -0.000050  -0.002821   0.004061   0.509697  -0.024914
    24  H   -0.000071  -0.000090  -0.002074  -0.003583  -0.024914   0.540531
    25  H   -0.000027   0.000011  -0.000086  -0.000083  -0.002071  -0.002399
    26  H    0.000023  -0.000035  -0.000073   0.002459   0.003813  -0.002737
    27  H    0.000071   0.000000  -0.000000   0.000000  -0.000019  -0.000000
              25         26         27
     1  O    0.000000   0.000000   0.005835
     2  N   -0.000000  -0.000000  -0.000131
     3  O    0.000000   0.000000   0.000000
     4  C    0.000020   0.000004  -0.065216
     5  C   -0.000000   0.000002   0.002060
     6  N   -0.000069  -0.000066   0.000020
     7  C    0.004994  -0.004479  -0.000366
     8  H   -0.000004   0.001560   0.000008
     9  C   -0.000377   0.001054  -0.000049
    10  C    0.004098  -0.002430   0.000004
    11  C   -0.033832  -0.042204   0.000005
    12  C    0.395377   0.394628  -0.000023
    13  C   -0.034445  -0.044743   0.004543
    14  H   -0.002688  -0.000902  -0.000143
    15  N    0.000957   0.004168  -0.038586
    16  C   -0.000059  -0.000043   0.401102
    17  H   -0.000000   0.000000  -0.000053
    18  H    0.000002  -0.000001   0.000002
    19  H   -0.000027   0.000023   0.000071
    20  H    0.000011  -0.000035   0.000000
    21  H   -0.000086  -0.000073  -0.000000
    22  H   -0.000083   0.002459   0.000000
    23  H   -0.002071   0.003813  -0.000019
    24  H   -0.002399  -0.002737  -0.000000
    25  H    0.509479  -0.023102  -0.000011
    26  H   -0.023102   0.560602   0.000001
    27  H   -0.000011   0.000001   0.445884
 Mulliken charges:
               1
     1  O   -0.451787
     2  N    0.500405
     3  O   -0.491413
     4  C   -0.034865
     5  C    0.196143
     6  N   -0.789385
     7  C    0.052065
     8  H    0.179245
     9  C   -0.310043
    10  C   -0.321127
    11  C   -0.316268
    12  C   -0.312254
    13  C   -0.024154
    14  H    0.196881
    15  N   -0.504711
    16  C    0.132224
    17  H    0.300971
    18  H    0.394171
    19  H    0.189472
    20  H    0.155868
    21  H    0.172991
    22  H    0.149311
    23  H    0.191354
    24  H    0.163022
    25  H    0.184316
    26  H    0.152501
    27  H    0.245064
 Sum of Mulliken charges =  -0.00000
 Mulliken charges with hydrogens summed into heavy atoms:
               1
     1  O   -0.451787
     2  N    0.500405
     3  O   -0.491413
     4  C   -0.034865
     5  C    0.497115
     6  N   -0.395213
     7  C    0.231310
     9  C    0.035297
    10  C    0.001175
    11  C    0.038109
    12  C    0.024563
    13  C    0.172728
    15  N   -0.504711
    16  C    0.377288
 Electronic spatial extent (au):  <R**2>=           3120.7248
 Charge=              0.0000 electrons
 Dipole moment (field-independent basis, Debye):
    X=              5.4985    Y=              4.2299    Z=              0.8871  Tot=              6.9937
 Quadrupole moment (field-independent basis, Debye-Ang):
   XX=           -106.0190   YY=            -80.0178   ZZ=            -82.3499
   XY=             -0.8783   XZ=             -0.5609   YZ=              0.7284
 Traceless Quadrupole moment (field-independent basis, Debye-Ang):
   XX=            -16.5568   YY=              9.4444   ZZ=              7.1123
   XY=             -0.8783   XZ=             -0.5609   YZ=              0.7284
 Octapole moment (field-independent basis, Debye-Ang**2):
  XXX=            103.5073  YYY=             32.9759  ZZZ=             -3.0390  XYY=             -2.7013
  XXY=              8.0246  XXZ=              7.1457  XZZ=             -7.9804  YZZ=             -3.2958
  YYZ=              2.0404  XYZ=             -2.7225
 Hexadecapole moment (field-independent basis, Debye-Ang**3):
 XXXX=          -3559.5553 YYYY=           -617.8041 ZZZZ=           -299.6386 XXXY=             -8.6962
 XXXZ=            -22.3062 YYYX=              7.1908 YYYZ=             19.0469 ZZZX=              0.8708
 ZZZY=             11.3961 XXYY=           -656.0950 XXZZ=           -542.8260 YYZZ=           -164.3862
 XXYZ=              9.0906 YYXZ=              4.2207 ZZXY=              9.2680
 N-N= 9.175606263543D+02 E-N=-3.381159360981D+03  KE= 6.588593506090D+02
 Calling FoFJK, ICntrl=  10002127 FMM=F ISym2X=0 I1Cent= 0 IOpClX= 0 NMat=1 NMatS=1 NMatT=0.
 -------------------------------------------------------------------
 Center     Atomic                   Forces (Hartrees/Bohr)
 Number     Number              X              Y              Z
 -------------------------------------------------------------------
      1        8          -0.004711252   -0.026631422    0.003750147
      2        7           0.038306598   -0.004566214   -0.021602726
      3        8           0.004386479    0.013935457    0.008189374
      4        6          -0.028860924    0.036552660    0.019894904
      5        6           0.027005174   -0.020667412   -0.004258724
      6        7           0.016737846   -0.004809630   -0.006797151
      7        6          -0.005732481    0.005555147    0.002397201
      8        1          -0.010697284   -0.001900544   -0.007435868
      9        6          -0.003779148    0.000329145   -0.002092313
     10        6           0.002841327   -0.000916104    0.000793658
     11        6          -0.000669184   -0.004475607   -0.002262068
     12        6           0.000773106   -0.008875941   -0.003305423
     13        6           0.008128219    0.000189255    0.002394812
     14        1           0.000667155    0.003812147   -0.010358344
     15        7           0.002220057   -0.003157455    0.006837723
     16        6          -0.023048007    0.012596069    0.001017233
     17        1           0.006701402   -0.009886179   -0.005792667
     18        1          -0.016687392   -0.002096363    0.005081967
     19        1           0.003096397    0.005866607    0.007531652
     20        1          -0.003112371   -0.007579187    0.002646160
     21        1          -0.004203195    0.002291960    0.009710007
     22        1          -0.004094037   -0.004014500   -0.007329066
     23        1           0.003979126    0.006083613    0.009232938
     24        1          -0.009482995    0.002424639   -0.001984250
     25        1          -0.001132971    0.010631365   -0.002438557
     26        1          -0.004800491   -0.004824216   -0.004331944
     27        1           0.006168845    0.004132708    0.000511321
 -------------------------------------------------------------------
 Cartesian Forces:  Max     0.038306598 RMS     0.010968885

 GradGradGradGradGradGradGradGradGradGradGradGradGradGradGradGradGradGrad
 Berny optimization.
 FormGI is forming the generalized inverse of G from B-inverse, IUseBI=4.
 Internal  Forces:  Max     0.036275813 RMS     0.007467526
 Search for a local minimum.
 Step number   1 out of a maximum of   20
 All quantities printed in internal units (Hartrees-Bohrs-Radians)
 Mixed Optimization -- RFO/linear search
 Second derivative matrix not updated -- first step.
 ITU=  0
     Eigenvalues ---    0.00298   0.00769   0.01055   0.01153   0.01200
     Eigenvalues ---    0.01459   0.01534   0.01612   0.01995   0.02032
     Eigenvalues ---    0.02078   0.02666   0.03653   0.04511   0.04699
     Eigenvalues ---    0.04837   0.05065   0.05139   0.05299   0.05862
     Eigenvalues ---    0.06277   0.07224   0.07700   0.07714   0.07856
     Eigenvalues ---    0.07998   0.08034   0.08048   0.10461   0.11739
     Eigenvalues ---    0.12276   0.13409   0.15171   0.15652   0.15988
     Eigenvalues ---    0.15998   0.20120   0.22059   0.23569   0.25000
     Eigenvalues ---    0.25000   0.25307   0.26135   0.26656   0.27992
     Eigenvalues ---    0.28081   0.28185   0.28415   0.31478   0.31700
     Eigenvalues ---    0.32051   0.32240   0.32290   0.32380   0.32386
     Eigenvalues ---    0.32401   0.32510   0.32524   0.32587   0.33381
     Eigenvalues ---    0.33613   0.33915   0.35173   0.43845   0.43873
     Eigenvalues ---    0.49578   0.67493   0.89092   0.915301000.00000
     Eigenvalues --- 1000.000001000.000001000.000001000.000001000.00000
     Eigenvalues --- 1000.000001000.000001000.000001000.000001000.00000
     Eigenvalues --- 1000.000001000.000001000.000001000.000001000.00000
     Eigenvalues --- 1000.000001000.000001000.000001000.000001000.00000
     Eigenvalues --- 1000.000001000.000001000.000001000.000001000.00000
     Eigenvalues --- 1000.000001000.000001000.000001000.000001000.00000
     Eigenvalues --- 1000.000001000.000001000.000001000.000001000.00000
     Eigenvalues --- 1000.000001000.000001000.000001000.000001000.00000
     Eigenvalues --- 1000.000001000.000001000.000001000.000001000.00000
     Eigenvalues --- 1000.000001000.000001000.000001000.000001000.00000
     Eigenvalues --- 1000.000001000.000001000.000001000.000001000.00000
     Eigenvalues --- 1000.000001000.000001000.000001000.000001000.00000
     Eigenvalues --- 1000.000001000.000001000.000001000.000001000.00000
     Eigenvalues --- 1000.000001000.000001000.000001000.000001000.00000
     Eigenvalues --- 1000.000001000.000001000.000001000.000001000.00000
     Eigenvalues --- 1000.000001000.000001000.000001000.000001000.00000
     Eigenvalues --- 1000.000001000.000001000.000001000.000001000.00000
     Eigenvalues --- 1000.000001000.000001000.000001000.000001000.00000
     Eigenvalues --- 1000.00000
 RFO step:  Lambda=-2.78898216D-02 EMin= 2.98079644D-03
 Linear search not attempted -- first point.
 Iteration  1 RMS(Cart)=  0.06012460 RMS(Int)=  0.00709950
 Iteration  2 RMS(Cart)=  0.00919162 RMS(Int)=  0.00134840
 Iteration  3 RMS(Cart)=  0.00027358 RMS(Int)=  0.00132247
 Iteration  4 RMS(Cart)=  0.00000131 RMS(Int)=  0.00132247
 Iteration  5 RMS(Cart)=  0.00000001 RMS(Int)=  0.00132247
 Iteration  1 RMS(Cart)=  0.00005544 RMS(Int)=  0.00003001
 Iteration  2 RMS(Cart)=  0.00002498 RMS(Int)=  0.00003318
 Iteration  3 RMS(Cart)=  0.00001268 RMS(Int)=  0.00003677
 Iteration  4 RMS(Cart)=  0.00000780 RMS(Int)=  0.00003924
 Iteration  5 RMS(Cart)=  0.00000572 RMS(Int)=  0.00004098
 Iteration  6 RMS(Cart)=  0.00000460 RMS(Int)=  0.00004232
 Iteration  7 RMS(Cart)=  0.00000383 RMS(Int)=  0.00004341
 Iteration  8 RMS(Cart)=  0.00000323 RMS(Int)=  0.00004433
 Iteration  9 RMS(Cart)=  0.00000273 RMS(Int)=  0.00004512
 Iteration 10 RMS(Cart)=  0.00000231 RMS(Int)=  0.00004580
 Iteration 11 RMS(Cart)=  0.00000195 RMS(Int)=  0.00004639
 Iteration 12 RMS(Cart)=  0.00000165 RMS(Int)=  0.00004690
 Iteration 13 RMS(Cart)=  0.00000140 RMS(Int)=  0.00004734
 Iteration 14 RMS(Cart)=  0.00000118 RMS(Int)=  0.00004771
 Iteration 15 RMS(Cart)=  0.00000100 RMS(Int)=  0.00004803
 Iteration 16 RMS(Cart)=  0.00000085 RMS(Int)=  0.00004830
 Variable       Old X    -DE/DX   Delta X   Delta X   Delta X     New X
                                 (Linear)    (Quad)   (Total)
    R1        2.32236   0.02614   0.00000   0.02772   0.02772   2.35008
    R2        2.33354   0.00824   0.00000   0.00897   0.00897   2.34251
    R3        2.91735  -0.03628   0.00000  -0.11712  -0.11712   2.80024
    R4        2.65006  -0.03079   0.00000  -0.07002  -0.06979   2.58027
    R5        2.79429  -0.02229   0.00000  -0.06678  -0.06659   2.72769
    R6        2.58814  -0.02213   0.00000  -0.04224  -0.04212   2.54602
    R7        2.08387  -0.01242   0.00000  -0.03433  -0.03433   2.04954
    R8        2.82824  -0.02214   0.00000  -0.05689  -0.05698   2.77126
    R9        1.93307  -0.00634   0.00000  -0.01359  -0.01359   1.91948
   R10        2.11810  -0.01219   0.00000  -0.03559  -0.03559   2.08251
   R11        2.92754  -0.01274   0.00000  -0.04260  -0.04258   2.88496
   R12        2.90806  -0.00539   0.00000  -0.00804  -0.00813   2.89993
   R13        2.91150  -0.00467   0.00000  -0.01445  -0.01447   2.89703
   R14        2.09921  -0.00982   0.00000  -0.02781  -0.02781   2.07140
   R15        2.09896  -0.00819   0.00000  -0.02319  -0.02319   2.07577
   R16        2.90426  -0.00189   0.00000  -0.00707  -0.00713   2.89713
   R17        2.10144  -0.01057   0.00000  -0.03006  -0.03006   2.07138
   R18        2.10317  -0.00901   0.00000  -0.02570  -0.02570   2.07748
   R19        2.91718  -0.00901   0.00000  -0.02834  -0.02835   2.88883
   R20        2.10407  -0.01158   0.00000  -0.03307  -0.03307   2.07100
   R21        2.10116  -0.00996   0.00000  -0.02830  -0.02830   2.07286
   R22        2.93521  -0.01067   0.00000  -0.03603  -0.03601   2.89920
   R23        2.10154  -0.01080   0.00000  -0.03071  -0.03071   2.07083
   R24        2.09784  -0.00787   0.00000  -0.02223  -0.02223   2.07560
   R25        2.10751  -0.00958   0.00000  -0.02751  -0.02751   2.08000
   R26        2.77298  -0.00727   0.00000  -0.01326  -0.01349   2.75949
   R27        2.44056  -0.00268   0.00000  -0.00461  -0.00464   2.43592
   R28        2.07989  -0.00615   0.00000  -0.01689  -0.01689   2.06300
    A1        2.14122   0.01318   0.00000   0.05618   0.04656   2.18778
    A2        2.00486   0.00287   0.00000   0.01900   0.00945   2.01431
    A3        2.12804  -0.01443   0.00000  -0.04327  -0.05282   2.07522
    A4        1.89495   0.02300   0.00000   0.00000  -0.00000   1.89495
    A5        2.09868  -0.02194   0.00000  -0.01793  -0.01830   2.08038
    A6        2.28953  -0.00107   0.00000   0.01796   0.01832   2.30785
    A7        2.16557   0.01479   0.00000   0.03895   0.03934   2.20491
    A8        2.10598  -0.01084   0.00000  -0.03737  -0.03770   2.06828
    A9        2.01064  -0.00388   0.00000  -0.00056  -0.00088   2.00975
   A10        2.25620  -0.00773   0.00000  -0.02861  -0.02855   2.22765
   A11        2.10853  -0.01049   0.00000  -0.05933  -0.05975   2.04878
   A12        1.87010   0.01828   0.00000   0.09748   0.09751   1.96761
   A13        1.83667  -0.00156   0.00000  -0.01617  -0.01598   1.82070
   A14        2.00330  -0.00063   0.00000  -0.01072  -0.01088   1.99243
   A15        1.97602   0.00010   0.00000  -0.00415  -0.00449   1.97153
   A16        1.85241   0.00261   0.00000   0.02515   0.02502   1.87742
   A17        1.84822   0.00108   0.00000   0.01959   0.01937   1.86759
   A18        1.93300  -0.00125   0.00000  -0.00875  -0.00854   1.92446
   A19        1.91051   0.00013   0.00000  -0.00476  -0.00485   1.90566
   A20        1.92149  -0.00071   0.00000  -0.01238  -0.01237   1.90912
   A21        1.92310  -0.00165   0.00000  -0.00661  -0.00662   1.91647
   A22        1.91913  -0.00045   0.00000   0.00462   0.00456   1.92370
   A23        1.90479   0.00312   0.00000   0.02458   0.02459   1.92938
   A24        1.88462  -0.00042   0.00000  -0.00507  -0.00529   1.87934
   A25        1.94090  -0.00111   0.00000   0.00446   0.00435   1.94525
   A26        1.91876  -0.00062   0.00000  -0.00654  -0.00654   1.91222
   A27        1.90491   0.00035   0.00000  -0.00267  -0.00271   1.90220
   A28        1.91600   0.00085   0.00000   0.00678   0.00682   1.92283
   A29        1.89854   0.00180   0.00000   0.01113   0.01116   1.90970
   A30        1.88366  -0.00125   0.00000  -0.01360  -0.01368   1.86999
   A31        1.94442   0.00065   0.00000   0.00491   0.00503   1.94945
   A32        1.90261   0.00060   0.00000   0.00620   0.00616   1.90877
   A33        1.91715   0.00044   0.00000   0.00487   0.00484   1.92200
   A34        1.90715  -0.00121   0.00000  -0.01407  -0.01411   1.89304
   A35        1.91527  -0.00043   0.00000   0.00029   0.00021   1.91548
   A36        1.87587  -0.00007   0.00000  -0.00255  -0.00258   1.87329
   A37        1.94549  -0.00270   0.00000  -0.01687  -0.01693   1.92855
   A38        1.90629   0.00244   0.00000   0.01644   0.01631   1.92259
   A39        1.91141   0.00136   0.00000   0.01256   0.01255   1.92397
   A40        1.90655   0.00011   0.00000  -0.00371  -0.00356   1.90299
   A41        1.91240  -0.00036   0.00000  -0.00464  -0.00458   1.90782
   A42        1.88053  -0.00078   0.00000  -0.00331  -0.00349   1.87704
   A43        1.84530   0.00441   0.00000   0.02036   0.02044   1.86574
   A44        1.93293  -0.00383   0.00000  -0.02733  -0.02769   1.90524
   A45        1.99492   0.00063   0.00000   0.01845   0.01874   2.01366
   A46        1.88138   0.00225   0.00000   0.02852   0.02872   1.91009
   A47        1.89075  -0.00391   0.00000  -0.03098  -0.03112   1.85963
   A48        1.91373   0.00067   0.00000  -0.00707  -0.00684   1.90689
   A49        2.09004  -0.00504   0.00000  -0.01172  -0.01224   2.07779
   A50        2.23375  -0.00093   0.00000  -0.02047  -0.02069   2.21306
   A51        1.98118   0.00349   0.00000   0.02566   0.02516   2.00634
   A52        2.06775  -0.00260   0.00000  -0.00671  -0.00717   2.06058
    D1       -3.00409   0.00545   0.00000   0.00374   0.00353  -3.00055
    D2        0.14414   0.00666   0.00000   0.00000  -0.00000   0.14414
    D3        0.27815  -0.00829   0.00000  -0.24751  -0.24711   0.03104
    D4       -2.85682  -0.00708   0.00000  -0.25125  -0.25064  -3.10746
    D5        3.05773   0.00161   0.00000   0.00430   0.00441   3.06214
    D6       -0.03340   0.00013   0.00000  -0.02112  -0.02093  -0.05432
    D7       -0.09147   0.00014   0.00000   0.00839   0.00837  -0.08310
    D8        3.10059  -0.00134   0.00000  -0.01703  -0.01697   3.08362
    D9       -2.80989  -0.00067   0.00000  -0.01324  -0.01324  -2.82312
   D10        0.36672   0.00052   0.00000   0.03980   0.03993   0.40665
   D11        0.34005   0.00077   0.00000  -0.01782  -0.01762   0.32243
   D12       -2.76652   0.00197   0.00000   0.03523   0.03555  -2.73098
   D13       -0.02835  -0.00040   0.00000  -0.00404  -0.00375  -0.03210
   D14        2.73974   0.00338   0.00000   0.05022   0.04928   2.78902
   D15        3.06527   0.00078   0.00000   0.01907   0.01982   3.08510
   D16       -0.44983   0.00456   0.00000   0.07333   0.07286  -0.37697
   D17       -2.57520  -0.00048   0.00000  -0.00230  -0.00204  -2.57724
   D18        1.67829  -0.00233   0.00000  -0.01686  -0.01654   1.66176
   D19       -0.56469  -0.00007   0.00000   0.00936   0.00932  -0.55537
   D20        0.90054   0.00030   0.00000  -0.02764  -0.02806   0.87248
   D21       -1.12915  -0.00155   0.00000  -0.04219  -0.04256  -1.17171
   D22        2.91105   0.00071   0.00000  -0.01598  -0.01670   2.89435
   D23        2.93739   0.00272   0.00000   0.02943   0.02929   2.96668
   D24       -1.23425   0.00180   0.00000   0.02429   0.02417  -1.21008
   D25        0.84257  -0.00018   0.00000   0.00621   0.00616   0.84873
   D26        0.91675   0.00327   0.00000   0.03872   0.03872   0.95547
   D27        3.02829   0.00235   0.00000   0.03358   0.03360   3.06189
   D28       -1.17808   0.00036   0.00000   0.01550   0.01559  -1.16249
   D29       -1.08145   0.00118   0.00000   0.00617   0.00619  -1.07526
   D30        1.03009   0.00025   0.00000   0.00103   0.00107   1.03116
   D31        3.10691  -0.00173   0.00000  -0.01704  -0.01694   3.08997
   D32       -2.89586  -0.00104   0.00000  -0.01407  -0.01382  -2.90967
   D33       -0.86254   0.00218   0.00000   0.01735   0.01729  -0.84526
   D34        1.30939   0.00048   0.00000   0.00000  -0.00001   1.30938
   D35       -0.89224  -0.00220   0.00000  -0.02380  -0.02370  -0.91595
   D36        1.14107   0.00102   0.00000   0.00762   0.00740   1.14847
   D37       -2.97018  -0.00069   0.00000  -0.00973  -0.00990  -2.98008
   D38        1.10859   0.00085   0.00000   0.01221   0.01233   1.12091
   D39       -3.14128   0.00407   0.00000   0.04363   0.04343  -3.09786
   D40       -0.96935   0.00237   0.00000   0.02628   0.02614  -0.94321
   D41        0.95666   0.00066   0.00000   0.00000   0.00000   0.95666
   D42        3.08233   0.00057   0.00000   0.00709   0.00705   3.08938
   D43       -1.13794  -0.00111   0.00000  -0.01488  -0.01485  -1.15280
   D44       -1.15631   0.00174   0.00000   0.01543   0.01549  -1.14082
   D45        0.96937   0.00165   0.00000   0.02252   0.02254   0.99190
   D46        3.03227  -0.00003   0.00000   0.00055   0.00063   3.03290
   D47        3.06265   0.00064   0.00000   0.00414   0.00411   3.06677
   D48       -1.09486   0.00055   0.00000   0.01123   0.01116  -1.08370
   D49        0.96805  -0.00113   0.00000  -0.01074  -0.01074   0.95730
   D50       -0.92193  -0.00073   0.00000   0.00000   0.00000  -0.92192
   D51        1.18410  -0.00143   0.00000  -0.01034  -0.01035   1.17375
   D52       -3.04792  -0.00092   0.00000  -0.00698  -0.00701  -3.05494
   D53       -3.04921   0.00022   0.00000   0.00067   0.00069  -3.04851
   D54       -0.94318  -0.00049   0.00000  -0.00967  -0.00966  -0.95285
   D55        1.10798   0.00003   0.00000  -0.00631  -0.00632   1.10166
   D56        1.17645   0.00019   0.00000   0.00667   0.00669   1.18314
   D57       -3.00071  -0.00052   0.00000  -0.00367  -0.00366  -3.00437
   D58       -0.94955   0.00000   0.00000  -0.00031  -0.00032  -0.94987
   D59        0.99120  -0.00094   0.00000  -0.00956  -0.00960   0.98160
   D60        3.09958  -0.00091   0.00000  -0.01407  -0.01421   3.08537
   D61       -1.12798   0.00036   0.00000  -0.00117  -0.00114  -1.12912
   D62       -1.11216  -0.00130   0.00000  -0.01113  -0.01112  -1.12328
   D63        0.99622  -0.00127   0.00000  -0.01564  -0.01573   0.98049
   D64        3.05185  -0.00000   0.00000  -0.00274  -0.00266   3.04919
   D65        3.11829  -0.00025   0.00000   0.00006   0.00006   3.11835
   D66       -1.05651  -0.00022   0.00000  -0.00444  -0.00455  -1.06106
   D67        0.99911   0.00105   0.00000   0.00846   0.00852   1.00764
   D68       -1.05888   0.00026   0.00000  -0.00164  -0.00160  -1.06049
   D69       -3.12684   0.00130   0.00000   0.00544   0.00511  -3.12173
   D70        1.08675   0.00140   0.00000   0.01500   0.01493   1.10167
   D71        3.11607  -0.00113   0.00000  -0.00893  -0.00882   3.10725
   D72        1.04812  -0.00009   0.00000  -0.00185  -0.00211   1.04601
   D73       -1.02149   0.00001   0.00000   0.00771   0.00771  -1.01378
   D74        1.05972  -0.00004   0.00000  -0.00005   0.00009   1.05981
   D75       -1.00824   0.00100   0.00000   0.00703   0.00680  -1.00143
   D76       -3.07784   0.00110   0.00000   0.01659   0.01662  -3.06122
   D77       -1.17217   0.00350   0.00000   0.00000  -0.00001  -1.17218
   D78        3.05892   0.00025   0.00000  -0.01566  -0.01544   3.04348
   D79        1.00995  -0.00057   0.00000  -0.02815  -0.02836   0.98159
   D80        0.24499  -0.00199   0.00000   0.00760   0.00734   0.25233
   D81       -2.93313  -0.00313   0.00000  -0.04720  -0.04674  -2.97987
         Item               Value     Threshold  Converged?
 Maximum Force            0.036276     0.000450     NO 
 RMS     Force            0.007148     0.000300     NO 
 Maximum Displacement     0.406125     0.001800     NO 
 RMS     Displacement     0.064734     0.001200     NO 
 Predicted change in Energy=-1.716817D-02
 GradGradGradGradGradGradGradGradGradGradGradGradGradGradGradGradGradGrad

                          Input orientation:                          
 ---------------------------------------------------------------------
 Center     Atomic      Atomic             Coordinates (Angstroms)
 Number     Number       Type             X           Y           Z
 ---------------------------------------------------------------------
      1          8           0       -3.557820   -1.326766   -0.231345
      2          7           0       -3.121991   -0.168197   -0.111649
      3          8           0       -3.811637    0.838598    0.105992
      4          6           0       -1.645601   -0.043220   -0.090551
      5          6           0       -1.322701    1.245510    0.224540
      6          7           0       -0.082146    1.731455    0.424745
      7          6           0        1.185030    0.994207    0.388428
      8          1           0        1.820987    1.508797    1.126806
      9          6           0        1.902923    1.051652   -0.957678
     10          6           0        3.312049    0.468131   -0.802471
     11          6           0        3.271389   -0.946443   -0.212808
     12          6           0        2.464180   -0.994923    1.084497
     13          6           0        1.044385   -0.461237    0.854074
     14          1           0        0.485782   -0.484857    1.802187
     15          7           0        0.410125   -1.365364   -0.101241
     16          6           0       -0.836597   -1.201794   -0.385035
     17          1           0       -2.125317    1.963519    0.353227
     18          1           0        0.045410    2.735682    0.341133
     19          1           0        1.334366    0.477069   -1.698029
     20          1           0        1.952706    2.091254   -1.308875
     21          1           0        3.814116    0.457170   -1.776793
     22          1           0        3.899461    1.122422   -0.142601
     23          1           0        2.808439   -1.628141   -0.935318
     24          1           0        4.290519   -1.308078   -0.028950
     25          1           0        2.403288   -2.025118    1.453075
     26          1           0        2.956520   -0.393995    1.860954
     27          1           0       -1.333872   -1.972324   -0.977313
 ---------------------------------------------------------------------
                    Distance matrix (angstroms):
                    1          2          3          4          5
     1  O    0.000000
     2  N    1.243606   0.000000
     3  O    2.206133   1.239603   0.000000
     4  C    2.307357   1.481821   2.346902   0.000000
     5  C    3.438051   2.312798   2.524764   1.365420   0.000000
     6  N    4.675840   3.624507   3.848103   2.420618   1.347294
     7  C    5.316546   4.489063   5.007062   3.052564   2.525614
     8  H    6.230293   5.364616   5.763478   3.988476   3.281185
     9  C    6.000345   5.239614   5.816613   3.813485   3.440911
    10  C    7.123408   6.502232   7.190929   5.034540   4.810403
    11  C    6.839816   6.441367   7.311447   5.000754   5.108972
    12  C    6.173010   5.772309   6.610987   4.379129   4.483250
    13  C    4.807033   4.286862   5.082337   2.881506   2.985364
    14  H    4.603779   4.096226   4.805874   2.884492   2.958674
    15  N    3.970265   3.729499   4.766935   2.444215   3.150474
    16  C    2.728423   2.523111   3.640765   1.443434   2.568497
    17  H    3.635900   2.398684   2.042119   2.110466   1.084568
    18  H    5.460264   4.320874   4.304769   3.281488   2.026310
    19  H    5.416500   4.774106   5.465030   3.425622   3.368498
    20  H    6.573418   5.682519   6.066189   4.357534   3.714153
    21  H    7.740561   7.160543   7.863999   5.736053   5.568995
    22  H    7.849678   7.139149   7.720323   5.666492   5.236499
    23  H    6.412150   6.162781   7.141046   4.802507   5.164249
    24  H    7.850971   7.500098   8.382802   6.069693   6.171978
    25  H    6.233761   6.035331   6.974296   4.764892   5.107769
    26  H    6.905390   6.394564   7.099798   5.011081   4.865960
    27  H    2.432932   2.683583   3.900533   2.145918   3.434972
                    6          7          8          9         10
     6  N    0.000000
     7  C    1.466488   0.000000
     8  H    2.040682   1.102019   0.000000
     9  C    2.512713   1.526654   2.135596   0.000000
    10  C    3.823952   2.493834   2.651106   1.533044   0.000000
    11  C    4.338641   2.912130   3.150624   2.533755   1.533093
    12  C    3.788427   2.465233   2.585362   2.945158   2.533783
    13  C    2.502257   1.534576   2.135070   2.511646   2.958068
    14  H    2.670566   2.162242   2.492702   3.462081   3.959825
    15  N    3.179509   2.531369   3.429202   2.967136   3.503511
    16  C    3.135105   3.083446   4.086039   3.593175   4.491566
    17  H    2.057551   3.449521   4.047037   4.333208   5.756455
    18  H    1.015743   2.081754   2.296780   2.823689   4.137698
    19  H    2.843618   2.154771   3.046466   1.096139   2.171022
    20  H    2.697316   2.161869   2.507817   1.098449   2.176876
    21  H    4.653110   3.447998   3.675509   2.162641   1.096127
    22  H    4.067677   2.768857   2.465915   2.157666   1.099353
    23  H    4.635962   3.356259   3.881726   2.828736   2.160007
    24  H    5.344605   3.888288   3.920350   3.483027   2.170404
    25  H    4.620247   3.425485   3.596397   3.940635   3.482761
    26  H    3.976648   2.689538   2.334315   3.338360   2.821966
    27  H    4.153379   4.124369   5.147684   4.429633   5.250806
                   11         12         13         14         15
    11  C    0.000000
    12  C    1.528704   0.000000
    13  C    2.516586   1.534188   0.000000
    14  H    3.468843   2.165480   1.100688   0.000000
    15  N    2.893920   2.400488   1.460260   2.098584   0.000000
    16  C    4.119516   3.619040   2.371057   2.654548   1.289035
    17  H    6.157329   5.509139   4.022101   3.861588   4.209093
    18  H    4.926644   4.507820   3.388413   3.563772   4.140928
    19  H    2.825655   3.344502   2.734545   3.727856   2.607396
    20  H    3.488250   3.938822   3.466786   4.297315   3.973178
    21  H    2.170422   3.481075   3.928911   4.977381   4.209069
    22  H    2.163239   2.837067   3.413619   4.244850   4.285587
    23  H    1.095927   2.144559   2.770465   3.767728   2.552773
    24  H    1.096909   2.161792   3.469043   4.301951   3.881490
    25  H    2.166172   1.095837   2.156651   2.484173   2.612254
    26  H    2.169061   1.098361   2.162080   2.473107   3.358257
    27  H    4.779678   4.430753   3.360576   3.639961   2.043876
                   16         17         18         19         20
    16  C    0.000000
    17  H    3.496432   0.000000
    18  H    4.099874   2.304005   0.000000
    19  H    3.042304   4.287959   3.304681   0.000000
    20  H    4.413372   4.405583   2.602996   1.771829   0.000000
    21  H    5.130135   6.487136   4.886754   2.481080   2.520719
    22  H    5.281193   6.103379   4.205985   3.068477   2.467526
    23  H    3.710913   6.237172   5.320395   2.680770   3.834805
    24  H    5.140566   7.211959   5.874513   3.835546   4.319611
    25  H    3.814888   6.134097   5.427818   4.163291   4.977540
    26  H    4.481600   5.801395   4.536441   4.007056   4.151135
    27  H    1.091692   4.229371   5.079964   3.693027   5.236811
                   21         22         23         24         25
    21  H    0.000000
    22  H    1.766473   0.000000
    23  H    2.463329   3.063385   0.000000
    24  H    2.529430   2.464381   1.766495   0.000000
    25  H    4.310944   3.832978   2.454824   2.504433   0.000000
    26  H    3.833165   2.683820   3.060095   2.487335   1.770025
    27  H    5.748338   6.136935   4.156797   5.742333   4.458244
                   26         27
    26  H    0.000000
    27  H    5.380924   0.000000
 Symmetry turned off by external request.
 Stoichiometry    C9H13N3O2
 Framework group  C1[X(C9H13N3O2)]
 Deg. of freedom    75
 Full point group                 C1      NOp   1
 Rotational constants (GHZ):           1.6856071           0.4223475           0.3727794
 Standard basis: 6-31G(d) (6D, 7F)
   236 basis functions,   444 primitive gaussians,   236 cartesian basis functions
    52 alpha electrons       52 beta electrons
       nuclear repulsion energy       932.0173924429 Hartrees.
 NAtoms=   27 NActive=   27 NUniq=   27 SFac= 1.00D+00 NAtFMM=   60 NAOKFM=F Big=F
 Integral buffers will be    131072 words long.
 Raffenetti 1 integral format.
 Two-electron integral symmetry is turned off.
 One-electron integrals computed using PRISM.
 NBasis=   236 RedAO= T EigKep=  1.02D-03  NBF=   236
 NBsUse=   236 1.00D-06 EigRej= -1.00D+00 NBFU=   236
 Initial guess from the checkpoint file:  "/home/alexey/tmp/Gau-1343540.chk"
 B after Tr=     0.054235    0.001351    0.011232
         Rot=    0.999992   -0.003263   -0.002327    0.000431 Ang=  -0.46 deg.
 ExpMin= 1.61D-01 ExpMax= 5.48D+03 ExpMxC= 8.25D+02 IAcc=3 IRadAn=         5 AccDes= 0.00D+00
 Harris functional with IExCor=  205 and IRadAn=       5 diagonalized for initial guess.
 HarFok:  IExCor=  205 AccDes= 0.00D+00 IRadAn=         5 IDoV= 1 UseB2=F ITyADJ=14
 ICtDFT=  3500011 ScaDFX=  1.000000  1.000000  1.000000  1.000000
 FoFCou: FMM=F IPFlag=           0 FMFlag=      100000 FMFlg1=           0
         NFxFlg=           0 DoJE=T BraDBF=F KetDBF=T FulRan=T
         wScrn=  0.000000 ICntrl=       500 IOpCl=  0 I1Cent=   200000004 NGrid=           0
         NMat0=    1 NMatS0=      1 NMatT0=    0 NMatD0=    1 NMtDS0=    0 NMtDT0=    0
 Symmetry not used in FoFCou.
 Keep R1 ints in memory in canonical form, NReq=397720213.
 Requested convergence on RMS density matrix=1.00D-08 within 128 cycles.
 Requested convergence on MAX density matrix=1.00D-06.
 Requested convergence on             energy=1.00D-06.
 No special actions if energy rises.
 SCF Done:  E(RHF) =  -661.292637902     A.U. after   15 cycles
            NFock= 15  Conv=0.10D-07     -V/T= 2.0025
 ExpMin= 1.61D-01 ExpMax= 5.48D+03 ExpMxC= 8.25D+02 IAcc=3 IRadAn=         5 AccDes= 0.00D+00
 HarFok:  IExCor=  205 AccDes= 0.00D+00 IRadAn=         5 IDoV=-2 UseB2=F ITyADJ=14
 ICtDFT= 12500011 ScaDFX=  1.000000  1.000000  1.000000  1.000000
 Range of M.O.s used for correlation:    15   236
 NBasis=   236 NAE=    52 NBE=    52 NFC=    14 NFV=     0
 NROrb=    222 NOA=    38 NOB=    38 NVA=   184 NVB=   184
 Fully direct method using O(ONN) memory.
 JobTyp=1 Pass  1:  I=  15 to  52 NPSUse=  4 ParTrn=T ParDer=T DoDerP=T.
 Spin components of T(2) and E(2):
     alpha-alpha T2 =       0.9148213561D-01 E2=     -0.2726071808D+00
     alpha-beta  T2 =       0.4919446011D+00 E2=     -0.1488788080D+01
     beta-beta   T2 =       0.9148213561D-01 E2=     -0.2726071808D+00
 ANorm=    0.1294182704D+01
 E2 =    -0.2034002441D+01 EUMP2 =    -0.66332664034299D+03
          IDoAtm=111111111111111111111111111
          Differentiating once with respect to electric field.
                with respect to dipole field.
          Differentiating once with respect to nuclear coordinates.
 Keep R1 ints in memory in canonical form, NReq=397723379.
          There are     1 degrees of freedom in the 1st order CPHF.  IDoFFX=0 NUNeed=     1.
 LinEq1:  Iter=  0 NonCon=     1 RMS=4.61D-03 Max=1.06D-01 NDo=     1
 AX will form     1 AO Fock derivatives at one time.
 LinEq1:  Iter=  1 NonCon=     1 RMS=1.56D-03 Max=3.03D-02 NDo=     1
 LinEq1:  Iter=  2 NonCon=     1 RMS=6.54D-04 Max=1.85D-02 NDo=     1
[...]
    16  C    0.000000
    17  H    3.478702   0.000000
    18  H    4.119298   2.250371   0.000000
    19  H    3.004921   4.275315   3.502919   0.000000
    20  H    4.393016   4.422824   2.863278   1.768567   0.000000
    21  H    5.105762   6.491495   5.074351   2.499315   2.520370
    22  H    5.258780   6.094998   4.304507   3.070258   2.461708
    23  H    3.692653   6.227171   5.420777   2.702832   3.842183
    24  H    5.132643   7.201101   5.935938   3.848575   4.316789
    25  H    3.816121   6.106570   5.379931   4.170934   4.984179
    26  H    4.493977   5.795915   4.487618   4.030897   4.176919
    27  H    1.089828   4.218796   5.111171   3.620235   5.183299
                   21         22         23         24         25
    21  H    0.000000
    22  H    1.758942   0.000000
    23  H    2.469978   3.062536   0.000000
    24  H    2.517716   2.460118   1.764552   0.000000
    25  H    4.311816   3.837599   2.445407   2.518324   0.000000
    26  H    3.844346   2.700710   3.060568   2.493484   1.768043
    27  H    5.685570   6.087333   4.109647   5.710937   4.457185
                   26         27
    26  H    0.000000
    27  H    5.385411   0.000000
 Symmetry turned off by external request.
 Stoichiometry    C9H13N3O2
 Framework group  C1[X(C9H13N3O2)]
 Deg. of freedom    75
 Full point group                 C1      NOp   1
 Rotational constants (GHZ):           1.6821019           0.4200025           0.3734013

 **********************************************************************

            Population analysis using the SCF Density.

 **********************************************************************

 Alpha  occ. eigenvalues --  -20.58983 -20.58954 -15.84577 -15.64034 -15.56220
 Alpha  occ. eigenvalues --  -11.34744 -11.29894 -11.29632 -11.28715 -11.27224
 Alpha  occ. eigenvalues --  -11.23759 -11.23220 -11.22718 -11.22107  -1.57009
 Alpha  occ. eigenvalues --   -1.36576  -1.30873  -1.23174  -1.14658  -1.09777
 Alpha  occ. eigenvalues --   -1.02765  -1.01250  -0.93985  -0.89740  -0.85531
 Alpha  occ. eigenvalues --   -0.82547  -0.78831  -0.77367  -0.75179  -0.71715
 Alpha  occ. eigenvalues --   -0.69565  -0.69377  -0.67797  -0.64792  -0.63870
 Alpha  occ. eigenvalues --   -0.62528  -0.60505  -0.57644  -0.57066  -0.55177
 Alpha  occ. eigenvalues --   -0.54656  -0.50726  -0.50128  -0.48343  -0.48163
 Alpha  occ. eigenvalues --   -0.47260  -0.46242  -0.45988  -0.43680  -0.41785
 Alpha  occ. eigenvalues --   -0.40088  -0.33654
 Alpha virt. eigenvalues --    0.07922   0.11288   0.17462   0.21877   0.24111
 Alpha virt. eigenvalues --    0.25469   0.27145   0.28563   0.29019   0.29507
 Alpha virt. eigenvalues --    0.30863   0.31664   0.32171   0.32770   0.33893
 Alpha virt. eigenvalues --    0.34347   0.35693   0.37482   0.38498   0.39494
 Alpha virt. eigenvalues --    0.40978   0.42565   0.45124   0.46214   0.47059
 Alpha virt. eigenvalues --    0.47498   0.49260   0.54532   0.57801   0.59139
 Alpha virt. eigenvalues --    0.64041   0.69127   0.69747   0.72896   0.74185
 Alpha virt. eigenvalues --    0.74358   0.75844   0.76577   0.78464   0.79354
 Alpha virt. eigenvalues --    0.81469   0.84481   0.85548   0.86238   0.88449
 Alpha virt. eigenvalues --    0.89485   0.91119   0.91775   0.92890   0.94594
 Alpha virt. eigenvalues --    0.95808   0.97936   0.99501   1.01508   1.02481
 Alpha virt. eigenvalues --    1.03268   1.05963   1.06947   1.08188   1.09047
 Alpha virt. eigenvalues --    1.10373   1.11817   1.11950   1.12352   1.13853
 Alpha virt. eigenvalues --    1.14692   1.15082   1.15837   1.16805   1.18633
 Alpha virt. eigenvalues --    1.19115   1.21325   1.22690   1.24061   1.24164
 Alpha virt. eigenvalues --    1.25300   1.26233   1.26762   1.27682   1.29566
 Alpha virt. eigenvalues --    1.29633   1.33146   1.36354   1.37321   1.40075
 Alpha virt. eigenvalues --    1.41060   1.44292   1.47801   1.53047   1.53130
 Alpha virt. eigenvalues --    1.58478   1.58714   1.59508   1.63213   1.65893
 Alpha virt. eigenvalues --    1.68409   1.68514   1.72967   1.75195   1.77457
 Alpha virt. eigenvalues --    1.81685   1.84794   1.87489   1.90603   1.93321
 Alpha virt. eigenvalues --    1.95749   1.97012   1.99754   2.01119   2.01929
 Alpha virt. eigenvalues --    2.04838   2.05292   2.08739   2.10323   2.12443
 Alpha virt. eigenvalues --    2.13273   2.14961   2.18680   2.19804   2.22196
 Alpha virt. eigenvalues --    2.23112   2.24659   2.25874   2.28350   2.29680
 Alpha virt. eigenvalues --    2.31934   2.33306   2.34408   2.36511   2.38519
 Alpha virt. eigenvalues --    2.40645   2.42318   2.45030   2.45306   2.47775
 Alpha virt. eigenvalues --    2.49988   2.51767   2.53260   2.55493   2.60100
 Alpha virt. eigenvalues --    2.62358   2.65058   2.67831   2.69780   2.70420
 Alpha virt. eigenvalues --    2.72010   2.72633   2.77011   2.78231   2.83779
 Alpha virt. eigenvalues --    2.88649   2.88969   2.92991   2.93446   2.95708
 Alpha virt. eigenvalues --    2.99369   3.01113   3.04900   3.05597   3.08009
 Alpha virt. eigenvalues --    3.09505   3.14750   3.20280   3.25260   3.27628
 Alpha virt. eigenvalues --    3.33089   3.37295   3.38091   3.50857   3.66123
 Alpha virt. eigenvalues --    4.14514   4.26755   4.34266   4.39587   4.46270
 Alpha virt. eigenvalues --    4.56013   4.61955   4.62390   4.73557   4.79732
 Alpha virt. eigenvalues --    4.99432   5.00815   5.05037   5.11302
          Condensed to atoms (all electrons):
               1          2          3          4          5          6
     1  O    8.315797   0.305164  -0.082000  -0.086658   0.004975  -0.000022
     2  N    0.305164   5.728437   0.294777   0.268014  -0.063373   0.001162
     3  O   -0.082000   0.294777   8.362610  -0.086365  -0.004708   0.001059
     4  C   -0.086658   0.268014  -0.086365   5.231424   0.551375  -0.051829
     5  C    0.004975  -0.063373  -0.004708   0.551375   4.747447   0.310245
     6  N   -0.000022   0.001162   0.001059  -0.051829   0.310245   7.201339
     7  C    0.000003  -0.000158  -0.000001   0.004728  -0.029285   0.172148
     8  H   -0.000000   0.000002   0.000000  -0.000247   0.003031  -0.050365
     9  C   -0.000000  -0.000004  -0.000000   0.000816   0.000512  -0.062806
    10  C    0.000000   0.000000   0.000000  -0.000037  -0.000053   0.003787
    11  C   -0.000000  -0.000000  -0.000000  -0.000032   0.000023  -0.000182
    12  C   -0.000000   0.000002  -0.000000  -0.000082  -0.000200   0.003777
    13  C   -0.000018  -0.000024  -0.000004  -0.012014  -0.000803  -0.046289
    14  H   -0.000003  -0.000111   0.000001   0.002354   0.005724  -0.006600
    15  N    0.000424   0.002136  -0.000013  -0.064380  -0.006769   0.001929
    16  C    0.002923  -0.021698   0.002323   0.334141  -0.050897  -0.000513
    17  H    0.000351  -0.009391   0.020401  -0.022424   0.373950  -0.032454
    18  H    0.000001  -0.000068   0.000021   0.001534  -0.031010   0.337893
    19  H    0.000001  -0.000007   0.000000  -0.001348   0.001293  -0.000320
    20  H    0.000000  -0.000000   0.000000  -0.000084   0.000179  -0.000456
    21  H   -0.000000   0.000000   0.000000   0.000001   0.000001  -0.000078
    22  H   -0.000000   0.000000  -0.000000  -0.000000  -0.000003  -0.000117
    23  H    0.000000  -0.000000   0.000000   0.000040   0.000001  -0.000031
    24  H    0.000000   0.000000   0.000000   0.000000  -0.000000   0.000006
    25  H    0.000000  -0.000000   0.000000   0.000022   0.000002  -0.000088
    26  H    0.000000  -0.000000   0.000000   0.000005   0.000000  -0.000055
    27  H    0.006893  -0.000413   0.000045  -0.062400   0.001981   0.000015
               7          8          9         10         11         12
     1  O    0.000003  -0.000000  -0.000000   0.000000  -0.000000  -0.000000
     2  N   -0.000158   0.000002  -0.000004   0.000000  -0.000000   0.000002
     3  O   -0.000001   0.000000  -0.000000   0.000000  -0.000000  -0.000000
     4  C    0.004728  -0.000247   0.000816  -0.000037  -0.000032  -0.000082
     5  C   -0.029285   0.003031   0.000512  -0.000053   0.000023  -0.000200
     6  N    0.172148  -0.050365  -0.062806   0.003787  -0.000182   0.003777
     7  C    5.018571   0.418407   0.350271  -0.054383  -0.009063  -0.060740
     8  H    0.418407   0.537072  -0.054908   0.000721  -0.000316  -0.002444
     9  C    0.350271  -0.054908   5.158982   0.324891  -0.050570  -0.005280
    10  C   -0.054383   0.000721   0.324891   5.118781   0.337000  -0.061188
    11  C   -0.009063  -0.000316  -0.050570   0.337000   5.120350   0.336030
    12  C   -0.060740  -0.002444  -0.005280  -0.061188   0.336030   5.118717
    13  C    0.336382  -0.037510  -0.060692  -0.000297  -0.050902   0.371348
    14  H   -0.047082  -0.000725   0.004433  -0.000405   0.004187  -0.035890
    15  N   -0.057424   0.003760  -0.013807   0.001583  -0.013195  -0.081909
    16  C   -0.002163  -0.000010  -0.000885  -0.000047   0.000047   0.002673
    17  H    0.001474  -0.000041  -0.000064   0.000001   0.000000  -0.000000
    18  H   -0.021271  -0.004424   0.001317  -0.000084   0.000004  -0.000111
    19  H   -0.037140   0.004358   0.390275  -0.032184  -0.002224   0.000676
    20  H   -0.042471  -0.001999   0.399582  -0.035269   0.003935  -0.000414
    21  H    0.004591  -0.000075  -0.036379   0.402417  -0.034949   0.004366
    22  H   -0.004886   0.003559  -0.046937   0.397825  -0.045303  -0.001084
    23  H    0.000565   0.000036  -0.001968  -0.039040   0.399300  -0.038001
    24  H   -0.000132  -0.000103   0.004395  -0.038410   0.402335  -0.038644
    25  H    0.005156  -0.000019  -0.000426   0.004203  -0.033378   0.398471
    26  H   -0.003977   0.001673   0.000987  -0.002288  -0.041403   0.396754
    27  H   -0.000374   0.000008  -0.000050   0.000006   0.000011  -0.000041
              13         14         15         16         17         18
     1  O   -0.000018  -0.000003   0.000424   0.002923   0.000351   0.000001
     2  N   -0.000024  -0.000111   0.002136  -0.021698  -0.009391  -0.000068
     3  O   -0.000004   0.000001  -0.000013   0.002323   0.020401   0.000021
     4  C   -0.012014   0.002354  -0.064380   0.334141  -0.022424   0.001534
     5  C   -0.000803   0.005724  -0.006769  -0.050897   0.373950  -0.031010
     6  N   -0.046289  -0.006600   0.001929  -0.000513  -0.032454   0.337893
     7  C    0.336382  -0.047082  -0.057424  -0.002163   0.001474  -0.021271
     8  H   -0.037510  -0.000725   0.003760  -0.000010  -0.000041  -0.004424
     9  C   -0.060692   0.004433  -0.013807  -0.000885  -0.000064   0.001317
    10  C   -0.000297  -0.000405   0.001583  -0.000047   0.000001  -0.000084
    11  C   -0.050902   0.004187  -0.013195   0.000047   0.000000   0.000004
    12  C    0.371348  -0.035890  -0.081909   0.002673  -0.000000  -0.000111
    13  C    5.039775   0.403622   0.247843  -0.070751  -0.000000   0.002884
    14  H    0.403622   0.525795  -0.038056  -0.004422   0.000087  -0.000124
    15  N    0.247843  -0.038056   6.965959   0.581848  -0.000080  -0.000132
    16  C   -0.070751  -0.004422   0.581848   4.705015   0.001521  -0.000204
    17  H   -0.000000   0.000087  -0.000080   0.001521   0.359482  -0.002283
    18  H    0.002884  -0.000124  -0.000132  -0.000204  -0.002283   0.311454
    19  H   -0.007442   0.000111   0.007515   0.002936   0.000018  -0.000153
    20  H    0.004347  -0.000067   0.000116  -0.000038   0.000002   0.000853
    21  H   -0.000441   0.000010  -0.000041   0.000004  -0.000000   0.000001
    22  H    0.000084  -0.000053   0.000018  -0.000002   0.000000   0.000001
    23  H   -0.007504   0.000005   0.008573   0.000095   0.000000   0.000000
    24  H    0.004709  -0.000057   0.000128   0.000006   0.000000  -0.000000
    25  H   -0.035676  -0.002861   0.000445  -0.000018  -0.000000   0.000002
    26  H   -0.047304  -0.001047   0.004877  -0.000064   0.000000  -0.000000
    27  H    0.004818  -0.000162  -0.038706   0.402400  -0.000075   0.000001
              19         20         21         22         23         24
     1  O    0.000001   0.000000  -0.000000  -0.000000   0.000000   0.000000
     2  N   -0.000007  -0.000000   0.000000   0.000000  -0.000000   0.000000
     3  O    0.000000   0.000000   0.000000  -0.000000   0.000000   0.000000
     4  C   -0.001348  -0.000084   0.000001  -0.000000   0.000040   0.000000
     5  C    0.001293   0.000179   0.000001  -0.000003   0.000001  -0.000000
     6  N   -0.000320  -0.000456  -0.000078  -0.000117  -0.000031   0.000006
     7  C   -0.037140  -0.042471   0.004591  -0.004886   0.000565  -0.000132
     8  H    0.004358  -0.001999  -0.000075   0.003559   0.000036  -0.000103
     9  C    0.390275   0.399582  -0.036379  -0.046937  -0.001968   0.004395
    10  C   -0.032184  -0.035269   0.402417   0.397825  -0.039040  -0.038410
    11  C   -0.002224   0.003935  -0.034949  -0.045303   0.399300   0.402335
    12  C    0.000676  -0.000414   0.004366  -0.001084  -0.038001  -0.038644
    13  C   -0.007442   0.004347  -0.000441   0.000084  -0.007504   0.004709
    14  H    0.000111  -0.000067   0.000010  -0.000053   0.000005  -0.000057
    15  N    0.007515   0.000116  -0.000041   0.000018   0.008573   0.000128
    16  C    0.002936  -0.000038   0.000004  -0.000002   0.000095   0.000006
    17  H    0.000018   0.000002  -0.000000   0.000000   0.000000   0.000000
    18  H   -0.000153   0.000853   0.000001   0.000001   0.000000  -0.000000
    19  H    0.506114  -0.024761  -0.002785   0.003967   0.001525  -0.000067
    20  H   -0.024761   0.540905  -0.002712  -0.002972  -0.000045  -0.000083
    21  H   -0.002785  -0.002712   0.524168  -0.027386  -0.002892  -0.002249
    22  H    0.003967  -0.002972  -0.027386   0.570958   0.004130  -0.003643
    23  H    0.001525  -0.000045  -0.002892   0.004130   0.498959  -0.025426
    24  H   -0.000067  -0.000083  -0.002249  -0.003643  -0.025426   0.537914
    25  H   -0.000029   0.000012  -0.000087  -0.000081  -0.002297  -0.002327
    26  H    0.000020  -0.000030  -0.000080   0.002383   0.004063  -0.003001
    27  H    0.000084   0.000000  -0.000000   0.000000  -0.000033  -0.000000
              25         26         27
     1  O    0.000000   0.000000   0.006893
     2  N   -0.000000  -0.000000  -0.000413
     3  O    0.000000   0.000000   0.000045
     4  C    0.000022   0.000005  -0.062400
     5  C    0.000002   0.000000   0.001981
     6  N   -0.000088  -0.000055   0.000015
     7  C    0.005156  -0.003977  -0.000374
     8  H   -0.000019   0.001673   0.000008
     9  C   -0.000426   0.000987  -0.000050
    10  C    0.004203  -0.002288   0.000006
    11  C   -0.033378  -0.041403   0.000011
    12  C    0.398471   0.396754  -0.000041
    13  C   -0.035676  -0.047304   0.004818
    14  H   -0.002861  -0.001047  -0.000162
    15  N    0.000445   0.004877  -0.038706
    16  C   -0.000018  -0.000064   0.402400
    17  H   -0.000000   0.000000  -0.000075
    18  H    0.000002  -0.000000   0.000001
    19  H   -0.000029   0.000020   0.000084
    20  H    0.000012  -0.000030   0.000000
    21  H   -0.000087  -0.000080  -0.000000
    22  H   -0.000081   0.002383   0.000000
    23  H   -0.002297   0.004063  -0.000033
    24  H   -0.002327  -0.003001  -0.000000
    25  H    0.505745  -0.024048  -0.000012
    26  H   -0.024048   0.561860   0.000001
    27  H   -0.000012   0.000001   0.432828
 Mulliken charges:
               1
     1  O   -0.467832
     2  N    0.495551
     3  O   -0.508147
     4  C   -0.006552
     5  C    0.186364
     6  N   -0.781153
     7  C    0.058255
     8  H    0.180558
     9  C   -0.301685
    10  C   -0.327530
    11  C   -0.321705
    12  C   -0.306786
    13  C   -0.038141
    14  H    0.191338
    15  N   -0.512642
    16  C    0.115778
    17  H    0.309526
    18  H    0.403896
    19  H    0.189569
    20  H    0.161469
    21  H    0.174594
    22  H    0.149542
    23  H    0.199945
    24  H    0.164649
    25  H    0.187287
    26  H    0.150677
    27  H    0.253175
 Sum of Mulliken charges =  -0.00000
 Mulliken charges with hydrogens summed into heavy atoms:
               1
     1  O   -0.467832
     2  N    0.495551
     3  O   -0.508147
     4  C   -0.006552
     5  C    0.495890
     6  N   -0.377256
     7  C    0.238813
     9  C    0.049353
    10  C   -0.003394
    11  C    0.042890
    12  C    0.031178
    13  C    0.153197
    15  N   -0.512642
    16  C    0.368953
 Electronic spatial extent (au):  <R**2>=           2999.0275
 Charge=             -0.0000 electrons
 Dipole moment (field-independent basis, Debye):
    X=              5.4241    Y=              4.5826    Z=              1.3359  Tot=              7.2254
 Quadrupole moment (field-independent basis, Debye-Ang):
   XX=           -106.3218   YY=            -79.0639   ZZ=            -81.7388
   XY=             -1.0929   XZ=             -0.6439   YZ=              1.6125
 Traceless Quadrupole moment (field-independent basis, Debye-Ang):
   XX=            -17.2803   YY=              9.9776   ZZ=              7.3027
   XY=             -1.0929   XZ=             -0.6439   YZ=              1.6125
 Octapole moment (field-independent basis, Debye-Ang**2):
  XXX=             92.0099  YYY=             33.2316  ZZZ=             -1.0063  XYY=             -5.9763
  XXY=              7.3271  XXZ=              7.6290  XZZ=             -9.2152  YZZ=             -0.5843
  YYZ=              7.7269  XYZ=              0.9458
 Hexadecapole moment (field-independent basis, Debye-Ang**3):
 XXXX=          -3371.6803 YYYY=           -598.0435 ZZZZ=           -306.4287 XXXY=             -1.8503
 XXXZ=            -31.9366 YYYX=             10.2728 YYYZ=             24.5471 ZZZX=             -6.1916
 ZZZY=              6.3728 XXYY=           -624.8499 XXZZ=           -525.4259 YYZZ=           -157.5794
 XXYZ=             -6.9510 YYXZ=             -0.9323 ZZXY=              8.2413
 N-N= 9.316058930056D+02 E-N=-3.409933717784D+03  KE= 6.596256402932D+02
 Unable to Open any file for archive entry.
 1\1\GINC-LOTUS\FOpt\RMP2-FC\6-31G(d)\C9H13N3O2\ALEXEY\01-Jul-2023\0\\#
 MP2/6-31G* SCF=Tight Opt=(ModRedun, MaxCycle=20 ) NoSymm\\MolName:\\0,
 1\O,-3.5604309389,-1.2771867957,-0.4649445929\N,-3.1095359865,-0.15656
 24228,-0.1486732725\O,-3.8365378369,0.8351884979,0.0431104349\C,-1.651
 0996921,-0.0767670546,0.0173594591\C,-1.3099827505,1.2321852519,0.2750
 35326\N,-0.0722977188,1.7336373828,0.3997358594\C,1.1938159494,1.01154
 10484,0.3703285318\H,1.8415363117,1.5417523234,1.0845492813\C,1.889657
 98,1.0310272597,-0.989964233\C,3.2963732726,0.4415310633,-0.836147359\
 C,3.2688981351,-0.955147464,-0.2101222327\C,2.482841129,-0.9742951263,
 1.1023541454\C,1.0627978983,-0.4434984507,0.8721210845\H,0.4911618843,
 -0.431057736,1.8137123585\N,0.4253213236,-1.3581239609,-0.0727498125\C
 ,-0.8283764793,-1.1974174179,-0.3564505431\H,-2.1163602556,1.946864747
 5,0.3891730607\H,-0.0159260692,2.7226734967,0.6138223504\H,1.297303195
 ,0.445990607,-1.7019033321\H,1.9405148567,2.0594182003,-1.3688000064\H
 ,3.7939231378,0.4100210394,-1.8122298302\H,3.8923892885,1.1146775423,-
 0.2036148132\H,2.7945500651,-1.6575349802,-0.9026943777\H,4.2933210886
 ,-1.307020448,-0.0398693305\H,2.4148003782,-1.9963300879,1.489171542\H
 ,2.988474023,-0.3668675775,1.8656353573\H,-1.3031421892,-1.9636889382,
 -0.9689450555\\Version=ES64L-G16RevC.02\HF=-661.2960796\MP2=-663.33138
 97\RMSD=4.778e-09\RMSF=5.101e-03\Dipole=1.9788827,1.6291486,0.4898824\
 PG=C01 [X(C9H13N3O2)]\\@
 The archive entry for this job was punched.


 Where a calculator on the ENIAC is equipped with 18,000
 vacuum tubes and weighs 30 tons, computers inthe future
 may  have only 1,000 vacuum tubes and weigh only 1 1/2 tons.
              ---Popular Mechanics, March 1949
 Job cpu time:       0 days  1 hours 20 minutes 28.7 seconds.
 Elapsed time:       0 days  0 hours 24 minutes 10.6 seconds.
 File lengths (MBytes):  RWF=     36 Int=      0 D2E=      0 Chk=      7 Scr=      1
 Normal termination of Gaussian 16 at Sat Jul  1 15:34:10 2023.
