 Entering Gaussian System, Link 0=g16
 Initial command:
 /home/alexey/programs//g16/l1.exe "/home/alexey/tmp/Gau-1332666.inp" -scrdir="/home/alexey/tmp/"
 Entering Link 1 = /home/alexey/programs//g16/l1.exe PID=   1332668.
  
 Copyright (c) 1988-2021, Gaussian, Inc.  All Rights Reserved.
  
 This is part of the Gaussian(R) 16 program.  It is based on
 the Gaussian(R) 09 system (copyright 2009, Gaussian, Inc.),
 the Gaussian(R) 03 system (copyright 2003, Gaussian, Inc.),
 the Gaussian(R) 98 system (copyright 1998, Gaussian, Inc.),
 the Gaussian(R) 94 system (copyright 1995, Gaussian, Inc.),
 the Gaussian 92(TM) system (copyright 1992, Gaussian, Inc.),
 the Gaussian 90(TM) system (copyright 1990, Gaussian, Inc.),
 the Gaussian 88(TM) system (copyright 1988, Gaussian, Inc.),
 the Gaussian 86(TM) system (copyright 1986, Carnegie Mellon
 University), and the Gaussian 82(TM) system (copyright 1983,
 Carnegie Mellon University). Gaussian is a federally registered
 trademark of Gaussian, Inc.
  
 This software contains proprietary and confidential information,
 including trade secrets, belonging to Gaussian, Inc.
  
 This software is provided under written license and may be
 used, copied, transmitted, or stored only in accord with that
 written license.
  
 The following legend is applicable only to US Government
 contracts under FAR:
  
                    RESTRICTED RIGHTS LEGEND
  
 Use, reproduction and disclosure by the US Government is
 subject to restrictions as set forth in subparagraphs (a)
 and (c) of the Commercial Computer Software - Restricted
 Rights clause in FAR 52.227-19.
  
 Gaussian, Inc.
 340 Quinnipiac St., Bldg. 40, Wallingford CT 06492
  
  
 ---------------------------------------------------------------
 Warning -- This program may not be used in any manner that
 competes with the business of Gaussian, Inc. or will provide
 assistance to any competitor of Gaussian, Inc.  The licensee
 of this program is prohibited from giving any competitor of
 Gaussian, Inc. access to this program.  By using this program,
 the user acknowledges that Gaussian, Inc. is engaged in the
 business of creating and licensing software in the field of
 computational chemistry and represents and warrants to the
 licensee that it is not a competitor of Gaussian, Inc. and that
 it will not use this program in any manner prohibited above.
 ---------------------------------------------------------------
  

 Cite this work as:
 Gaussian 16, Revision C.02,
 M. J. Frisch, G. W. Trucks, H. B. Schlegel, G. E. Scuseria, 
 M. A. Robb, J. R. Cheeseman, G. Scalmani, V. Barone, 
 G. A. Petersson, H. Nakatsuji, X. Li, M. Caricato, A. V. Marenich, 
 J. Bloino, B. G. Janesko, R. Gomperts, B. Mennucci, H. P. Hratchian, 
 J. V. Ortiz, A. F. Izmaylov, J. L. Sonnenberg, D. Williams-Young, 
 F. Ding, F. Lipparini, F. Egidi, J. Goings, B. Peng, A. Petrone, 
 T. Henderson, D. Ranasinghe, V. G. Zakrzewski, J. Gao, N. Rega, 
 G. Zheng, W. Liang, M. Hada, M. Ehara, K. Toyota, R. Fukuda, 
 J. Hasegawa, M. Ishida, T. Nakajima, Y. Honda, O. Kitao, H. Nakai, 
 T. Vreven, K. Throssell, J. A. Montgomery, Jr., J. E. Peralta, 
 F. Ogliaro, M. J. Bearpark, J. J. Heyd, E. N. Brothers, K. N. Kudin, 
 V. N. Staroverov, T. A. Keith, R. Kobayashi, J. Normand, 
 K. Raghavachari, A. P. Rendell, J. C. Burant, S. S. Iyengar, 
 J. Tomasi, M. Cossi, J. M. Millam, M. Klene, C. Adamo, R. Cammi, 
 J. W. Ochterski, R. L. Martin, K. Morokuma, O. Farkas, 
 J. B. Foresman, and D. J. Fox, Gaussian, Inc., Wallingford CT, 2019.
 
 ******************************************
 Gaussian 16:  ES64L-G16RevC.02  7-Dec-2021
                 1-Jul-2023 
 ******************************************
 %mem=8GB
 %NPROCS=4
 Will use up to    4 processors via shared memory.
 %NoSave
 ---------------------------------------------------------
 #MP2/6-31G* SCF=Tight Opt=(ModRedun, MaxCycle=20 ) NoSymm
 ---------------------------------------------------------
 1/6=20,18=120,19=15,38=1/1,3;
 2/9=110,12=2,15=1,17=6,18=5,40=1/2;
 3/5=1,6=6,7=1,11=9,25=1,30=1,71=1/1,2,3;
 4//1;
 5/5=2,32=2,38=5/2;
 8/6=4,10=2/1;
 9/15=2,16=-3/6;
 10/5=1,31=1/2;
 6/7=2,8=2,9=2,10=2/1;
 7/12=2,30=1/1,2,3,16;
 1/6=20,18=20,19=15/3(2);
 2/9=110,15=1/2;
 99//99;
 2/9=110,15=1/2;
 3/5=1,6=6,7=1,11=9,25=1,30=1,71=1/1,2,3;
 4/5=5,16=3,69=1/1;
 5/5=2,32=2,38=5/2;
 8/6=4,10=2/1;
 9/15=2,16=-3/6;
 10/5=1,31=1/2;
 7/12=2,30=1/1,2,3,16;
 1/6=20,18=20,19=15/3(-8);
 2/9=110,15=1/2;
 6/7=2,8=2,9=2,10=2/1;
 99/9=10/99;
 --------
 MolName:
 --------
 Symbolic Z-matrix:
 Charge =  0 Multiplicity = 1
 8                    0    -3.62632  -1.42838  -0.18699 
 7                    0    -3.2575   -0.26611  -0.02829 
 8                    0    -4.03253   0.68085   0.11466 
 6                    0    -1.75107  -0.00034  -0.04357 
 6                    0    -1.3716    1.30983   0.27166 
 7                    0    -0.08424   1.76429   0.39446 
 6                    0     1.19596   0.99287   0.36333 
 1                    0     1.85955   1.4905    1.11741 
 6                    0     1.95922   1.04768  -0.9836 
 6                    0     3.37249   0.46351  -0.79644 
 6                    0     3.31375  -0.95357  -0.20446 
 6                    0     2.46668  -0.99097   1.08581 
 6                    0     1.02845  -0.45787   0.84083 
 1                    0     0.48051  -0.49908   1.81136 
 7                    0     0.37323  -1.32859  -0.1386 
 6                    0    -0.86896  -1.12968  -0.43493 
 1                    0    -2.16006   2.04976   0.4877 
 1                    0     0.14742   2.74763   0.23429 
 1                    0     1.4101    0.47127  -1.75826 
 1                    0     2.04331   2.0984   -1.33371 
 1                    0     3.90638   0.44221  -1.77168 
 1                    0     3.94899   1.11723  -0.10438 
 1                    0     2.86722  -1.64245  -0.95667 
 1                    0     4.3426   -1.31583   0.01109 
 1                    0     2.41077  -2.03795   1.45652 
 1                    0     2.96014  -0.38001   1.87049 
 1                    0    -1.37349  -1.88219  -1.06005 
 
 The following ModRedundant input section has been read:
 A       2       4       5 F                                                   
 D       1       2       4      16 F                                           
 D       7      13      15      16 F                                           
 D       7       9      10      11 F                                           
 D       9      10      11      12 F                                           
 D       6       7      13      15 F                                           
 

 GradGradGradGradGradGradGradGradGradGradGradGradGradGradGradGradGradGrad
 Berny optimization.
 Initialization pass.
                           ----------------------------
                           !    Initial Parameters    !
                           ! (Angstroms and Degrees)  !
 --------------------------                            --------------------------
 ! Name  Definition              Value          Derivative Info.                !
 --------------------------------------------------------------------------------
 ! R1    R(1,2)                  1.2297         estimate D2E/DX2                !
 ! R2    R(2,3)                  1.232          estimate D2E/DX2                !
 ! R3    R(2,4)                  1.5298         estimate D2E/DX2                !
 ! R4    R(4,5)                  1.4            estimate D2E/DX2                !
 ! R5    R(4,16)                 1.4855         estimate D2E/DX2                !
 ! R6    R(5,6)                  1.3707         estimate D2E/DX2                !
 ! R7    R(5,17)                 1.1027         estimate D2E/DX2                !
 ! R8    R(6,7)                  1.495          estimate D2E/DX2                !
 ! R9    R(6,18)                 1.0229         estimate D2E/DX2                !
 ! R10   R(7,8)                  1.121          estimate D2E/DX2                !
 ! R11   R(7,9)                  1.5491         estimate D2E/DX2                !
 ! R12   R(7,13)                 1.5365         estimate D2E/DX2                !
 ! R13   R(9,10)                 1.5407         estimate D2E/DX2                !
 ! R14   R(9,19)                 1.1108         estimate D2E/DX2                !
 ! R15   R(9,20)                 1.1107         estimate D2E/DX2                !
 ! R16   R(10,11)                1.5369         estimate D2E/DX2                !
 ! R17   R(10,21)                1.112          estimate D2E/DX2                !
 ! R18   R(10,22)                1.1129         estimate D2E/DX2                !
 ! R19   R(11,12)                1.5439         estimate D2E/DX2                !
 ! R20   R(11,23)                1.1134         estimate D2E/DX2                !
 ! R21   R(11,24)                1.1119         estimate D2E/DX2                !
 ! R22   R(12,13)                1.5533         estimate D2E/DX2                !
 ! R23   R(12,25)                1.1121         estimate D2E/DX2                !
 ! R24   R(12,26)                1.1102         estimate D2E/DX2                !
 ! R25   R(13,14)                1.1153         estimate D2E/DX2                !
 ! R26   R(13,15)                1.4652         estimate D2E/DX2                !
 ! R27   R(15,16)                1.2924         estimate D2E/DX2                !
 ! R28   R(16,27)                1.1007         estimate D2E/DX2                !
 ! A1    A(1,2,3)              123.559          estimate D2E/DX2                !
 ! A2    A(1,2,4)              117.2761         estimate D2E/DX2                !
 ! A3    A(3,2,4)              119.1504         estimate D2E/DX2                !
 ! A4    A(2,4,5)              115.2938         Frozen                          !
 ! A5    A(2,4,16)             117.0848         estimate D2E/DX2                !
 ! A6    A(5,4,16)             127.5783         estimate D2E/DX2                !
 ! A7    A(4,5,6)              125.8044         estimate D2E/DX2                !
 ! A8    A(4,5,17)             118.5744         estimate D2E/DX2                !
 ! A9    A(6,5,17)             115.5648         estimate D2E/DX2                !
 ! A10   A(5,6,7)              129.1462         estimate D2E/DX2                !
 ! A11   A(5,6,18)             121.1584         estimate D2E/DX2                !
 ! A12   A(7,6,18)             107.3891         estimate D2E/DX2                !
 ! A13   A(6,7,8)              105.2985         estimate D2E/DX2                !
 ! A14   A(6,7,9)              114.9461         estimate D2E/DX2                !
 ! A15   A(6,7,13)             112.792          estimate D2E/DX2                !
 ! A16   A(8,7,9)              106.1121         estimate D2E/DX2                !
 ! A17   A(8,7,13)             105.9401         estimate D2E/DX2                !
 ! A18   A(9,7,13)             110.9369         estimate D2E/DX2                !
 ! A19   A(7,9,10)             109.4464         estimate D2E/DX2                !
 ! A20   A(7,9,19)             110.1475         estimate D2E/DX2                !
 ! A21   A(7,9,20)             110.1723         estimate D2E/DX2                !
 ! A22   A(10,9,19)            109.9643         estimate D2E/DX2                !
 ! A23   A(10,9,20)            109.1193         estimate D2E/DX2                !
 ! A24   A(19,9,20)            107.9682         estimate D2E/DX2                !
 ! A25   A(9,10,11)            111.1828         estimate D2E/DX2                !
 ! A26   A(9,10,21)            109.9461         estimate D2E/DX2                !
 ! A27   A(9,10,22)            109.1468         estimate D2E/DX2                !
 ! A28   A(11,10,21)           109.7851         estimate D2E/DX2                !
 ! A29   A(11,10,22)           108.7762         estimate D2E/DX2                !
 ! A30   A(21,10,22)           107.9327         estimate D2E/DX2                !
 ! A31   A(10,11,12)           111.4201         estimate D2E/DX2                !
 ! A32   A(10,11,23)           109.0003         estimate D2E/DX2                !
 ! A33   A(10,11,24)           109.8601         estimate D2E/DX2                !
 ! A34   A(12,11,23)           109.2423         estimate D2E/DX2                !
 ! A35   A(12,11,24)           109.7416         estimate D2E/DX2                !
 ! A36   A(23,11,24)           107.4867         estimate D2E/DX2                !
 ! A37   A(11,12,13)           111.5852         estimate D2E/DX2                !
 ! A38   A(11,12,25)           109.2063         estimate D2E/DX2                !
 ! A39   A(11,12,26)           109.4803         estimate D2E/DX2                !
 ! A40   A(13,12,25)           109.2166         estimate D2E/DX2                !
 ! A41   A(13,12,26)           109.5215         estimate D2E/DX2                !
 ! A42   A(25,12,26)           107.7488         estimate D2E/DX2                !
 ! A43   A(7,13,12)            105.7908         estimate D2E/DX2                !
 ! A44   A(7,13,14)            111.0323         estimate D2E/DX2                !
 ! A45   A(7,13,15)            113.7113         estimate D2E/DX2                !
 ! A46   A(12,13,14)           107.7569         estimate D2E/DX2                !
 ! A47   A(12,13,15)           108.3933         estimate D2E/DX2                !
 ! A48   A(14,13,15)           109.8795         estimate D2E/DX2                !
 ! A49   A(13,15,16)           119.4466         estimate D2E/DX2                !
 ! A50   A(4,16,15)            128.8531         estimate D2E/DX2                !
 ! A51   A(4,16,27)            113.402          estimate D2E/DX2                !
 ! A52   A(15,16,27)           117.7448         estimate D2E/DX2                !
 ! D1    D(1,2,4,5)           -173.9467         estimate D2E/DX2                !
 ! D2    D(1,2,4,16)             8.2587         Frozen                          !
 ! D3    D(3,2,4,5)              7.388          estimate D2E/DX2                !
 ! D4    D(3,2,4,16)          -170.4066         estimate D2E/DX2                !
 ! D5    D(2,4,5,6)            176.1332         estimate D2E/DX2                !
 ! D6    D(2,4,5,17)            -1.0053         estimate D2E/DX2                !
 ! D7    D(16,4,5,6)            -6.3445         estimate D2E/DX2                !
 ! D8    D(16,4,5,17)          176.517          estimate D2E/DX2                !
 ! D9    D(2,4,16,15)         -155.6745         estimate D2E/DX2                !
 ! D10   D(2,4,16,27)           24.1972         estimate D2E/DX2                !
 ! D11   D(5,4,16,15)           26.8416         estimate D2E/DX2                !
 ! D12   D(5,4,16,27)         -153.2867         estimate D2E/DX2                !
 ! D13   D(4,5,6,7)             -6.6001         estimate D2E/DX2                !
 ! D14   D(4,5,6,18)           153.8755         estimate D2E/DX2                !
 ! D15   D(17,5,6,7)           170.6143         estimate D2E/DX2                !
 ! D16   D(17,5,6,18)          -28.9101         estimate D2E/DX2                !
 ! D17   D(5,6,7,8)           -142.9254         estimate D2E/DX2                !
 ! D18   D(5,6,7,9)            100.6795         estimate D2E/DX2                !
 ! D19   D(5,6,7,13)           -27.8521         estimate D2E/DX2                !
 ! D20   D(18,6,7,8)            54.5137         estimate D2E/DX2                !
 ! D21   D(18,6,7,9)           -61.8814         estimate D2E/DX2                !
 ! D22   D(18,6,7,13)          169.587          estimate D2E/DX2                !
 ! D23   D(6,7,9,10)           168.6421         estimate D2E/DX2                !
 ! D24   D(6,7,9,19)           -70.3451         estimate D2E/DX2                !
 ! D25   D(6,7,9,20)            48.658          estimate D2E/DX2                !
 ! D26   D(8,7,9,10)            52.7128         estimate D2E/DX2                !
 ! D27   D(8,7,9,19)           173.7255         estimate D2E/DX2                !
 ! D28   D(8,7,9,20)           -67.2714         estimate D2E/DX2                !
 ! D29   D(13,7,9,10)          -61.9066         estimate D2E/DX2                !
 ! D30   D(13,7,9,19)           59.1061         estimate D2E/DX2                !
 ! D31   D(13,7,9,20)          178.1092         estimate D2E/DX2                !
 ! D32   D(6,7,13,12)         -166.139          estimate D2E/DX2                !
 ! D33   D(6,7,13,14)          -49.5043         estimate D2E/DX2                !
 ! D34   D(6,7,13,15)           75.0219         Frozen                          !
 ! D35   D(8,7,13,12)          -51.4525         estimate D2E/DX2                !
 ! D36   D(8,7,13,14)           65.1822         estimate D2E/DX2                !
 ! D37   D(8,7,13,15)         -170.2917         estimate D2E/DX2                !
 ! D38   D(9,7,13,12)           63.2745         estimate D2E/DX2                !
 ! D39   D(9,7,13,14)          179.9092         estimate D2E/DX2                !
 ! D40   D(9,7,13,15)          -55.5647         estimate D2E/DX2                !
 ! D41   D(7,9,10,11)           54.8127         Frozen                          !
 ! D42   D(7,9,10,21)          176.6039         estimate D2E/DX2                !
 ! D43   D(7,9,10,22)          -65.1846         estimate D2E/DX2                !
 ! D44   D(19,9,10,11)         -66.311          estimate D2E/DX2                !
 ! D45   D(19,9,10,21)          55.4802         estimate D2E/DX2                !
 ! D46   D(19,9,10,22)         173.6917         estimate D2E/DX2                !
 ! D47   D(20,9,10,11)         175.44           estimate D2E/DX2                !
 ! D48   D(20,9,10,21)         -62.7688         estimate D2E/DX2                !
 ! D49   D(20,9,10,22)          55.4427         estimate D2E/DX2                !
 ! D50   D(9,10,11,12)         -52.8223         Frozen                          !
 ! D51   D(9,10,11,23)          67.8081         estimate D2E/DX2                !
 ! D52   D(9,10,11,24)        -174.6581         estimate D2E/DX2                !
 ! D53   D(21,10,11,12)       -174.7072         estimate D2E/DX2                !
 ! D54   D(21,10,11,23)        -54.0767         estimate D2E/DX2                !
 ! D55   D(21,10,11,24)         63.457          estimate D2E/DX2                !
 ! D56   D(22,10,11,12)         67.3946         estimate D2E/DX2                !
 ! D57   D(22,10,11,23)       -171.9749         estimate D2E/DX2                !
 ! D58   D(22,10,11,24)        -54.4412         estimate D2E/DX2                !
 ! D59   D(10,11,12,13)         56.628          estimate D2E/DX2                !
 ! D60   D(10,11,12,25)        177.4683         estimate D2E/DX2                !
 ! D61   D(10,11,12,26)        -64.7801         estimate D2E/DX2                !
 ! D62   D(23,11,12,13)        -63.8604         estimate D2E/DX2                !
 ! D63   D(23,11,12,25)         56.9799         estimate D2E/DX2                !
 ! D64   D(23,11,12,26)        174.7316         estimate D2E/DX2                !
 ! D65   D(24,11,12,13)        178.5324         estimate D2E/DX2                !
 ! D66   D(24,11,12,25)        -60.6273         estimate D2E/DX2                !
 ! D67   D(24,11,12,26)         57.1244         estimate D2E/DX2                !
 ! D68   D(11,12,13,7)         -60.3595         estimate D2E/DX2                !
 ! D69   D(11,12,13,14)       -179.188          estimate D2E/DX2                !
 ! D70   D(11,12,13,15)         61.9461         estimate D2E/DX2                !
 ! D71   D(25,12,13,7)         178.8062         estimate D2E/DX2                !
 ! D72   D(25,12,13,14)         59.9777         estimate D2E/DX2                !
 ! D73   D(25,12,13,15)        -58.8882         estimate D2E/DX2                !
 ! D74   D(26,12,13,7)          61.0246         estimate D2E/DX2                !
 ! D75   D(26,12,13,14)        -57.8038         estimate D2E/DX2                !
 ! D76   D(26,12,13,15)       -176.6697         estimate D2E/DX2                !
 ! D77   D(7,13,15,16)         -67.1602         Frozen                          !
 ! D78   D(12,13,15,16)        175.5001         estimate D2E/DX2                !
 ! D79   D(14,13,15,16)         57.9838         estimate D2E/DX2                !
 ! D80   D(13,15,16,4)           8.4696         estimate D2E/DX2                !
 ! D81   D(13,15,16,27)       -171.3973         estimate D2E/DX2                !
 --------------------------------------------------------------------------------
 Trust Radius=3.00D-01 FncErr=1.00D-07 GrdErr=1.00D-07 EigMax=2.50D+02 EigMin=1.00D-04
 Number of steps in this run=     20 maximum allowed number of steps=    162.
 GradGradGradGradGradGradGradGradGradGradGradGradGradGradGradGradGradGrad

                          Input orientation:                          
 ---------------------------------------------------------------------
 Center     Atomic      Atomic             Coordinates (Angstroms)
 Number     Number       Type             X           Y           Z
 ---------------------------------------------------------------------
      1          8           0       -3.626320   -1.428380   -0.186990
      2          7           0       -3.257500   -0.266110   -0.028290
      3          8           0       -4.032530    0.680850    0.114660
      4          6           0       -1.751070   -0.000340   -0.043570
      5          6           0       -1.371600    1.309830    0.271660
      6          7           0       -0.084240    1.764290    0.394460
      7          6           0        1.195960    0.992870    0.363330
      8          1           0        1.859550    1.490500    1.117410
      9          6           0        1.959220    1.047680   -0.983600
     10          6           0        3.372490    0.463510   -0.796440
     11          6           0        3.313750   -0.953570   -0.204460
     12          6           0        2.466680   -0.990970    1.085810
     13          6           0        1.028450   -0.457870    0.840830
     14          1           0        0.480510   -0.499080    1.811360
     15          7           0        0.373230   -1.328590   -0.138600
     16          6           0       -0.868960   -1.129680   -0.434930
     17          1           0       -2.160060    2.049760    0.487700
     18          1           0        0.147420    2.747630    0.234290
     19          1           0        1.410100    0.471270   -1.758260
     20          1           0        2.043310    2.098400   -1.333710
     21          1           0        3.906380    0.442210   -1.771680
     22          1           0        3.948990    1.117230   -0.104380
     23          1           0        2.867220   -1.642450   -0.956670
     24          1           0        4.342600   -1.315830    0.011090
     25          1           0        2.410770   -2.037950    1.456520
     26          1           0        2.960140   -0.380010    1.870490
     27          1           0       -1.373490   -1.882190   -1.060050
 ---------------------------------------------------------------------
                    Distance matrix (angstroms):
                    1          2          3          4          5
     1  O    0.000000
     2  N    1.229669   0.000000
     3  O    2.169067   1.232006   0.000000
     4  C    2.361447   1.529771   2.386235   0.000000
     5  C    3.576579   2.475919   2.738761   1.399969   0.000000
     6  N    4.803911   3.790887   4.103794   2.466599   1.370733
     7  C    5.423992   4.644535   5.243692   3.136402   2.588674
     8  H    6.349495   5.530145   6.031389   4.075175   3.344886
     9  C    6.161470   5.463774   6.102607   3.968407   3.569140
    10  C    7.275577   6.714102   7.464024   5.199311   4.935938
    11  C    6.956315   6.609460   7.532662   5.156252   5.225148
    12  C    6.239872   5.876468   6.780697   4.477305   4.548507
    13  C    4.864688   4.377386   5.238084   2.952495   3.034626
    14  H    4.660800   4.172686   4.963724   2.944394   3.012166
    15  N    4.001087   3.784605   4.848991   2.507176   3.189672
    16  C    2.784552   2.572204   3.686223   1.485493   2.589039
    17  H    3.834395   2.614168   2.349301   2.156949   1.102651
    18  H    5.644258   4.554674   4.664534   3.351538   2.091910
    19  H    5.607413   5.032198   5.759685   3.627061   3.544237
    20  H    6.774795   5.949253   6.404924   4.523991   3.854953
    21  H    7.921611   7.406909   8.163426   5.932028   5.725825
    22  H    7.992013   7.338455   7.996441   5.808902   5.337338
    23  H    6.542499   6.345738   7.358806   4.985868   5.309647
    24  H    7.972176   7.672352   8.610474   6.234286   6.293971
    25  H    6.286426   6.121549   7.120995   4.870630   5.188241
    26  H    6.979524   6.502106   7.287372   5.099341   4.916888
    27  H    2.458337   2.688073   3.875514   2.171902   3.458677
                    6          7          8          9         10
     6  N    0.000000
     7  C    1.494982   0.000000
     8  H    2.091874   1.120992   0.000000
     9  C    2.566770   1.549126   2.149481   0.000000
    10  C    3.880625   2.522414   2.646983   1.540654   0.000000
    11  C    4.392244   2.931902   3.136163   2.539057   1.536882
    12  C    3.817933   2.464209   2.554858   2.948909   2.545362
    13  C    2.524940   1.536461   2.136204   2.541960   3.004017
    14  H    2.729357   2.198767   2.518282   3.520064   4.011328
    15  N    3.171646   2.513562   3.425489   2.979270   3.555269
    16  C    3.111067   3.066974   4.088994   3.611168   4.545200
    17  H    2.097431   3.520704   4.106893   4.487467   5.896975
    18  H    1.022877   2.048236   2.300362   2.766895   4.084199
    19  H    2.922183   2.195237   3.083880   1.110801   2.185436
    20  H    2.761281   2.195482   2.532054   1.110703   2.174453
    21  H    4.729176   3.493976   3.692596   2.186114   1.112019
    22  H    4.115152   2.795245   2.449053   2.176476   1.112946
    23  H    4.705587   3.388277   3.890062   2.839364   2.171644
    24  H    5.406572   3.918611   3.907041   3.500870   2.181575
    25  H    4.670126   3.443356   3.587311   3.959696   3.501148
    26  H    4.005613   2.696046   2.297223   3.344543   2.827379
    27  H    4.132140   4.110238   5.154505   4.438123   5.300578
                   11         12         13         14         15
    11  C    0.000000
    12  C    1.543931   0.000000
    13  C    2.561434   1.553292   0.000000
    14  H    3.506756   2.171002   1.115287   0.000000
    15  N    2.965069   2.448612   1.465179   2.121778   0.000000
    16  C    4.192755   3.668567   2.383077   2.695282   1.292444
    17  H    6.281853   5.568707   4.071794   3.901445   4.268847
    18  H    4.890504   4.481203   3.379251   3.624807   4.099464
    19  H    2.840484   3.367973   2.786436   3.814171   2.633988
    20  H    3.493386   3.946837   3.506149   4.368147   3.995212
    21  H    2.180732   3.505993   3.989716   5.045868   4.276194
    22  H    2.168354   2.838715   3.450205   4.279354   4.332351
    23  H    1.113447   2.180959   2.831132   3.829578   2.643432
    24  H    1.111857   2.186237   3.522521   4.338639   3.972212
    25  H    2.179474   1.112079   2.187815   2.493980   2.683127
    26  H    2.181611   1.110179   2.190363   2.483191   3.410037
    27  H    4.854337   4.488418   3.378069   3.687181   2.050993
                   16         17         18         19         20
    16  C    0.000000
    17  H    3.553452   0.000000
    18  H    4.063793   2.423985   0.000000
    19  H    3.083562   4.503555   3.278175   0.000000
    20  H    4.439552   4.581290   2.544508   1.796872   0.000000
    21  H    5.202078   6.670136   4.844446   2.496485   2.530971
    22  H    5.326397   6.208113   4.150281   3.098152   2.470944
    23  H    3.807123   6.402512   5.299859   2.689527   3.849019
    24  H    5.233922   7.337502   5.844746   3.863144   4.330380
    25  H    3.893477   6.208097   5.433082   4.199088   5.002979
    26  H    4.531994   5.833724   4.513389   4.036722   4.153311
    27  H    1.100726   4.298192   5.042194   3.711421   5.253048
                   21         22         23         24         25
    21  H    0.000000
    22  H    1.799266   0.000000
    23  H    2.467773   3.084227   0.000000
    24  H    2.541508   2.467396   1.794432   0.000000
    25  H    4.336971   3.841574   2.487620   2.518470   0.000000
    26  H    3.851859   2.668270   3.097616   2.498864   1.794977
    27  H    5.812597   6.183738   4.248739   5.843098   4.547308
                   26         27
    26  H    0.000000
    27  H    5.442881   0.000000
 Symmetry turned off by external request.
 Stoichiometry    C9H13N3O2
 Framework group  C1[X(C9H13N3O2)]
 Deg. of freedom    75
 Full point group                 C1      NOp   1
 Rotational constants (GHZ):           1.6766325           0.4000989           0.3551476
 Standard basis: 6-31G(d) (6D, 7F)
   236 basis functions,   444 primitive gaussians,   236 cartesian basis functions
    52 alpha electrons       52 beta electrons
       nuclear repulsion energy       917.4286242153 Hartrees.
 NAtoms=   27 NActive=   27 NUniq=   27 SFac= 1.00D+00 NAtFMM=   60 NAOKFM=F Big=F
 Integral buffers will be    131072 words long.
 Raffenetti 1 integral format.
 Two-electron integral symmetry is turned off.
 One-electron integrals computed using PRISM.
 NBasis=   236 RedAO= T EigKep=  1.28D-03  NBF=   236
 NBsUse=   236 1.00D-06 EigRej= -1.00D+00 NBFU=   236
 ExpMin= 1.61D-01 ExpMax= 5.48D+03 ExpMxC= 8.25D+02 IAcc=3 IRadAn=         5 AccDes= 0.00D+00
 Harris functional with IExCor=  205 and IRadAn=       5 diagonalized for initial guess.
 HarFok:  IExCor=  205 AccDes= 0.00D+00 IRadAn=         5 IDoV= 1 UseB2=F ITyADJ=14
 ICtDFT=  3500011 ScaDFX=  1.000000  1.000000  1.000000  1.000000
 FoFCou: FMM=F IPFlag=           0 FMFlag=      100000 FMFlg1=           0
         NFxFlg=           0 DoJE=T BraDBF=F KetDBF=T FulRan=T
         wScrn=  0.000000 ICntrl=       500 IOpCl=  0 I1Cent=   200000004 NGrid=           0
         NMat0=    1 NMatS0=      1 NMatT0=    0 NMatD0=    1 NMtDS0=    0 NMtDT0=    0
 Symmetry not used in FoFCou.
 Keep R1 ints in memory in canonical form, NReq=397720213.
 Requested convergence on RMS density matrix=1.00D-08 within 128 cycles.
 Requested convergence on MAX density matrix=1.00D-06.
 Requested convergence on             energy=1.00D-06.
 No special actions if energy rises.
 SCF Done:  E(RHF) =  -661.281097645     A.U. after   16 cycles
            NFock= 16  Conv=0.79D-08     -V/T= 2.0037
 ExpMin= 1.61D-01 ExpMax= 5.48D+03 ExpMxC= 8.25D+02 IAcc=3 IRadAn=         5 AccDes= 0.00D+00
 HarFok:  IExCor=  205 AccDes= 0.00D+00 IRadAn=         5 IDoV=-2 UseB2=F ITyADJ=14
 ICtDFT= 12500011 ScaDFX=  1.000000  1.000000  1.000000  1.000000
 Range of M.O.s used for correlation:    15   236
 NBasis=   236 NAE=    52 NBE=    52 NFC=    14 NFV=     0
 NROrb=    222 NOA=    38 NOB=    38 NVA=   184 NVB=   184
 Fully direct method using O(ONN) memory.
 JobTyp=1 Pass  1:  I=  15 to  52 NPSUse=  4 ParTrn=T ParDer=T DoDerP=T.
 Spin components of T(2) and E(2):
     alpha-alpha T2 =       0.9198853862D-01 E2=     -0.2717757148D+00
     alpha-beta  T2 =       0.4996819207D+00 E2=     -0.1493743244D+01
     beta-beta   T2 =       0.9198853862D-01 E2=     -0.2717757148D+00
 ANorm=    0.1297558861D+01
 E2 =    -0.2037294673D+01 EUMP2 =    -0.66331839231814D+03
          IDoAtm=111111111111111111111111111
          Differentiating once with respect to electric field.
                with respect to dipole field.
          Differentiating once with respect to nuclear coordinates.
 Keep R1 ints in memory in canonical form, NReq=397723379.
          There are     1 degrees of freedom in the 1st order CPHF.  IDoFFX=0 NUNeed=     1.
 LinEq1:  Iter=  0 NonCon=     1 RMS=4.61D-03 Max=1.11D-01 NDo=     1
 AX will form     1 AO Fock derivatives at one time.
 LinEq1:  Iter=  1 NonCon=     1 RMS=1.57D-03 Max=2.91D-02 NDo=     1
 LinEq1:  Iter=  2 NonCon=     1 RMS=6.41D-04 Max=1.79D-02 NDo=     1
 LinEq1:  Iter=  3 NonCon=     1 RMS=2.93D-04 Max=9.02D-03 NDo=     1
 LinEq1:  Iter=  4 NonCon=     1 RMS=9.02D-05 Max=2.12D-03 NDo=     1
 LinEq1:  Iter=  5 NonCon=     1 RMS=3.74D-05 Max=1.86D-03 NDo=     1
 LinEq1:  Iter=  6 NonCon=     1 RMS=1.54D-05 Max=5.89D-04 NDo=     1
 LinEq1:  Iter=  7 NonCon=     1 RMS=5.96D-06 Max=1.04D-04 NDo=     1
 LinEq1:  Iter=  8 NonCon=     1 RMS=2.39D-06 Max=6.14D-05 NDo=     1
 LinEq1:  Iter=  9 NonCon=     1 RMS=9.03D-07 Max=2.62D-05 NDo=     1
 LinEq1:  Iter= 10 NonCon=     1 RMS=4.40D-07 Max=1.47D-05 NDo=     1
 LinEq1:  Iter= 11 NonCon=     1 RMS=1.55D-07 Max=5.77D-06 NDo=     1
 LinEq1:  Iter= 12 NonCon=     1 RMS=5.45D-08 Max=7.60D-07 NDo=     1
 LinEq1:  Iter= 13 NonCon=     1 RMS=1.73D-08 Max=3.55D-07 NDo=     1
 LinEq1:  Iter= 14 NonCon=     1 RMS=5.53D-09 Max=1.45D-07 NDo=     1
 LinEq1:  Iter= 15 NonCon=     1 RMS=2.04D-09 Max=4.78D-08 NDo=     1
 LinEq1:  Iter= 16 NonCon=     1 RMS=7.48D-10 Max=1.16D-08 NDo=     1
 LinEq1:  Iter= 17 NonCon=     1 RMS=2.49D-10 Max=3.43D-09 NDo=     1
 LinEq1:  Iter= 18 NonCon=     1 RMS=8.61D-11 Max=1.03D-09 NDo=     1
 LinEq1:  Iter= 19 NonCon=     0 RMS=2.92D-11 Max=3.43D-10 NDo=     1
 Linear equations converged to 1.000D-10 1.000D-09 after    19 iterations.
 End of Minotr F.D. properties file   721 does not exist.
 End of Minotr F.D. properties file   722 does not exist.
 End of Minotr F.D. properties file   788 does not exist.

 **********************************************************************

            Population analysis using the SCF Density.

 **********************************************************************

 Alpha  occ. eigenvalues --  -20.59774 -20.59368 -15.85224 -15.63336 -15.56857
 Alpha  occ. eigenvalues --  -11.35837 -11.30543 -11.30094 -11.30080 -11.27721
 Alpha  occ. eigenvalues --  -11.24637 -11.23888 -11.23415 -11.22864  -1.58437
 Alpha  occ. eigenvalues --   -1.37927  -1.28584  -1.22754  -1.13282  -1.08369
 Alpha  occ. eigenvalues --   -1.01823  -1.00669  -0.93510  -0.88984  -0.84937
 Alpha  occ. eigenvalues --   -0.81562  -0.78000  -0.76995  -0.74315  -0.71065
 Alpha  occ. eigenvalues --   -0.70280  -0.69740  -0.67400  -0.64364  -0.63286
 Alpha  occ. eigenvalues --   -0.61678  -0.60415  -0.57427  -0.56487  -0.54898
 Alpha  occ. eigenvalues --   -0.53641  -0.50729  -0.49404  -0.48434  -0.47756
 Alpha  occ. eigenvalues --   -0.47676  -0.46171  -0.45701  -0.43985  -0.42126
 Alpha  occ. eigenvalues --   -0.39978  -0.33748
 Alpha virt. eigenvalues --    0.07436   0.11702   0.18150   0.21395   0.23427
 Alpha virt. eigenvalues --    0.24252   0.26279   0.27810   0.28560   0.28870
 Alpha virt. eigenvalues --    0.29896   0.31050   0.31854   0.32271   0.33318
 Alpha virt. eigenvalues --    0.33784   0.34268   0.35438   0.37559   0.38528
 Alpha virt. eigenvalues --    0.40587   0.41712   0.44437   0.45264   0.45646
 Alpha virt. eigenvalues --    0.46121   0.49744   0.53245   0.57646   0.58991
 Alpha virt. eigenvalues --    0.63319   0.69019   0.69210   0.72206   0.73995
 Alpha virt. eigenvalues --    0.74832   0.75685   0.75847   0.77762   0.79229
 Alpha virt. eigenvalues --    0.80602   0.83589   0.84979   0.85367   0.87978
 Alpha virt. eigenvalues --    0.89084   0.90211   0.90708   0.91855   0.93945
 Alpha virt. eigenvalues --    0.95128   0.97188   0.98873   1.00392   1.01957
 Alpha virt. eigenvalues --    1.02773   1.05088   1.06524   1.07065   1.08664
 Alpha virt. eigenvalues --    1.09578   1.10461   1.11350   1.11963   1.13249
 Alpha virt. eigenvalues --    1.13846   1.14181   1.15416   1.16323   1.17211
 Alpha virt. eigenvalues --    1.17993   1.19990   1.21269   1.22353   1.23016
 Alpha virt. eigenvalues --    1.23689   1.24347   1.25554   1.27098   1.27536
 Alpha virt. eigenvalues --    1.29310   1.31300   1.33070   1.36166   1.39642
 Alpha virt. eigenvalues --    1.42867   1.46183   1.47206   1.49462   1.52715
 Alpha virt. eigenvalues --    1.54659   1.55415   1.60344   1.61508   1.66022
 Alpha virt. eigenvalues --    1.68546   1.70469   1.72716   1.73529   1.76899
 Alpha virt. eigenvalues --    1.77713   1.79988   1.84360   1.89109   1.92580
 Alpha virt. eigenvalues --    1.93556   1.95954   1.97430   1.99069   2.00688
 Alpha virt. eigenvalues --    2.02989   2.04013   2.05967   2.08902   2.11946
 Alpha virt. eigenvalues --    2.12824   2.13754   2.17698   2.18870   2.19531
 Alpha virt. eigenvalues --    2.20665   2.22101   2.24040   2.25116   2.26286
 Alpha virt. eigenvalues --    2.29274   2.32186   2.33289   2.35532   2.36049
 Alpha virt. eigenvalues --    2.38653   2.39914   2.41591   2.43464   2.46333
 Alpha virt. eigenvalues --    2.48612   2.50365   2.50779   2.56733   2.57003
 Alpha virt. eigenvalues --    2.60713   2.62871   2.65877   2.68529   2.68889
 Alpha virt. eigenvalues --    2.69638   2.70028   2.74806   2.77217   2.80923
 Alpha virt. eigenvalues --    2.84584   2.86631   2.90027   2.91343   2.95274
 Alpha virt. eigenvalues --    2.97593   2.98290   3.02367   3.03679   3.05639
 Alpha virt. eigenvalues --    3.07064   3.12720   3.19005   3.22711   3.27156
 Alpha virt. eigenvalues --    3.30609   3.33847   3.37147   3.43249   3.60024
 Alpha virt. eigenvalues --    4.09919   4.23129   4.32145   4.36361   4.43048
 Alpha virt. eigenvalues --    4.52535   4.59602   4.60137   4.70838   4.77553
 Alpha virt. eigenvalues --    4.96480   4.99217   5.02880   5.09881
          Condensed to atoms (all electrons):
               1          2          3          4          5          6
     1  O    8.300379   0.312299  -0.089822  -0.079821   0.003653  -0.000014
     2  N    0.312299   5.682856   0.309107   0.266214  -0.048448   0.000871
     3  O   -0.089822   0.309107   8.331607  -0.086346   0.007863   0.000482
     4  C   -0.079821   0.266214  -0.086346   5.247174   0.566050  -0.048740
     5  C    0.003653  -0.048448   0.007863   0.566050   4.675794   0.306802
     6  N   -0.000014   0.000871   0.000482  -0.048740   0.306802   7.189441
     7  C    0.000003  -0.000097   0.000002   0.004084  -0.029081   0.198838
     8  H   -0.000000   0.000002  -0.000000  -0.000175   0.002285  -0.049774
     9  C   -0.000000  -0.000003   0.000000   0.000459   0.001668  -0.056375
    10  C   -0.000000   0.000000  -0.000000  -0.000018  -0.000063   0.003339
    11  C   -0.000000  -0.000000  -0.000000  -0.000015   0.000015  -0.000154
    12  C   -0.000000   0.000002  -0.000000  -0.000099  -0.000135   0.003591
    13  C   -0.000018  -0.000021  -0.000002  -0.010409   0.000443  -0.044327
    14  H   -0.000003  -0.000054   0.000000   0.002906   0.004754  -0.005533
    15  N    0.000195   0.001621  -0.000012  -0.061455  -0.003906   0.001954
    16  C    0.003483  -0.025253   0.001863   0.319157  -0.041007  -0.001011
    17  H    0.000138  -0.004233   0.012304  -0.026726   0.377112  -0.033545
    18  H    0.000000  -0.000037   0.000009   0.000980  -0.024418   0.328415
    19  H    0.000000   0.000000   0.000000  -0.000781   0.000672   0.000617
    20  H    0.000000  -0.000000   0.000000  -0.000028   0.000032  -0.001673
    21  H   -0.000000  -0.000000   0.000000   0.000000   0.000001  -0.000059
    22  H   -0.000000   0.000000  -0.000000  -0.000000  -0.000002  -0.000098
    23  H    0.000000  -0.000000   0.000000   0.000025  -0.000000  -0.000024
    24  H    0.000000   0.000000   0.000000   0.000000  -0.000000   0.000004
    25  H    0.000000  -0.000000   0.000000   0.000019  -0.000001  -0.000071
    26  H    0.000000  -0.000000   0.000000   0.000006  -0.000000  -0.000067
    27  H    0.005431  -0.000206   0.000004  -0.066058   0.002110   0.000041
               7          8          9         10         11         12
     1  O    0.000003  -0.000000  -0.000000  -0.000000  -0.000000  -0.000000
     2  N   -0.000097   0.000002  -0.000003   0.000000  -0.000000   0.000002
     3  O    0.000002  -0.000000   0.000000  -0.000000  -0.000000  -0.000000
     4  C    0.004084  -0.000175   0.000459  -0.000018  -0.000015  -0.000099
     5  C   -0.029081   0.002285   0.001668  -0.000063   0.000015  -0.000135
     6  N    0.198838  -0.049774  -0.056375   0.003339  -0.000154   0.003591
     7  C    5.004719   0.416630   0.340726  -0.049329  -0.007715  -0.064120
     8  H    0.416630   0.547076  -0.060448   0.001433  -0.000323  -0.002876
     9  C    0.340726  -0.060448   5.181070   0.317979  -0.053069  -0.006168
    10  C   -0.049329   0.001433   0.317979   5.126805   0.332741  -0.060191
    11  C   -0.007715  -0.000323  -0.053069   0.332741   5.124095   0.330616
    12  C   -0.064120  -0.002876  -0.006168  -0.060191   0.330616   5.137106
    13  C    0.331676  -0.040192  -0.050625  -0.001694  -0.047918   0.368185
    14  H   -0.040327  -0.000935   0.003862  -0.000390   0.003956  -0.040732
    15  N   -0.058327   0.004034  -0.012822   0.001463  -0.007745  -0.074116
    16  C   -0.002200   0.000008  -0.000807  -0.000031   0.000008   0.002470
    17  H    0.001410  -0.000021  -0.000064   0.000001   0.000000   0.000001
    18  H   -0.028512  -0.002726   0.000846  -0.000121   0.000011  -0.000136
    19  H   -0.035024   0.004094   0.386046  -0.032622  -0.002257   0.000625
    20  H   -0.041643  -0.001841   0.397262  -0.037357   0.004136  -0.000362
    21  H    0.004044  -0.000080  -0.035837   0.400144  -0.035845   0.004213
    22  H   -0.004233   0.003511  -0.045678   0.395968  -0.045612  -0.001234
    23  H    0.000430   0.000034  -0.002003  -0.040099   0.396706  -0.036635
    24  H   -0.000141  -0.000098   0.004394  -0.038475   0.400300  -0.037868
    25  H    0.004982  -0.000005  -0.000370   0.004097  -0.033909   0.395431
    26  H   -0.004456   0.001597   0.001044  -0.002407  -0.042300   0.394681
    27  H   -0.000396   0.000009  -0.000058   0.000005   0.000005  -0.000020
              13         14         15         16         17         18
     1  O   -0.000018  -0.000003   0.000195   0.003483   0.000138   0.000000
     2  N   -0.000021  -0.000054   0.001621  -0.025253  -0.004233  -0.000037
     3  O   -0.000002   0.000000  -0.000012   0.001863   0.012304   0.000009
     4  C   -0.010409   0.002906  -0.061455   0.319157  -0.026726   0.000980
     5  C    0.000443   0.004754  -0.003906  -0.041007   0.377112  -0.024418
     6  N   -0.044327  -0.005533   0.001954  -0.001011  -0.033545   0.328415
     7  C    0.331676  -0.040327  -0.058327  -0.002200   0.001410  -0.028512
     8  H   -0.040192  -0.000935   0.004034   0.000008  -0.000021  -0.002726
     9  C   -0.050625   0.003862  -0.012822  -0.000807  -0.000064   0.000846
    10  C   -0.001694  -0.000390   0.001463  -0.000031   0.000001  -0.000121
    11  C   -0.047918   0.003956  -0.007745   0.000008   0.000000   0.000011
    12  C    0.368185  -0.040732  -0.074116   0.002470   0.000001  -0.000136
    13  C    5.023327   0.402530   0.240322  -0.069477  -0.000041   0.003676
    14  H    0.402530   0.518980  -0.035806  -0.004872   0.000061   0.000008
    15  N    0.240322  -0.035806   6.936966   0.587589  -0.000058  -0.000118
    16  C   -0.069477  -0.004872   0.587589   4.695904   0.001548  -0.000211
    17  H   -0.000041   0.000061  -0.000058   0.001548   0.383276  -0.001857
    18  H    0.003676   0.000008  -0.000118  -0.000211  -0.001857   0.324863
    19  H   -0.006261   0.000065   0.006945   0.002488   0.000011  -0.000128
    20  H    0.003864  -0.000050   0.000078  -0.000031  -0.000001   0.002842
    21  H   -0.000378   0.000009  -0.000030   0.000002  -0.000000  -0.000000
    22  H    0.000321  -0.000044   0.000003  -0.000001   0.000000   0.000002
    23  H   -0.005870   0.000008   0.006763   0.000065   0.000000   0.000000
    24  H    0.004146  -0.000058   0.000042   0.000005   0.000000  -0.000000
    25  H   -0.034463  -0.002662   0.000790  -0.000061  -0.000000   0.000002
    26  H   -0.044806  -0.000905   0.004184  -0.000054   0.000000  -0.000001
    27  H    0.004827  -0.000170  -0.039591   0.402249  -0.000058   0.000002
              19         20         21         22         23         24
     1  O    0.000000   0.000000  -0.000000  -0.000000   0.000000   0.000000
     2  N    0.000000  -0.000000  -0.000000   0.000000  -0.000000   0.000000
     3  O    0.000000   0.000000   0.000000  -0.000000   0.000000   0.000000
     4  C   -0.000781  -0.000028   0.000000  -0.000000   0.000025   0.000000
     5  C    0.000672   0.000032   0.000001  -0.000002  -0.000000  -0.000000
     6  N    0.000617  -0.001673  -0.000059  -0.000098  -0.000024   0.000004
     7  C   -0.035024  -0.041643   0.004044  -0.004233   0.000430  -0.000141
     8  H    0.004094  -0.001841  -0.000080   0.003511   0.000034  -0.000098
     9  C    0.386046   0.397262  -0.035837  -0.045678  -0.002003   0.004394
    10  C   -0.032622  -0.037357   0.400144   0.395968  -0.040099  -0.038475
    11  C   -0.002257   0.004136  -0.035845  -0.045612   0.396706   0.400300
    12  C    0.000625  -0.000362   0.004213  -0.001234  -0.036635  -0.037868
    13  C   -0.006261   0.003864  -0.000378   0.000321  -0.005870   0.004146
    14  H    0.000065  -0.000050   0.000009  -0.000044   0.000008  -0.000058
    15  N    0.006945   0.000078  -0.000030   0.000003   0.006763   0.000042
    16  C    0.002488  -0.000031   0.000002  -0.000001   0.000065   0.000005
    17  H    0.000011  -0.000001  -0.000000   0.000000   0.000000   0.000000
    18  H   -0.000128   0.002842  -0.000000   0.000002   0.000000  -0.000000
    19  H    0.506926  -0.023991  -0.002591   0.003758   0.001643  -0.000070
    20  H   -0.023991   0.549872  -0.002619  -0.002961  -0.000049  -0.000090
    21  H   -0.002591  -0.002619   0.526038  -0.024689  -0.002814  -0.002062
    22  H    0.003758  -0.002961  -0.024689   0.568820   0.004061  -0.003594
    23  H    0.001643  -0.000049  -0.002814   0.004061   0.509628  -0.024980
    24  H   -0.000070  -0.000090  -0.002062  -0.003594  -0.024980   0.540957
    25  H   -0.000027   0.000011  -0.000086  -0.000082  -0.002089  -0.002382
    26  H    0.000023  -0.000035  -0.000074   0.002464   0.003820  -0.002762
    27  H    0.000075   0.000000  -0.000000   0.000000  -0.000021  -0.000000
              25         26         27
     1  O    0.000000   0.000000   0.005431
     2  N   -0.000000  -0.000000  -0.000206
     3  O    0.000000   0.000000   0.000004
     4  C    0.000019   0.000006  -0.066058
     5  C   -0.000001  -0.000000   0.002110
     6  N   -0.000071  -0.000067   0.000041
     7  C    0.004982  -0.004456  -0.000396
     8  H   -0.000005   0.001597   0.000009
     9  C   -0.000370   0.001044  -0.000058
    10  C    0.004097  -0.002407   0.000005
    11  C   -0.033909  -0.042300   0.000005
    12  C    0.395431   0.394681  -0.000020
    13  C   -0.034463  -0.044806   0.004827
    14  H   -0.002662  -0.000905  -0.000170
    15  N    0.000790   0.004184  -0.039591
    16  C   -0.000061  -0.000054   0.402249
    17  H   -0.000000   0.000000  -0.000058
    18  H    0.000002  -0.000001   0.000002
    19  H   -0.000027   0.000023   0.000075
    20  H    0.000011  -0.000035   0.000000
    21  H   -0.000086  -0.000074  -0.000000
    22  H   -0.000082   0.002464   0.000000
    23  H   -0.002089   0.003820  -0.000021
    24  H   -0.002382  -0.002762  -0.000000
    25  H    0.510227  -0.023099  -0.000010
    26  H   -0.023099   0.560893   0.000001
    27  H   -0.000010   0.000001   0.451119
 Mulliken charges:
               1
     1  O   -0.455904
     2  N    0.505380
     3  O   -0.487058
     4  C   -0.026402
     5  C    0.197806
     6  N   -0.792932
     7  C    0.058057
     8  H    0.178781
     9  C   -0.311030
    10  C   -0.321179
    11  C   -0.315726
    12  C   -0.312231
    13  C   -0.026813
    14  H    0.195402
    15  N   -0.498964
    16  C    0.128177
    17  H    0.290742
    18  H    0.396607
    19  H    0.189764
    20  H    0.154633
    21  H    0.172711
    22  H    0.149321
    23  H    0.191403
    24  H    0.162733
    25  H    0.183757
    26  H    0.152254
    27  H    0.240711
 Sum of Mulliken charges =  -0.00000
 Mulliken charges with hydrogens summed into heavy atoms:
               1
     1  O   -0.455904
     2  N    0.505380
     3  O   -0.487058
     4  C   -0.026402
     5  C    0.488549
     6  N   -0.396325
     7  C    0.236838
     9  C    0.033367
    10  C    0.000853
    11  C    0.038410
    12  C    0.023780
    13  C    0.168589
    15  N   -0.498964
    16  C    0.368888
 Electronic spatial extent (au):  <R**2>=           3126.1037
 Charge=             -0.0000 electrons
 Dipole moment (field-independent basis, Debye):
    X=              5.3829    Y=              4.4652    Z=              0.5373  Tot=              7.0145
 Quadrupole moment (field-independent basis, Debye-Ang):
   XX=           -105.5697   YY=            -80.2111   ZZ=            -82.2665
   XY=             -1.7336   XZ=              0.7887   YZ=              0.1077
 Traceless Quadrupole moment (field-independent basis, Debye-Ang):
   XX=            -16.2206   YY=              9.1380   ZZ=              7.0826
   XY=             -1.7336   XZ=              0.7887   YZ=              0.1077
 Octapole moment (field-independent basis, Debye-Ang**2):
  XXX=            101.9575  YYY=             36.2790  ZZZ=             -5.0519  XYY=             -1.5885
  XXY=             11.2520  XXZ=              0.2770  XZZ=             -8.2678  YZZ=             -2.9309
  YYZ=              0.8882  XYZ=             -1.4932
 Hexadecapole moment (field-independent basis, Debye-Ang**3):
 XXXX=          -3563.1237 YYYY=           -619.1355 ZZZZ=           -298.8725 XXXY=            -36.8473
 XXXZ=             21.8548 YYYX=            -17.0286 YYYZ=             12.1007 ZZZX=             19.3934
 ZZZY=              8.8938 XXYY=           -657.0105 XXZZ=           -543.5748 YYZZ=           -164.4322
 XXYZ=              2.7154 YYXZ=              9.7284 ZZXY=              3.2793
 N-N= 9.174286242153D+02 E-N=-3.380870558144D+03  KE= 6.588546413885D+02
 Calling FoFJK, ICntrl=  10002127 FMM=F ISym2X=0 I1Cent= 0 IOpClX= 0 NMat=1 NMatS=1 NMatT=0.
 -------------------------------------------------------------------
 Center     Atomic                   Forces (Hartrees/Bohr)
 Number     Number              X              Y              Z
 -------------------------------------------------------------------
      1        8           0.001442965   -0.020241295   -0.002703831
      2        7           0.039332575    0.011300108   -0.003335996
      3        8          -0.003662510    0.015413010    0.003789541
      4        6          -0.007073565    0.012645739    0.010821848
      5        6           0.006533707   -0.017257700   -0.005256086
      6        7           0.014953995   -0.009452645   -0.006469690
      7        6          -0.004805713    0.005256078    0.002798230
      8        1          -0.010173300   -0.001744363   -0.007629302
      9        6          -0.003918771    0.000194315   -0.002116534
     10        6           0.002839338   -0.000878290    0.000950054
     11        6          -0.000985267   -0.004599278   -0.002390903
     12        6           0.000817355   -0.008759775   -0.002934075
     13        6           0.008751482   -0.001641373    0.004369088
     14        1           0.000851147    0.004370660   -0.009918616
     15        7           0.000429689    0.000409873    0.002069945
     16        6          -0.021388031    0.008213176    0.003369825
     17        1           0.007117769   -0.006515622   -0.006229561
     18        1          -0.017467263   -0.001757835    0.006076790
     19        1           0.003101281    0.005883252    0.007672369
     20        1          -0.003229446   -0.007375476    0.002607639
     21        1          -0.004344982    0.002389574    0.009630771
     22        1          -0.003998058   -0.003982975   -0.007393993
     23        1           0.003977667    0.006128680    0.009291726
     24        1          -0.009394650    0.002593548   -0.002115833
     25        1          -0.000828958    0.010595954   -0.002416875
     26        1          -0.004780488   -0.004812038   -0.004368520
     27        1           0.005902032    0.003624700    0.001831992
 -------------------------------------------------------------------
 Cartesian Forces:  Max     0.039332575 RMS     0.008516227

 GradGradGradGradGradGradGradGradGradGradGradGradGradGradGradGradGradGrad
 Berny optimization.
 FormGI is forming the generalized inverse of G from B-inverse, IUseBI=4.
 Internal  Forces:  Max     0.037693610 RMS     0.006858193
 Search for a local minimum.
 Step number   1 out of a maximum of   20
 All quantities printed in internal units (Hartrees-Bohrs-Radians)
 Mixed Optimization -- RFO/linear search
 Second derivative matrix not updated -- first step.
 ITU=  0
     Eigenvalues ---    0.00232   0.00770   0.01045   0.01146   0.01198
     Eigenvalues ---    0.01484   0.01532   0.01602   0.01979   0.02019
     Eigenvalues ---    0.02087   0.02685   0.03664   0.04507   0.04696
     Eigenvalues ---    0.04838   0.05079   0.05138   0.05303   0.05888
     Eigenvalues ---    0.06267   0.07234   0.07701   0.07723   0.07870
     Eigenvalues ---    0.07994   0.08050   0.08053   0.10460   0.11741
     Eigenvalues ---    0.12272   0.13509   0.15270   0.15805   0.15992
     Eigenvalues ---    0.16000   0.20100   0.21976   0.23406   0.25000
     Eigenvalues ---    0.25000   0.25359   0.26185   0.26652   0.27981
     Eigenvalues ---    0.28083   0.28458   0.29445   0.31463   0.31577
     Eigenvalues ---    0.32047   0.32238   0.32290   0.32381   0.32387
     Eigenvalues ---    0.32404   0.32515   0.32526   0.32581   0.33391
     Eigenvalues ---    0.33397   0.33602   0.35319   0.43882   0.44150
     Eigenvalues ---    0.49221   0.67054   0.90256   0.912241000.00000
     Eigenvalues --- 1000.000001000.000001000.000001000.000001000.00000
     Eigenvalues --- 1000.000001000.000001000.000001000.000001000.00000
     Eigenvalues --- 1000.000001000.000001000.000001000.000001000.00000
     Eigenvalues --- 1000.000001000.000001000.000001000.000001000.00000
     Eigenvalues --- 1000.000001000.000001000.000001000.000001000.00000
     Eigenvalues --- 1000.000001000.000001000.000001000.000001000.00000
     Eigenvalues --- 1000.000001000.000001000.000001000.000001000.00000
     Eigenvalues --- 1000.000001000.000001000.000001000.000001000.00000
     Eigenvalues --- 1000.000001000.000001000.000001000.000001000.00000
     Eigenvalues --- 1000.000001000.000001000.000001000.000001000.00000
     Eigenvalues --- 1000.000001000.000001000.000001000.000001000.00000
     Eigenvalues --- 1000.000001000.000001000.000001000.000001000.00000
     Eigenvalues --- 1000.000001000.000001000.000001000.000001000.00000
     Eigenvalues --- 1000.000001000.000001000.000001000.000001000.00000
     Eigenvalues --- 1000.000001000.000001000.000001000.000001000.00000
     Eigenvalues --- 1000.000001000.000001000.000001000.000001000.00000
     Eigenvalues --- 1000.000001000.000001000.000001000.000001000.00000
     Eigenvalues --- 1000.000001000.000001000.000001000.000001000.00000
     Eigenvalues --- 1000.00000
 RFO step:  Lambda=-2.37012573D-02 EMin= 2.31943750D-03
 Linear search not attempted -- first point.
 Iteration  1 RMS(Cart)=  0.05506132 RMS(Int)=  0.00102582
 Iteration  2 RMS(Cart)=  0.00114079 RMS(Int)=  0.00021415
 Iteration  3 RMS(Cart)=  0.00000084 RMS(Int)=  0.00021415
 Iteration  1 RMS(Cart)=  0.00007807 RMS(Int)=  0.00002401
 Iteration  2 RMS(Cart)=  0.00003301 RMS(Int)=  0.00002668
 Iteration  3 RMS(Cart)=  0.00001464 RMS(Int)=  0.00002942
 Iteration  4 RMS(Cart)=  0.00000707 RMS(Int)=  0.00003105
 Iteration  5 RMS(Cart)=  0.00000393 RMS(Int)=  0.00003201
 Iteration  6 RMS(Cart)=  0.00000257 RMS(Int)=  0.00003262
 Iteration  7 RMS(Cart)=  0.00000192 RMS(Int)=  0.00003305
 Iteration  8 RMS(Cart)=  0.00000156 RMS(Int)=  0.00003337
 Iteration  9 RMS(Cart)=  0.00000130 RMS(Int)=  0.00003362
 Iteration 10 RMS(Cart)=  0.00000111 RMS(Int)=  0.00003383
 Iteration 11 RMS(Cart)=  0.00000095 RMS(Int)=  0.00003401
 Variable       Old X    -DE/DX   Delta X   Delta X   Delta X     New X
                                 (Linear)    (Quad)   (Total)
    R1        2.32374   0.01905   0.00000   0.02035   0.02035   2.34409
    R2        2.32815   0.01459   0.00000   0.01575   0.01575   2.34391
    R3        2.89085  -0.03769   0.00000  -0.11848  -0.11848   2.77237
    R4        2.64556  -0.03422   0.00000  -0.07371  -0.07346   2.57210
    R5        2.80717  -0.02193   0.00000  -0.06237  -0.06216   2.74501
    R6        2.59031  -0.02426   0.00000  -0.04681  -0.04670   2.54361
    R7        2.08371  -0.01068   0.00000  -0.02987  -0.02987   2.05384
    R8        2.82511  -0.01983   0.00000  -0.05523  -0.05533   2.76978
    R9        1.93296  -0.00660   0.00000  -0.01426  -0.01426   1.91869
   R10        2.11837  -0.01193   0.00000  -0.03526  -0.03526   2.08311
   R11        2.92742  -0.01295   0.00000  -0.04417  -0.04418   2.88324
   R12        2.90349  -0.00459   0.00000  -0.00978  -0.00985   2.89364
   R13        2.91141  -0.00465   0.00000  -0.01440  -0.01443   2.89699
   R14        2.09911  -0.00994   0.00000  -0.02848  -0.02848   2.07063
   R15        2.09892  -0.00804   0.00000  -0.02305  -0.02305   2.07587
   R16        2.90429  -0.00184   0.00000  -0.00713  -0.00720   2.89709
   R17        2.10141  -0.01058   0.00000  -0.03043  -0.03043   2.07098
   R18        2.10316  -0.00901   0.00000  -0.02599  -0.02599   2.07717
   R19        2.91761  -0.00907   0.00000  -0.02870  -0.02868   2.88892
   R20        2.10411  -0.01166   0.00000  -0.03370  -0.03370   2.07041
   R21        2.10111  -0.00995   0.00000  -0.02861  -0.02861   2.07250
   R22        2.93530  -0.01058   0.00000  -0.03643  -0.03640   2.89889
   R23        2.10152  -0.01074   0.00000  -0.03090  -0.03090   2.07062
   R24        2.09793  -0.00786   0.00000  -0.02249  -0.02249   2.07544
   R25        2.10759  -0.00921   0.00000  -0.02676  -0.02676   2.08082
   R26        2.76879  -0.00555   0.00000  -0.01208  -0.01236   2.75643
   R27        2.44237  -0.00529   0.00000  -0.00720  -0.00723   2.43513
   R28        2.08007  -0.00622   0.00000  -0.01730  -0.01730   2.06277
    A1        2.15651   0.01128   0.00000   0.04150   0.04113   2.19764
    A2        2.04685  -0.00614   0.00000  -0.02214  -0.02251   2.02435
    A3        2.07957  -0.00510   0.00000  -0.01832  -0.01869   2.06088
    A4        2.01226  -0.00326   0.00000   0.00000  -0.00000   2.01226
    A5        2.04352  -0.00569   0.00000  -0.02406  -0.02463   2.01888
    A6        2.22666   0.00889   0.00000   0.02289   0.02300   2.24966
    A7        2.19570   0.00735   0.00000   0.02559   0.02597   2.22167
    A8        2.06951  -0.00434   0.00000  -0.01611  -0.01640   2.05312
    A9        2.01699  -0.00297   0.00000  -0.00860  -0.00889   2.00810
   A10        2.25403  -0.00584   0.00000  -0.01979  -0.01976   2.23426
   A11        2.11461  -0.01223   0.00000  -0.07058  -0.07097   2.04364
   A12        1.87429   0.01824   0.00000   0.09808   0.09817   1.97246
   A13        1.83780  -0.00159   0.00000  -0.01752  -0.01732   1.82049
   A14        2.00619  -0.00106   0.00000  -0.01193  -0.01198   1.99421
   A15        1.96859   0.00090   0.00000  -0.00016  -0.00062   1.96797
   A16        1.85201   0.00267   0.00000   0.02435   0.02418   1.87619
   A17        1.84900   0.00085   0.00000   0.01854   0.01836   1.86737
   A18        1.93621  -0.00145   0.00000  -0.00888  -0.00859   1.92762
   A19        1.91020   0.00014   0.00000  -0.00490  -0.00503   1.90517
   A20        1.92244  -0.00073   0.00000  -0.01297  -0.01294   1.90949
   A21        1.92287  -0.00165   0.00000  -0.00696  -0.00695   1.91591
   A22        1.91924  -0.00040   0.00000   0.00558   0.00553   1.92477
   A23        1.90449   0.00306   0.00000   0.02467   0.02468   1.92917
   A24        1.88440  -0.00039   0.00000  -0.00500  -0.00525   1.87915
   A25        1.94051  -0.00090   0.00000   0.00539   0.00527   1.94577
   A26        1.91892  -0.00069   0.00000  -0.00682  -0.00683   1.91209
   A27        1.90497   0.00031   0.00000  -0.00290  -0.00295   1.90202
   A28        1.91611   0.00080   0.00000   0.00713   0.00718   1.92329
   A29        1.89850   0.00172   0.00000   0.01123   0.01127   1.90977
   A30        1.88378  -0.00123   0.00000  -0.01452  -0.01460   1.86918
   A31        1.94465   0.00063   0.00000   0.00513   0.00526   1.94991
   A32        1.90241   0.00062   0.00000   0.00585   0.00580   1.90822
   A33        1.91742   0.00039   0.00000   0.00534   0.00531   1.92273
   A34        1.90664  -0.00114   0.00000  -0.01426  -0.01431   1.89233
   A35        1.91535  -0.00046   0.00000   0.00018   0.00009   1.91544
   A36        1.87600  -0.00007   0.00000  -0.00262  -0.00266   1.87334
   A37        1.94753  -0.00292   0.00000  -0.01788  -0.01791   1.92962
   A38        1.90601   0.00252   0.00000   0.01685   0.01670   1.92271
   A39        1.91079   0.00138   0.00000   0.01321   0.01319   1.92398
   A40        1.90619   0.00017   0.00000  -0.00306  -0.00290   1.90329
   A41        1.91151  -0.00023   0.00000  -0.00486  -0.00480   1.90671
   A42        1.88057  -0.00085   0.00000  -0.00379  -0.00398   1.87660
   A43        1.84640   0.00451   0.00000   0.02342   0.02347   1.86986
   A44        1.93788  -0.00425   0.00000  -0.03041  -0.03085   1.90703
   A45        1.98464   0.00081   0.00000   0.01083   0.01104   1.99568
   A46        1.88071   0.00223   0.00000   0.03034   0.03063   1.91134
   A47        1.89182  -0.00388   0.00000  -0.02845  -0.02850   1.86332
   A48        1.91776   0.00078   0.00000  -0.00337  -0.00323   1.91453
   A49        2.08474  -0.00613   0.00000  -0.01351  -0.01385   2.07089
   A50        2.24891  -0.00444   0.00000  -0.01767  -0.01770   2.23121
   A51        1.97924   0.00533   0.00000   0.02576   0.02531   2.00455
   A52        2.05504  -0.00088   0.00000  -0.00801  -0.00843   2.04660
    D1       -3.03594  -0.00033   0.00000  -0.02937  -0.02896  -3.06491
    D2        0.14414   0.00079   0.00000   0.00000  -0.00000   0.14414
    D3        0.12895  -0.00220   0.00000  -0.07783  -0.07762   0.05132
    D4       -2.97416  -0.00108   0.00000  -0.04846  -0.04866  -3.02282
    D5        3.07410   0.00074   0.00000   0.01539   0.01561   3.08971
    D6       -0.01755  -0.00032   0.00000  -0.00662  -0.00647  -0.02401
    D7       -0.11073  -0.00094   0.00000  -0.01890  -0.01928  -0.13001
    D8        3.08080  -0.00201   0.00000  -0.04091  -0.04136   3.03945
    D9       -2.71703  -0.00175   0.00000  -0.03910  -0.03929  -2.75632
   D10        0.42232   0.00049   0.00000   0.00816   0.00823   0.43055
   D11        0.46847  -0.00010   0.00000  -0.00481  -0.00482   0.46365
   D12       -2.67536   0.00214   0.00000   0.04244   0.04269  -2.63267
   D13       -0.11519  -0.00013   0.00000   0.01932   0.01962  -0.09558
   D14        2.68563   0.00376   0.00000   0.06782   0.06689   2.75253
   D15        2.97778   0.00086   0.00000   0.04052   0.04098   3.01876
   D16       -0.50458   0.00475   0.00000   0.08902   0.08826  -0.41632
   D17       -2.49452  -0.00070   0.00000  -0.01647  -0.01610  -2.51061
   D18        1.75719  -0.00237   0.00000  -0.02846  -0.02809   1.72910
   D19       -0.48611  -0.00018   0.00000  -0.00480  -0.00475  -0.49086
   D20        0.95144  -0.00003   0.00000  -0.03638  -0.03686   0.91459
   D21       -1.08003  -0.00170   0.00000  -0.04837  -0.04886  -1.12889
   D22        2.95985   0.00049   0.00000  -0.02470  -0.02552   2.93434
   D23        2.94336   0.00239   0.00000   0.02680   0.02670   2.97006
   D24       -1.22775   0.00151   0.00000   0.02237   0.02229  -1.20546
   D25        0.84924  -0.00045   0.00000   0.00378   0.00377   0.85301
   D26        0.92001   0.00317   0.00000   0.03888   0.03889   0.95890
   D27        3.03208   0.00229   0.00000   0.03446   0.03448   3.06656
   D28       -1.17411   0.00033   0.00000   0.01587   0.01596  -1.15815
   D29       -1.08047   0.00140   0.00000   0.00794   0.00792  -1.07256
   D30        1.03160   0.00052   0.00000   0.00352   0.00351   1.03510
   D31        3.10859  -0.00144   0.00000  -0.01508  -0.01501   3.09358
   D32       -2.89967  -0.00104   0.00000  -0.01347  -0.01325  -2.91293
   D33       -0.86401   0.00203   0.00000   0.02043   0.02027  -0.84375
   D34        1.30938   0.00031   0.00000   0.00000  -0.00001   1.30937
   D35       -0.89802  -0.00198   0.00000  -0.02354  -0.02344  -0.92145
   D36        1.13764   0.00109   0.00000   0.01037   0.01009   1.14773
   D37       -2.97215  -0.00063   0.00000  -0.01006  -0.01019  -2.98234
   D38        1.10435   0.00093   0.00000   0.01103   0.01114   1.11549
   D39        3.14001   0.00400   0.00000   0.04493   0.04466  -3.09852
   D40       -0.96979   0.00228   0.00000   0.02451   0.02439  -0.94540
   D41        0.95666   0.00065   0.00000   0.00000   0.00001   0.95667
   D42        3.08232   0.00059   0.00000   0.00796   0.00792   3.09024
   D43       -1.13769  -0.00112   0.00000  -0.01543  -0.01540  -1.15309
   D44       -1.15735   0.00172   0.00000   0.01565   0.01572  -1.14163
   D45        0.96831   0.00166   0.00000   0.02361   0.02363   0.99194
   D46        3.03149  -0.00005   0.00000   0.00021   0.00031   3.03180
   D47        3.06201   0.00060   0.00000   0.00367   0.00363   3.06564
   D48       -1.09552   0.00054   0.00000   0.01163   0.01155  -1.08397
   D49        0.96766  -0.00117   0.00000  -0.01176  -0.01177   0.95588
   D50       -0.92192  -0.00079   0.00000   0.00000   0.00001  -0.92191
   D51        1.18348  -0.00140   0.00000  -0.01067  -0.01068   1.17280
   D52       -3.04836  -0.00089   0.00000  -0.00733  -0.00736  -3.05572
   D53       -3.04922   0.00014   0.00000   0.00017   0.00019  -3.04902
   D54       -0.94382  -0.00048   0.00000  -0.01050  -0.01049  -0.95431
   D55        1.10753   0.00003   0.00000  -0.00716  -0.00718   1.10035
   D56        1.17626   0.00015   0.00000   0.00701   0.00705   1.18331
   D57       -3.00153  -0.00046   0.00000  -0.00365  -0.00364  -3.00517
   D58       -0.95018   0.00005   0.00000  -0.00031  -0.00032  -0.95050
   D59        0.98834  -0.00084   0.00000  -0.01197  -0.01201   0.97634
   D60        3.09741  -0.00081   0.00000  -0.01600  -0.01615   3.08125
   D61       -1.13063   0.00043   0.00000  -0.00310  -0.00307  -1.13370
   D62       -1.11457  -0.00126   0.00000  -0.01312  -0.01311  -1.12768
   D63        0.99449  -0.00123   0.00000  -0.01715  -0.01725   0.97724
   D64        3.04964   0.00000   0.00000  -0.00425  -0.00417   3.04547
   D65        3.11598  -0.00024   0.00000  -0.00167  -0.00166   3.11431
   D66       -1.05815  -0.00021   0.00000  -0.00570  -0.00581  -1.06395
   D67        0.99701   0.00103   0.00000   0.00720   0.00727   1.00428
   D68       -1.05347   0.00007   0.00000   0.00023   0.00030  -1.05317
   D69       -3.12742   0.00154   0.00000   0.00824   0.00787  -3.11955
   D70        1.08116   0.00150   0.00000   0.01098   0.01089   1.09205
   D71        3.12076  -0.00133   0.00000  -0.00735  -0.00720   3.11355
   D72        1.04681   0.00014   0.00000   0.00066   0.00036   1.04717
   D73       -1.02779   0.00010   0.00000   0.00340   0.00338  -1.02441
   D74        1.06508  -0.00026   0.00000   0.00184   0.00202   1.06710
   D75       -1.00887   0.00121   0.00000   0.00985   0.00959  -0.99928
   D76       -3.08347   0.00117   0.00000   0.01259   0.01261  -3.07086
   D77       -1.17217   0.00369   0.00000   0.00000  -0.00001  -1.17217
   D78        3.06306   0.00016   0.00000  -0.01676  -0.01665   3.04640
   D79        1.01201  -0.00071   0.00000  -0.03485  -0.03511   0.97690
   D80        0.14782   0.00132   0.00000   0.01412   0.01394   0.16176
   D81       -2.99145  -0.00101   0.00000  -0.03492  -0.03460  -3.02605
         Item               Value     Threshold  Converged?
 Maximum Force            0.037694     0.000450     NO 
 RMS     Force            0.006952     0.000300     NO 
 Maximum Displacement     0.284898     0.001800     NO 
 RMS     Displacement     0.055156     0.001200     NO 
 Predicted change in Energy=-1.328396D-02
 GradGradGradGradGradGradGradGradGradGradGradGradGradGradGradGradGradGrad

                          Input orientation:                          
 ---------------------------------------------------------------------
 Center     Atomic      Atomic             Coordinates (Angstroms)
 Number     Number       Type             X           Y           Z
 ---------------------------------------------------------------------
      1          8           0       -3.475559   -1.428286   -0.234156
      2          7           0       -3.128776   -0.251355   -0.051780
      3          8           0       -3.888971    0.709686    0.140447
      4          6           0       -1.683044   -0.002711   -0.033243
      5          6           0       -1.316390    1.274772    0.260333
      6          7           0       -0.065739    1.753509    0.396182
      7          6           0        1.194652    1.005786    0.371513
      8          1           0        1.829901    1.518186    1.112491
      9          6           0        1.924264    1.050991   -0.967710
     10          6           0        3.324724    0.450894   -0.798166
     11          6           0        3.262379   -0.961435   -0.205075
     12          6           0        2.443337   -0.997581    1.085252
     13          6           0        1.033987   -0.441694    0.844487
     14          1           0        0.467293   -0.454653    1.788503
     15          7           0        0.393968   -1.323572   -0.125202
     16          6           0       -0.846174   -1.126995   -0.414922
     17          1           0       -2.107846    1.999765    0.431245
     18          1           0        0.063028    2.752800    0.270758
     19          1           0        1.355052    0.482671   -1.711774
     20          1           0        1.990086    2.089324   -1.320195
     21          1           0        3.835502    0.431950   -1.767585
     22          1           0        3.913918    1.100075   -0.135114
     23          1           0        2.797092   -1.638873   -0.929611
     24          1           0        4.275106   -1.335323   -0.011728
     25          1           0        2.363874   -2.026519    1.453470
     26          1           0        2.938032   -0.404297    1.865959
     27          1           0       -1.332695   -1.864104   -1.056399
 ---------------------------------------------------------------------
                    Distance matrix (angstroms):
                    1          2          3          4          5
     1  O    0.000000
     2  N    1.240438   0.000000
     3  O    2.209562   1.240342   0.000000
     4  C    2.299074   1.467075   2.324606   0.000000
     5  C    3.494718   2.389816   2.636640   1.361096   0.000000
     6  N    4.706168   3.688136   3.971407   2.425776   1.346021
     7  C    5.301170   4.522345   5.097479   3.076040   2.527854
     8  H    6.216354   5.392149   5.856965   3.995824   3.268725
     9  C    5.986902   5.297947   5.927749   3.872490   3.472752
    10  C    7.077660   6.534363   7.279105   5.086118   4.831059
    11  C    6.754154   6.432307   7.352132   5.040425   5.116869
    12  C    6.079446   5.735689   6.626126   4.389512   4.469857
    13  C    4.740552   4.262407   5.104593   2.888836   2.968461
    14  H    4.537090   4.044710   4.800918   2.854287   2.916802
    15  N    3.872476   3.683037   4.748503   2.463150   3.134542
    16  C    2.652756   2.471616   3.597283   1.452599   2.538810
    17  H    3.750324   2.518561   2.218395   2.099075   1.086843
    18  H    5.500729   4.395064   4.450797   3.276282   2.021749
    19  H    5.400917   4.837259   5.566151   3.504723   3.413682
    20  H    6.589865   5.769783   6.212905   4.418680   3.754243
    21  H    7.698279   7.205002   7.961483   5.800967   5.600428
    22  H    7.810684   7.171669   7.817507   5.705479   5.248144
    23  H    6.314598   6.149122   7.166882   4.853052   5.179385
    24  H    7.754412   7.482917   8.417682   6.105396   6.176685
    25  H    6.107776   5.965415   6.950462   4.762736   5.085906
    26  H    6.825920   6.364532   7.129258   5.012243   4.847413
    27  H    2.336212   2.614598   3.819867   2.152760   3.403908
                    6          7          8          9         10
     6  N    0.000000
     7  C    1.465702   0.000000
     8  H    2.040079   1.102335   0.000000
     9  C    2.512736   1.525745   2.134107   0.000000
    10  C    3.823416   2.492642   2.650325   1.533020   0.000000
    11  C    4.336912   2.911685   3.152221   2.534171   1.533074
    12  C    3.786658   2.466195   2.589620   2.946309   2.534204
    13  C    2.495855   1.531247   2.132237   2.510928   2.956772
    14  H    2.664331   2.160970   2.491142   3.462143   3.959266
    15  N    3.154616   2.512713   3.416047   2.947910   3.491553
    16  C    3.092616   3.054866   4.060954   3.567145   4.475824
    17  H    2.057200   3.449355   4.025153   4.372088   5.781286
    18  H    1.015329   2.083934   2.314006   2.809654   4.132799
    19  H    2.842033   2.153941   3.045364   1.095728   2.171474
    20  H    2.699099   2.160705   2.503960   1.098505   2.176747
    21  H    4.652751   3.446610   3.673852   2.162370   1.095914
    22  H    4.067791   2.767665   2.464643   2.157394   1.099193
    23  H    4.632686   3.354841   3.882353   2.828188   2.159351
    24  H    5.343239   3.888041   3.922424   3.483512   2.170779
    25  H    4.616220   3.425286   3.600879   3.940360   3.482912
    26  H    3.979826   2.694638   2.343419   3.342943   2.824614
    27  H    4.099060   4.081995   5.113314   4.371890   5.207442
                   11         12         13         14         15
    11  C    0.000000
    12  C    1.528752   0.000000
    13  C    2.517428   1.534029   0.000000
    14  H    3.470402   2.166583   1.101125   0.000000
    15  N    2.892283   2.402370   1.458640   2.103013   0.000000
    16  C    4.117238   3.617755   2.364478   2.651852   1.288617
    17  H    6.165462   5.488631   4.000326   3.807578   4.196817
    18  H    4.925221   4.516041   3.387731   3.571377   4.108907
    19  H    2.827275   3.346471   2.737153   3.730768   2.589094
    20  H    3.488460   3.939619   3.464971   4.295895   3.952652
    21  H    2.170583   3.481432   3.928698   4.977616   4.198028
    22  H    2.163151   2.837616   3.410377   4.242252   4.273665
    23  H    1.095612   2.143845   2.772941   3.770741   2.553721
    24  H    1.096718   2.161669   3.469370   4.303005   3.882814
    25  H    2.166216   1.095725   2.156648   2.485967   2.620471
    26  H    2.169053   1.098278   2.161062   2.472466   3.358876
    27  H    4.759650   4.426731   3.352283   3.649654   2.034863
                   16         17         18         19         20
    16  C    0.000000
    17  H    3.476268   0.000000
    18  H    4.043465   2.303370   0.000000
    19  H    3.019643   4.345775   3.279214   0.000000
    20  H    4.382761   4.457421   2.585514   1.771422   0.000000
    21  H    5.116454   6.528115   4.875731   2.481597   2.520438
    22  H    5.262757   6.114887   4.210176   3.068362   2.466609
    23  H    3.714877   6.256998   5.310629   2.681829   3.834483
    24  H    5.141349   7.215338   5.876576   3.836923   4.319908
    25  H    3.821575   6.103456   5.434573   4.163235   4.977258
    26  H    4.477156   5.770511   4.558242   4.011573   4.155517
    27  H    1.091570   4.212294   5.002518   3.627789   5.171078
                   21         22         23         24         25
    21  H    0.000000
    22  H    1.765645   0.000000
    23  H    2.463494   3.062737   0.000000
    24  H    2.529731   2.465125   1.766119   0.000000
    25  H    4.311028   3.834296   2.452963   2.505467   0.000000
    26  H    3.835024   2.686965   3.059290   2.486018   1.769580
    27  H    5.699817   6.096070   4.137867   5.728732   4.471067
                   26         27
    26  H    0.000000
    27  H    5.376832   0.000000
 Symmetry turned off by external request.
 Stoichiometry    C9H13N3O2
 Framework group  C1[X(C9H13N3O2)]
 Deg. of freedom    75
 Full point group                 C1      NOp   1
 Rotational constants (GHZ):           1.6852271           0.4215794           0.3721628
 Standard basis: 6-31G(d) (6D, 7F)
   236 basis functions,   444 primitive gaussians,   236 cartesian basis functions
    52 alpha electrons       52 beta electrons
       nuclear repulsion energy       932.0097891235 Hartrees.
 NAtoms=   27 NActive=   27 NUniq=   27 SFac= 1.00D+00 NAtFMM=   60 NAOKFM=F Big=F
 Integral buffers will be    131072 words long.
 Raffenetti 1 integral format.
 Two-electron integral symmetry is turned off.
 One-electron integrals computed using PRISM.
 NBasis=   236 RedAO= T EigKep=  1.01D-03  NBF=   236
 NBsUse=   236 1.00D-06 EigRej= -1.00D+00 NBFU=   236
 Initial guess from the checkpoint file:  "/home/alexey/tmp/Gau-1332668.chk"
 B after Tr=     0.055135    0.002030    0.000442
         Rot=    0.999999   -0.001244    0.000620    0.000251 Ang=  -0.16 deg.
 ExpMin= 1.61D-01 ExpMax= 5.48D+03 ExpMxC= 8.25D+02 IAcc=3 IRadAn=         5 AccDes= 0.00D+00
 Harris functional with IExCor=  205 and IRadAn=       5 diagonalized for initial guess.
 HarFok:  IExCor=  205 AccDes= 0.00D+00 IRadAn=         5 IDoV= 1 UseB2=F ITyADJ=14
 ICtDFT=  3500011 ScaDFX=  1.000000  1.000000  1.000000  1.000000
 FoFCou: FMM=F IPFlag=           0 FMFlag=      100000 FMFlg1=           0
         NFxFlg=           0 DoJE=T BraDBF=F KetDBF=T FulRan=T
         wScrn=  0.000000 ICntrl=       500 IOpCl=  0 I1Cent=   200000004 NGrid=           0
         NMat0=    1 NMatS0=      1 NMatT0=    0 NMatD0=    1 NMtDS0=    0 NMtDT0=    0
 Symmetry not used in FoFCou.
 Keep R1 ints in memory in canonical form, NReq=397720213.
 Requested convergence on RMS density matrix=1.00D-08 within 128 cycles.
 Requested convergence on MAX density matrix=1.00D-06.
 Requested convergence on             energy=1.00D-06.
 No special actions if energy rises.
 SCF Done:  E(RHF) =  -661.298252560     A.U. after   14 cycles
            NFock= 14  Conv=0.86D-08     -V/T= 2.0025
 ExpMin= 1.61D-01 ExpMax= 5.48D+03 ExpMxC= 8.25D+02 IAcc=3 IRadAn=         5 AccDes= 0.00D+00
 HarFok:  IExCor=  205 AccDes= 0.00D+00 IRadAn=         5 IDoV=-2 UseB2=F ITyADJ=14
 ICtDFT= 12500011 ScaDFX=  1.000000  1.000000  1.000000  1.000000
 Range of M.O.s used for correlation:    15   236
 NBasis=   236 NAE=    52 NBE=    52 NFC=    14 NFV=     0
 NROrb=    222 NOA=    38 NOB=    38 NVA=   184 NVB=   184
 Fully direct method using O(ONN) memory.
 JobTyp=1 Pass  1:  I=  15 to  52 NPSUse=  4 ParTrn=T ParDer=T DoDerP=T.
 Spin components of T(2) and E(2):
     alpha-alpha T2 =       0.9126765435D-01 E2=     -0.2723478672D+00
     alpha-beta  T2 =       0.4913675990D+00 E2=     -0.1488117287D+01
     beta-beta   T2 =       0.9126765435D-01 E2=     -0.2723478672D+00
 ANorm=    0.1293793997D+01
 E2 =    -0.2032813021D+01 EUMP2 =    -0.66333106558187D+03
          IDoAtm=111111111111111111111111111
          Differentiating once with respect to electric field.
                with respect to dipole field.
          Differentiating once with respect to nuclear coordinates.
 Keep R1 ints in memory in canonical form, NReq=397723379.
          There are     1 degrees of freedom in the 1st order CPHF.  IDoFFX=0 NUNeed=     1.
 LinEq1:  Iter=  0 NonCon=     1 RMS=4.57D-03 Max=1.07D-01 NDo=     1
 AX will form     1 AO Fock derivatives at one time.
 LinEq1:  Iter=  1 NonCon=     1 RMS=1.54D-03 Max=2.73D-02 NDo=     1
 LinEq1:  Iter=  2 NonCon=     1 RMS=6.42D-04 Max=1.80D-02 NDo=     1
 LinEq1:  Iter=  3 NonCon=     1 RMS=2.81D-04 Max=8.23D-03 NDo=     1
 LinEq1:  Iter=  4 NonCon=     1 RMS=8.73D-05 Max=1.95D-03 NDo=     1
 LinEq1:  Iter=  5 NonCon=     1 RMS=3.64D-05 Max=1.79D-03 NDo=     1
 LinEq1:  Iter=  6 NonCon=     1 RMS=1.41D-05 Max=5.36D-04 NDo=     1
 LinEq1:  Iter=  7 NonCon=     1 RMS=5.39D-06 Max=9.92D-05 NDo=     1
 LinEq1:  Iter=  8 NonCon=     1 RMS=2.15D-06 Max=5.21D-05 NDo=     1
[...]
    17  H    3.463942   0.000000
    18  H    4.088381   2.235813   0.000000
    19  H    2.990895   4.303512   3.511886   0.000000
    20  H    4.375311   4.449374   2.881991   1.768531   0.000000
    21  H    5.096758   6.511362   5.086537   2.499209   2.521042
    22  H    5.248870   6.100615   4.313293   3.070232   2.461443
    23  H    3.695129   6.235104   5.421218   2.704224   3.842913
    24  H    5.133934   7.200938   5.936711   3.849630   4.317091
    25  H    3.821517   6.088314   5.369725   4.171535   4.985042
    26  H    4.495279   5.781286   4.485311   4.036038   4.182293
    27  H    1.089677   4.215391   5.079422   3.583592   5.148152
                   21         22         23         24         25
    21  H    0.000000
    22  H    1.758862   0.000000
    23  H    2.469442   3.062273   0.000000
    24  H    2.517316   2.459875   1.764577   0.000000
    25  H    4.312004   3.839510   2.444108   2.519698   0.000000
    26  H    3.846729   2.704384   3.060443   2.491735   1.767982
    27  H    5.653196   6.060623   4.090582   5.694862   4.454423
                   26         27
    26  H    0.000000
    27  H    5.378560   0.000000
 Symmetry turned off by external request.
 Stoichiometry    C9H13N3O2
 Framework group  C1[X(C9H13N3O2)]
 Deg. of freedom    75
 Full point group                 C1      NOp   1
 Rotational constants (GHZ):           1.6800534           0.4193406           0.3721386

 **********************************************************************

            Population analysis using the SCF Density.

 **********************************************************************

 Alpha  occ. eigenvalues --  -20.59237 -20.58904 -15.84722 -15.64136 -15.56111
 Alpha  occ. eigenvalues --  -11.35018 -11.29622 -11.29559 -11.28627 -11.27134
 Alpha  occ. eigenvalues --  -11.23728 -11.23208 -11.22692 -11.22089  -1.57116
 Alpha  occ. eigenvalues --   -1.36710  -1.30977  -1.23064  -1.14703  -1.09819
 Alpha  occ. eigenvalues --   -1.02805  -1.01308  -0.94482  -0.89684  -0.85566
 Alpha  occ. eigenvalues --   -0.82448  -0.78609  -0.77411  -0.75203  -0.72020
 Alpha  occ. eigenvalues --   -0.69771  -0.69438  -0.67820  -0.64892  -0.63777
 Alpha  occ. eigenvalues --   -0.62367  -0.60281  -0.57700  -0.57001  -0.55077
 Alpha  occ. eigenvalues --   -0.54582  -0.50762  -0.50108  -0.48656  -0.48102
 Alpha  occ. eigenvalues --   -0.47372  -0.46147  -0.46045  -0.43678  -0.41695
 Alpha  occ. eigenvalues --   -0.39847  -0.33829
 Alpha virt. eigenvalues --    0.07464   0.11800   0.17307   0.21848   0.24113
 Alpha virt. eigenvalues --    0.25665   0.27134   0.28694   0.29044   0.29635
 Alpha virt. eigenvalues --    0.30683   0.31798   0.32036   0.32767   0.33950
 Alpha virt. eigenvalues --    0.34386   0.35850   0.37312   0.38581   0.40293
 Alpha virt. eigenvalues --    0.41388   0.42443   0.45025   0.46117   0.46731
 Alpha virt. eigenvalues --    0.47077   0.48999   0.53996   0.57579   0.59405
 Alpha virt. eigenvalues --    0.63913   0.69543   0.69909   0.72860   0.74243
 Alpha virt. eigenvalues --    0.74867   0.75781   0.76677   0.78660   0.79442
 Alpha virt. eigenvalues --    0.81386   0.84692   0.85718   0.85806   0.88530
 Alpha virt. eigenvalues --    0.89424   0.91051   0.92113   0.92854   0.94527
 Alpha virt. eigenvalues --    0.95643   0.98039   0.99638   1.01675   1.02471
 Alpha virt. eigenvalues --    1.03152   1.05872   1.06969   1.07901   1.09014
 Alpha virt. eigenvalues --    1.10283   1.11421   1.11855   1.12443   1.13916
 Alpha virt. eigenvalues --    1.14766   1.14990   1.15831   1.16903   1.18726
 Alpha virt. eigenvalues --    1.19137   1.21337   1.22576   1.23915   1.24537
 Alpha virt. eigenvalues --    1.24828   1.26039   1.26911   1.27486   1.29557
 Alpha virt. eigenvalues --    1.30008   1.33127   1.36070   1.37181   1.40860
 Alpha virt. eigenvalues --    1.41853   1.46493   1.48740   1.51700   1.54293
 Alpha virt. eigenvalues --    1.56373   1.58780   1.59555   1.63464   1.65626
 Alpha virt. eigenvalues --    1.68031   1.68626   1.72993   1.75223   1.77371
 Alpha virt. eigenvalues --    1.81580   1.84600   1.87685   1.90653   1.93494
 Alpha virt. eigenvalues --    1.95815   1.96956   1.99718   2.01572   2.02522
 Alpha virt. eigenvalues --    2.05102   2.05606   2.08497   2.09559   2.12394
 Alpha virt. eigenvalues --    2.13263   2.15296   2.18824   2.20014   2.22452
 Alpha virt. eigenvalues --    2.22637   2.24492   2.25493   2.28215   2.29547
 Alpha virt. eigenvalues --    2.31994   2.33724   2.34701   2.36399   2.38464
 Alpha virt. eigenvalues --    2.40482   2.41927   2.43867   2.45135   2.47363
 Alpha virt. eigenvalues --    2.50721   2.51947   2.53114   2.55574   2.61505
 Alpha virt. eigenvalues --    2.62310   2.65193   2.67626   2.70316   2.70495
 Alpha virt. eigenvalues --    2.72271   2.72649   2.76984   2.78441   2.83805
 Alpha virt. eigenvalues --    2.88567   2.88948   2.92944   2.93136   2.96058
 Alpha virt. eigenvalues --    2.99439   3.01343   3.04315   3.05726   3.07677
 Alpha virt. eigenvalues --    3.09415   3.15047   3.21213   3.25217   3.27458
 Alpha virt. eigenvalues --    3.33446   3.37785   3.38785   3.52168   3.65801
 Alpha virt. eigenvalues --    4.13677   4.28074   4.34717   4.38923   4.46296
 Alpha virt. eigenvalues --    4.56308   4.61872   4.62353   4.73464   4.79740
 Alpha virt. eigenvalues --    4.99415   5.00898   5.05023   5.11165
          Condensed to atoms (all electrons):
               1          2          3          4          5          6
     1  O    8.316126   0.306961  -0.082535  -0.085468   0.004639  -0.000016
     2  N    0.306961   5.722351   0.301245   0.264168  -0.053642   0.000970
     3  O   -0.082535   0.301245   8.353643  -0.092669   0.003637   0.000785
     4  C   -0.085468   0.264168  -0.092669   5.225611   0.560350  -0.047282
     5  C    0.004639  -0.053642   0.003637   0.560350   4.709991   0.317419
     6  N   -0.000016   0.000970   0.000785  -0.047282   0.317419   7.195588
     7  C    0.000004  -0.000140   0.000002   0.004629  -0.030203   0.169266
     8  H   -0.000000   0.000002  -0.000000  -0.000261   0.003095  -0.050673
     9  C   -0.000000  -0.000004  -0.000000   0.000855   0.000626  -0.061648
    10  C    0.000000   0.000000   0.000000  -0.000038  -0.000052   0.003748
    11  C   -0.000000  -0.000000  -0.000000  -0.000028   0.000025  -0.000190
    12  C   -0.000000   0.000002  -0.000000  -0.000127  -0.000176   0.003873
    13  C   -0.000025  -0.000039  -0.000004  -0.011556  -0.000585  -0.047695
    14  H   -0.000004  -0.000105   0.000001   0.002645   0.006077  -0.006959
    15  N    0.000382   0.002363  -0.000016  -0.063522  -0.006400   0.001598
    16  C    0.000839  -0.027276   0.002548   0.328494  -0.050331  -0.001856
    17  H    0.000220  -0.007232   0.017390  -0.023143   0.374513  -0.034184
    18  H    0.000001  -0.000050   0.000012   0.001506  -0.031446   0.338680
    19  H    0.000001  -0.000004   0.000000  -0.001225   0.001232  -0.000352
    20  H    0.000000  -0.000000   0.000000  -0.000079   0.000153  -0.000429
    21  H   -0.000000   0.000000   0.000000   0.000001   0.000001  -0.000077
    22  H   -0.000000   0.000000  -0.000000  -0.000000  -0.000003  -0.000117
    23  H    0.000000  -0.000000   0.000000   0.000040  -0.000000  -0.000031
    24  H    0.000000   0.000000   0.000000   0.000000  -0.000000   0.000006
    25  H    0.000000  -0.000000   0.000000   0.000024   0.000000  -0.000090
    26  H    0.000000  -0.000000   0.000000   0.000006  -0.000002  -0.000060
    27  H    0.006127  -0.000880   0.000018  -0.063397   0.002214   0.000017
               7          8          9         10         11         12
     1  O    0.000004  -0.000000  -0.000000   0.000000  -0.000000  -0.000000
     2  N   -0.000140   0.000002  -0.000004   0.000000  -0.000000   0.000002
     3  O    0.000002  -0.000000  -0.000000   0.000000  -0.000000  -0.000000
     4  C    0.004629  -0.000261   0.000855  -0.000038  -0.000028  -0.000127
     5  C   -0.030203   0.003095   0.000626  -0.000052   0.000025  -0.000176
     6  N    0.169266  -0.050673  -0.061648   0.003748  -0.000190   0.003873
     7  C    5.017554   0.418416   0.350530  -0.054667  -0.009029  -0.061073
     8  H    0.418416   0.538091  -0.055047   0.000777  -0.000325  -0.002229
     9  C    0.350530  -0.055047   5.158233   0.324775  -0.050417  -0.005343
    10  C   -0.054667   0.000777   0.324775   5.119311   0.337000  -0.060991
    11  C   -0.009029  -0.000325  -0.050417   0.337000   5.119919   0.335974
    12  C   -0.061073  -0.002229  -0.005343  -0.060991   0.335974   5.118625
    13  C    0.338600  -0.037935  -0.060240  -0.000286  -0.050689   0.371990
    14  H   -0.046594  -0.000746   0.004423  -0.000405   0.004195  -0.036322
    15  N   -0.057958   0.003900  -0.014615   0.001561  -0.013051  -0.082053
    16  C   -0.001774   0.000009  -0.001270  -0.000029   0.000029   0.002607
    17  H    0.001616  -0.000045  -0.000070   0.000001   0.000000   0.000000
    18  H   -0.021215  -0.004473   0.001327  -0.000083   0.000004  -0.000114
    19  H   -0.036855   0.004362   0.390222  -0.032070  -0.002212   0.000689
    20  H   -0.042414  -0.002077   0.399486  -0.035303   0.003931  -0.000415
    21  H    0.004598  -0.000076  -0.036354   0.402433  -0.034896   0.004349
    22  H   -0.004847   0.003559  -0.046955   0.397752  -0.045404  -0.001021
    23  H    0.000577   0.000035  -0.001958  -0.039020   0.399178  -0.037864
    24  H   -0.000130  -0.000102   0.004389  -0.038439   0.402340  -0.038689
    25  H    0.005152  -0.000025  -0.000423   0.004190  -0.033399   0.398272
    26  H   -0.003906   0.001685   0.000969  -0.002232  -0.041481   0.396729
    27  H   -0.000407   0.000009  -0.000058   0.000007   0.000012  -0.000036
              13         14         15         16         17         18
     1  O   -0.000025  -0.000004   0.000382   0.000839   0.000220   0.000001
     2  N   -0.000039  -0.000105   0.002363  -0.027276  -0.007232  -0.000050
     3  O   -0.000004   0.000001  -0.000016   0.002548   0.017390   0.000012
     4  C   -0.011556   0.002645  -0.063522   0.328494  -0.023143   0.001506
     5  C   -0.000585   0.006077  -0.006400  -0.050331   0.374513  -0.031446
     6  N   -0.047695  -0.006959   0.001598  -0.001856  -0.034184   0.338680
     7  C    0.338600  -0.046594  -0.057958  -0.001774   0.001616  -0.021215
     8  H   -0.037935  -0.000746   0.003900   0.000009  -0.000045  -0.004473
     9  C   -0.060240   0.004423  -0.014615  -0.001270  -0.000070   0.001327
    10  C   -0.000286  -0.000405   0.001561  -0.000029   0.000001  -0.000083
    11  C   -0.050689   0.004195  -0.013051   0.000029   0.000000   0.000004
    12  C    0.371990  -0.036322  -0.082053   0.002607   0.000000  -0.000114
    13  C    5.040230   0.403081   0.244780  -0.071082  -0.000008   0.002971
    14  H    0.403081   0.526782  -0.037372  -0.004538   0.000093  -0.000108
    15  N    0.244780  -0.037372   6.965123   0.585193  -0.000080  -0.000132
    16  C   -0.071082  -0.004538   0.585193   4.709928   0.002013  -0.000197
    17  H   -0.000008   0.000093  -0.000080   0.002013   0.376491  -0.002818
    18  H    0.002971  -0.000108  -0.000132  -0.000197  -0.002818   0.310600
    19  H   -0.007547   0.000106   0.007695   0.003001   0.000016  -0.000149
    20  H    0.004340  -0.000066   0.000126  -0.000036   0.000002   0.000807
    21  H   -0.000433   0.000010  -0.000041   0.000004  -0.000000   0.000001
    22  H    0.000045  -0.000055   0.000019  -0.000002   0.000000   0.000001
    23  H   -0.007522   0.000003   0.008589   0.000106   0.000000   0.000000
    24  H    0.004699  -0.000057   0.000135   0.000007   0.000000  -0.000000
    25  H   -0.035562  -0.002817   0.000410  -0.000022  -0.000000   0.000002
    26  H   -0.047409  -0.001046   0.004899  -0.000061   0.000000  -0.000000
    27  H    0.005059  -0.000174  -0.040314   0.403670  -0.000079   0.000001
              19         20         21         22         23         24
     1  O    0.000001   0.000000  -0.000000  -0.000000   0.000000   0.000000
     2  N   -0.000004  -0.000000   0.000000   0.000000  -0.000000   0.000000
     3  O    0.000000   0.000000   0.000000  -0.000000   0.000000   0.000000
     4  C   -0.001225  -0.000079   0.000001  -0.000000   0.000040   0.000000
     5  C    0.001232   0.000153   0.000001  -0.000003  -0.000000  -0.000000
     6  N   -0.000352  -0.000429  -0.000077  -0.000117  -0.000031   0.000006
     7  C   -0.036855  -0.042414   0.004598  -0.004847   0.000577  -0.000130
     8  H    0.004362  -0.002077  -0.000076   0.003559   0.000035  -0.000102
     9  C    0.390222   0.399486  -0.036354  -0.046955  -0.001958   0.004389
    10  C   -0.032070  -0.035303   0.402433   0.397752  -0.039020  -0.038439
    11  C   -0.002212   0.003931  -0.034896  -0.045404   0.399178   0.402340
    12  C    0.000689  -0.000415   0.004349  -0.001021  -0.037864  -0.038689
    13  C   -0.007547   0.004340  -0.000433   0.000045  -0.007522   0.004699
    14  H    0.000106  -0.000066   0.000010  -0.000055   0.000003  -0.000057
    15  N    0.007695   0.000126  -0.000041   0.000019   0.008589   0.000135
    16  C    0.003001  -0.000036   0.000004  -0.000002   0.000106   0.000007
    17  H    0.000016   0.000002  -0.000000   0.000000   0.000000   0.000000
    18  H   -0.000149   0.000807   0.000001   0.000001   0.000000  -0.000000
    19  H    0.504947  -0.024738  -0.002787   0.003959   0.001514  -0.000066
    20  H   -0.024738   0.541161  -0.002692  -0.002990  -0.000045  -0.000083
    21  H   -0.002787  -0.002692   0.524023  -0.027403  -0.002898  -0.002242
    22  H    0.003959  -0.002990  -0.027403   0.571322   0.004137  -0.003656
    23  H    0.001514  -0.000045  -0.002898   0.004137   0.498963  -0.025451
    24  H   -0.000066  -0.000083  -0.002242  -0.003656  -0.025451   0.538125
    25  H   -0.000029   0.000012  -0.000087  -0.000080  -0.002318  -0.002291
    26  H    0.000019  -0.000030  -0.000081   0.002380   0.004067  -0.003035
    27  H    0.000083   0.000000  -0.000000   0.000000  -0.000035  -0.000000
              25         26         27
     1  O    0.000000   0.000000   0.006127
     2  N   -0.000000  -0.000000  -0.000880
     3  O    0.000000   0.000000   0.000018
     4  C    0.000024   0.000006  -0.063397
     5  C    0.000000  -0.000002   0.002214
     6  N   -0.000090  -0.000060   0.000017
     7  C    0.005152  -0.003906  -0.000407
     8  H   -0.000025   0.001685   0.000009
     9  C   -0.000423   0.000969  -0.000058
    10  C    0.004190  -0.002232   0.000007
    11  C   -0.033399  -0.041481   0.000012
    12  C    0.398272   0.396729  -0.000036
    13  C   -0.035562  -0.047409   0.005059
    14  H   -0.002817  -0.001046  -0.000174
    15  N    0.000410   0.004899  -0.040314
    16  C   -0.000022  -0.000061   0.403670
    17  H   -0.000000   0.000000  -0.000079
    18  H    0.000002  -0.000000   0.000001
    19  H   -0.000029   0.000019   0.000083
    20  H    0.000012  -0.000030   0.000000
    21  H   -0.000087  -0.000081  -0.000000
    22  H   -0.000080   0.002380   0.000000
    23  H   -0.002318   0.004067  -0.000035
    24  H   -0.002291  -0.003035  -0.000000
    25  H    0.506112  -0.024081  -0.000013
    26  H   -0.024081   0.562320   0.000001
    27  H   -0.000013   0.000001   0.439266
 Mulliken charges:
               1
     1  O   -0.467251
     2  N    0.491310
     3  O   -0.504056
     4  C    0.000465
     5  C    0.188868
     6  N   -0.780292
     7  C    0.060272
     8  H    0.180075
     9  C   -0.301432
    10  C   -0.327939
    11  C   -0.321487
    12  C   -0.306658
    13  C   -0.037177
    14  H    0.189953
    15  N   -0.511221
    16  C    0.120027
    17  H    0.295302
    18  H    0.404871
    19  H    0.190187
    20  H    0.161381
    21  H    0.174648
    22  H    0.149360
    23  H    0.199934
    24  H    0.164540
    25  H    0.187062
    26  H    0.150349
    27  H    0.248909
 Sum of Mulliken charges =  -0.00000
 Mulliken charges with hydrogens summed into heavy atoms:
               1
     1  O   -0.467251
     2  N    0.491310
     3  O   -0.504056
     4  C    0.000465
     5  C    0.484171
     6  N   -0.375420
     7  C    0.240347
     9  C    0.050136
    10  C   -0.003931
    11  C    0.042986
    12  C    0.030753
    13  C    0.152776
    15  N   -0.511221
    16  C    0.368936
 Electronic spatial extent (au):  <R**2>=           3005.3591
 Charge=             -0.0000 electrons
 Dipole moment (field-independent basis, Debye):
    X=              5.4160    Y=              4.7962    Z=              1.2793  Tot=              7.3466
 Quadrupole moment (field-independent basis, Debye-Ang):
   XX=           -106.1391   YY=            -79.2238   ZZ=            -81.5022
   XY=             -1.7654   XZ=             -0.1295   YZ=              1.8560
 Traceless Quadrupole moment (field-independent basis, Debye-Ang):
   XX=            -17.1841   YY=              9.7312   ZZ=              7.4528
   XY=             -1.7654   XZ=             -0.1295   YZ=              1.8560
 Octapole moment (field-independent basis, Debye-Ang**2):
  XXX=             92.4012  YYY=             36.2851  ZZZ=             -1.5057  XYY=             -4.5768
  XXY=              9.5302  XXZ=              4.9050  XZZ=             -9.7603  YZZ=             -0.3985
  YYZ=              7.9781  XYZ=              0.2501
 Hexadecapole moment (field-independent basis, Debye-Ang**3):
 XXXX=          -3382.0693 YYYY=           -601.0154 ZZZZ=           -303.8198 XXXY=            -20.8813
 XXXZ=            -13.3278 YYYX=             -8.9364 YYYZ=             25.0470 ZZZX=              1.9686
 ZZZY=              7.1322 XXYY=           -627.7716 XXZZ=           -523.7997 YYZZ=           -157.3349
 XXYZ=             -4.2542 YYXZ=              1.7276 ZZXY=              4.6980
 N-N= 9.312341596904D+02 E-N=-3.409184754818D+03  KE= 6.596289161606D+02
 Unable to Open any file for archive entry.
 1\1\GINC-LOTUS\FOpt\RMP2-FC\6-31G(d)\C9H13N3O2\ALEXEY\01-Jul-2023\0\\#
 MP2/6-31G* SCF=Tight Opt=(ModRedun, MaxCycle=20 ) NoSymm\\MolName:\\0,
 1\O,-3.5068714593,-1.3904424698,-0.3702612877\N,-3.1211188772,-0.23226
 19733,-0.1180462122\O,-3.8953432395,0.7288315191,0.0559149947\C,-1.686
 6878282,-0.0237671242,-0.0094002013\C,-1.3013907898,1.2607633922,0.275
 1830175\N,-0.0571230457,1.7503172839,0.3858867224\C,1.2056804801,1.024
 1126854,0.3589478818\H,1.8535249426,1.5532683151,1.07410798\C,1.909060
 3854,1.034722351,-0.9969576904\C,3.307446082,0.4280891177,-0.832829457
 \C,3.2594687799,-0.9677998173,-0.205781692\C,2.4645932439,-0.977940624
 2,1.10176816\C,1.0548544874,-0.4243121151,0.8652651384\H,0.4783996292,
 -0.4026467412,1.8037277131\N,0.4081700574,-1.3179476408,-0.0905825316\
 C,-0.8392046225,-1.1382454095,-0.3858806577\H,-2.0961103157,1.98776190
 1,0.4185831018\H,0.0017895747,2.7355581059,0.6147360843\H,1.3147407973
 ,0.4570531041,-1.7129056013\H,1.9750435364,2.0625261221,-1.3750294926\
 H,3.8113284324,0.3896545431,-1.8053888166\H,3.9073060842,1.094584391,-
 0.1968309426\H,2.7817065091,-1.6647946516,-0.9013641551\H,4.2786446319
 ,-1.3312760858,-0.028624521\H,2.3791717161,-1.9997269551,1.4859883085\
 H,2.9746364694,-0.3798302661,1.8695480334\H,-1.3007156615,-1.893240957
 7,-1.0217938768\\Version=ES64L-G16RevC.02\HF=-661.3003628\MP2=-663.334
 6494\RMSD=7.177e-09\RMSF=9.141e-06\Dipole=1.9792848,1.691942,0.4705142
 \PG=C01 [X(C9H13N3O2)]\\@
 The archive entry for this job was punched.


 "WOULD YOU TELL ME PLEASE, WHICH WAY I OUGHT TO WALK FROM HERE?"
 "THAT DEPENDS A GREAT DEAL ON WHERE YOU WANT TO GO," SAID THE CAT.
 "I DON'T MUCH CARE WHERE -- ", SAID ALICE.
 "THEN IT DOESN'T MATTER WHICH WAY YOU WALK," SAID THE CAT.

                                      -- LEWIS CARROLL
 Job cpu time:       0 days  1 hours 24 minutes 11.2 seconds.
 Elapsed time:       0 days  0 hours 25 minutes 30.1 seconds.
 File lengths (MBytes):  RWF=     36 Int=      0 D2E=      0 Chk=      7 Scr=      1
 Normal termination of Gaussian 16 at Sat Jul  1 14:05:08 2023.
