 Entering Gaussian System, Link 0=g16
 Initial command:
 /home/alexey/programs//g16/l1.exe "/home/alexey/tmp/Gau-1335744.inp" -scrdir="/home/alexey/tmp/"
 Entering Link 1 = /home/alexey/programs//g16/l1.exe PID=   1335746.
  
 Copyright (c) 1988-2021, Gaussian, Inc.  All Rights Reserved.
  
 This is part of the Gaussian(R) 16 program.  It is based on
 the Gaussian(R) 09 system (copyright 2009, Gaussian, Inc.),
 the Gaussian(R) 03 system (copyright 2003, Gaussian, Inc.),
 the Gaussian(R) 98 system (copyright 1998, Gaussian, Inc.),
 the Gaussian(R) 94 system (copyright 1995, Gaussian, Inc.),
 the Gaussian 92(TM) system (copyright 1992, Gaussian, Inc.),
 the Gaussian 90(TM) system (copyright 1990, Gaussian, Inc.),
 the Gaussian 88(TM) system (copyright 1988, Gaussian, Inc.),
 the Gaussian 86(TM) system (copyright 1986, Carnegie Mellon
 University), and the Gaussian 82(TM) system (copyright 1983,
 Carnegie Mellon University). Gaussian is a federally registered
 trademark of Gaussian, Inc.
  
 This software contains proprietary and confidential information,
 including trade secrets, belonging to Gaussian, Inc.
  
 This software is provided under written license and may be
 used, copied, transmitted, or stored only in accord with that
 written license.
  
 The following legend is applicable only to US Government
 contracts under FAR:
  
                    RESTRICTED RIGHTS LEGEND
  
 Use, reproduction and disclosure by the US Government is
 subject to restrictions as set forth in subparagraphs (a)
 and (c) of the Commercial Computer Software - Restricted
 Rights clause in FAR 52.227-19.
  
 Gaussian, Inc.
 340 Quinnipiac St., Bldg. 40, Wallingford CT 06492
  
  
 ---------------------------------------------------------------
 Warning -- This program may not be used in any manner that
 competes with the business of Gaussian, Inc. or will provide
 assistance to any competitor of Gaussian, Inc.  The licensee
 of this program is prohibited from giving any competitor of
 Gaussian, Inc. access to this program.  By using this program,
 the user acknowledges that Gaussian, Inc. is engaged in the
 business of creating and licensing software in the field of
 computational chemistry and represents and warrants to the
 licensee that it is not a competitor of Gaussian, Inc. and that
 it will not use this program in any manner prohibited above.
 ---------------------------------------------------------------
  

 Cite this work as:
 Gaussian 16, Revision C.02,
 M. J. Frisch, G. W. Trucks, H. B. Schlegel, G. E. Scuseria, 
 M. A. Robb, J. R. Cheeseman, G. Scalmani, V. Barone, 
 G. A. Petersson, H. Nakatsuji, X. Li, M. Caricato, A. V. Marenich, 
 J. Bloino, B. G. Janesko, R. Gomperts, B. Mennucci, H. P. Hratchian, 
 J. V. Ortiz, A. F. Izmaylov, J. L. Sonnenberg, D. Williams-Young, 
 F. Ding, F. Lipparini, F. Egidi, J. Goings, B. Peng, A. Petrone, 
 T. Henderson, D. Ranasinghe, V. G. Zakrzewski, J. Gao, N. Rega, 
 G. Zheng, W. Liang, M. Hada, M. Ehara, K. Toyota, R. Fukuda, 
 J. Hasegawa, M. Ishida, T. Nakajima, Y. Honda, O. Kitao, H. Nakai, 
 T. Vreven, K. Throssell, J. A. Montgomery, Jr., J. E. Peralta, 
 F. Ogliaro, M. J. Bearpark, J. J. Heyd, E. N. Brothers, K. N. Kudin, 
 V. N. Staroverov, T. A. Keith, R. Kobayashi, J. Normand, 
 K. Raghavachari, A. P. Rendell, J. C. Burant, S. S. Iyengar, 
 J. Tomasi, M. Cossi, J. M. Millam, M. Klene, C. Adamo, R. Cammi, 
 J. W. Ochterski, R. L. Martin, K. Morokuma, O. Farkas, 
 J. B. Foresman, and D. J. Fox, Gaussian, Inc., Wallingford CT, 2019.
 
 ******************************************
 Gaussian 16:  ES64L-G16RevC.02  7-Dec-2021
                 1-Jul-2023 
 ******************************************
 %mem=8GB
 %NPROCS=4
 Will use up to    4 processors via shared memory.
 %NoSave
 ---------------------------------------------------------
 #MP2/6-31G* SCF=Tight Opt=(ModRedun, MaxCycle=20 ) NoSymm
 ---------------------------------------------------------
 1/6=20,18=120,19=15,38=1/1,3;
 2/9=110,12=2,15=1,17=6,18=5,40=1/2;
 3/5=1,6=6,7=1,11=9,25=1,30=1,71=1/1,2,3;
 4//1;
 5/5=2,32=2,38=5/2;
 8/6=4,10=2/1;
 9/15=2,16=-3/6;
 10/5=1,31=1/2;
 6/7=2,8=2,9=2,10=2/1;
 7/12=2,30=1/1,2,3,16;
 1/6=20,18=20,19=15/3(2);
 2/9=110,15=1/2;
 99//99;
 2/9=110,15=1/2;
 3/5=1,6=6,7=1,11=9,25=1,30=1,71=1/1,2,3;
 4/5=5,16=3,69=1/1;
 5/5=2,32=2,38=5/2;
 8/6=4,10=2/1;
 9/15=2,16=-3/6;
 10/5=1,31=1/2;
 7/12=2,30=1/1,2,3,16;
 1/6=20,18=20,19=15/3(-8);
 2/9=110,15=1/2;
 6/7=2,8=2,9=2,10=2/1;
 99/9=10/99;
 --------
 MolName:
 --------
 Symbolic Z-matrix:
 Charge =  0 Multiplicity = 1
 8                    0    -3.60079  -1.47988  -0.17631 
 7                    0    -3.25804  -0.3105   -0.00829 
 8                    0    -4.04721   0.61521   0.17962 
 6                    0    -1.77032   0.01993  -0.03674 
 6                    0    -1.36597   1.32184   0.2788 
 7                    0    -0.07603   1.77751   0.37354 
 6                    0     1.20045   1.00141   0.35245 
 1                    0     1.86105   1.49659   1.11088 
 6                    0     1.97496   1.04928  -0.98827 
 6                    0     3.38225   0.45492  -0.78886 
 6                    0     3.30781  -0.96106  -0.19596 
 6                    0     2.44972  -0.99084   1.08735 
 6                    0     1.01787  -0.44544   0.83207 
 1                    0     0.4628   -0.48252   1.79873 
 7                    0     0.36355  -1.30711  -0.15417 
 6                    0    -0.87451  -1.0923   -0.45906 
 1                    0    -2.15022   2.05854   0.51964 
 1                    0     0.15654   2.757     0.19253 
 1                    0     1.42819   0.47648  -1.76723 
 1                    0     2.06981   2.09908  -1.33838 
 1                    0     3.92405   0.42859  -1.75959 
 1                    0     3.95783   1.105    -0.09261 
 1                    0     2.86197  -1.64716  -0.95114 
 1                    0     4.33198  -1.33113   0.02834 
 1                    0     2.38197  -2.03724   1.45774 
 1                    0     2.94224  -0.38396   1.8758 
 1                    0    -1.36996  -1.82721  -1.11189 
 
 The following ModRedundant input section has been read:
 A       2       4       5 F                                                   
 D       1       2       4      16 F                                           
 D       7      13      15      16 F                                           
 D       7       9      10      11 F                                           
 D       9      10      11      12 F                                           
 D       6       7      13      15 F                                           
 

 GradGradGradGradGradGradGradGradGradGradGradGradGradGradGradGradGradGrad
 Berny optimization.
 Initialization pass.
                           ----------------------------
                           !    Initial Parameters    !
                           ! (Angstroms and Degrees)  !
 --------------------------                            --------------------------
 ! Name  Definition              Value          Derivative Info.                !
 --------------------------------------------------------------------------------
 ! R1    R(1,2)                  1.2301         estimate D2E/DX2                !
 ! R2    R(2,3)                  1.2309         estimate D2E/DX2                !
 ! R3    R(2,4)                  1.5242         estimate D2E/DX2                !
 ! R4    R(4,5)                  1.3993         estimate D2E/DX2                !
 ! R5    R(4,16)                 1.4893         estimate D2E/DX2                !
 ! R6    R(5,6)                  1.3713         estimate D2E/DX2                !
 ! R7    R(5,17)                 1.1026         estimate D2E/DX2                !
 ! R8    R(6,7)                  1.494          estimate D2E/DX2                !
 ! R9    R(6,18)                 1.0229         estimate D2E/DX2                !
 ! R10   R(7,8)                  1.1211         estimate D2E/DX2                !
 ! R11   R(7,9)                  1.5491         estimate D2E/DX2                !
 ! R12   R(7,13)                 1.5352         estimate D2E/DX2                !
 ! R13   R(9,10)                 1.5406         estimate D2E/DX2                !
 ! R14   R(9,19)                 1.1108         estimate D2E/DX2                !
 ! R15   R(9,20)                 1.1107         estimate D2E/DX2                !
 ! R16   R(10,11)                1.5369         estimate D2E/DX2                !
 ! R17   R(10,21)                1.112          estimate D2E/DX2                !
 ! R18   R(10,22)                1.113          estimate D2E/DX2                !
 ! R19   R(11,12)                1.544          estimate D2E/DX2                !
 ! R20   R(11,23)                1.1135         estimate D2E/DX2                !
 ! R21   R(11,24)                1.1118         estimate D2E/DX2                !
 ! R22   R(12,13)                1.5533         estimate D2E/DX2                !
 ! R23   R(12,25)                1.1121         estimate D2E/DX2                !
 ! R24   R(12,26)                1.1102         estimate D2E/DX2                !
 ! R25   R(13,14)                1.1153         estimate D2E/DX2                !
 ! R26   R(13,15)                1.464          estimate D2E/DX2                !
 ! R27   R(15,16)                1.293          estimate D2E/DX2                !
 ! R28   R(16,27)                1.1008         estimate D2E/DX2                !
 ! A1    A(1,2,3)              123.8595         estimate D2E/DX2                !
 ! A2    A(1,2,4)              118.3914         estimate D2E/DX2                !
 ! A3    A(3,2,4)              117.749          estimate D2E/DX2                !
 ! A4    A(2,4,5)              118.6547         Frozen                          !
 ! A5    A(2,4,16)             115.499          estimate D2E/DX2                !
 ! A6    A(5,4,16)             125.802          estimate D2E/DX2                !
 ! A7    A(4,5,6)              126.6232         estimate D2E/DX2                !
 ! A8    A(4,5,17)             117.7334         estimate D2E/DX2                !
 ! A9    A(6,5,17)             115.5909         estimate D2E/DX2                !
 ! A10   A(5,6,7)              129.0563         estimate D2E/DX2                !
 ! A11   A(5,6,18)             121.3216         estimate D2E/DX2                !
 ! A12   A(7,6,18)             107.4981         estimate D2E/DX2                !
 ! A13   A(6,7,8)              105.3343         estimate D2E/DX2                !
 ! A14   A(6,7,9)              115.0452         estimate D2E/DX2                !
 ! A15   A(6,7,13)             112.554          estimate D2E/DX2                !
 ! A16   A(8,7,9)              106.0965         estimate D2E/DX2                !
 ! A17   A(8,7,13)             105.9627         estimate D2E/DX2                !
 ! A18   A(9,7,13)             111.0378         estimate D2E/DX2                !
 ! A19   A(7,9,10)             109.4365         estimate D2E/DX2                !
 ! A20   A(7,9,19)             110.1756         estimate D2E/DX2                !
 ! A21   A(7,9,20)             110.1647         estimate D2E/DX2                !
 ! A22   A(10,9,19)            109.9662         estimate D2E/DX2                !
 ! A23   A(10,9,20)            109.1131         estimate D2E/DX2                !
 ! A24   A(19,9,20)            107.9618         estimate D2E/DX2                !
 ! A25   A(9,10,11)            111.1696         estimate D2E/DX2                !
 ! A26   A(9,10,21)            109.9504         estimate D2E/DX2                !
 ! A27   A(9,10,22)            109.1498         estimate D2E/DX2                !
 ! A28   A(11,10,21)           109.7885         estimate D2E/DX2                !
 ! A29   A(11,10,22)           108.7754         estimate D2E/DX2                !
 ! A30   A(21,10,22)           107.9365         estimate D2E/DX2                !
 ! A31   A(10,11,12)           111.4271         estimate D2E/DX2                !
 ! A32   A(10,11,23)           108.9931         estimate D2E/DX2                !
 ! A33   A(10,11,24)           109.8687         estimate D2E/DX2                !
 ! A34   A(12,11,23)           109.2256         estimate D2E/DX2                !
 ! A35   A(12,11,24)           109.7447         estimate D2E/DX2                !
 ! A36   A(23,11,24)           107.4916         estimate D2E/DX2                !
 ! A37   A(11,12,13)           111.6487         estimate D2E/DX2                !
 ! A38   A(11,12,25)           109.1972         estimate D2E/DX2                !
 ! A39   A(11,12,26)           109.4616         estimate D2E/DX2                !
 ! A40   A(13,12,25)           109.2055         estimate D2E/DX2                !
 ! A41   A(13,12,26)           109.4947         estimate D2E/DX2                !
 ! A42   A(25,12,26)           107.749          estimate D2E/DX2                !
 ! A43   A(7,13,12)            105.8209         estimate D2E/DX2                !
 ! A44   A(7,13,14)            111.1804         estimate D2E/DX2                !
 ! A45   A(7,13,15)            113.4159         estimate D2E/DX2                !
 ! A46   A(12,13,14)           107.737          estimate D2E/DX2                !
 ! A47   A(12,13,15)           108.4238         estimate D2E/DX2                !
 ! A48   A(14,13,15)           109.9912         estimate D2E/DX2                !
 ! A49   A(13,15,16)           119.2757         estimate D2E/DX2                !
 ! A50   A(4,16,15)            129.2832         estimate D2E/DX2                !
 ! A51   A(4,16,27)            113.3312         estimate D2E/DX2                !
 ! A52   A(15,16,27)           117.3795         estimate D2E/DX2                !
 ! D1    D(1,2,4,5)           -174.0207         estimate D2E/DX2                !
 ! D2    D(1,2,4,16)             8.2587         Frozen                          !
 ! D3    D(3,2,4,5)              6.1344         estimate D2E/DX2                !
 ! D4    D(3,2,4,16)          -171.5862         estimate D2E/DX2                !
 ! D5    D(2,4,5,6)            176.2712         estimate D2E/DX2                !
 ! D6    D(2,4,5,17)            -0.9669         estimate D2E/DX2                !
 ! D7    D(16,4,5,6)            -6.2656         estimate D2E/DX2                !
 ! D8    D(16,4,5,17)          176.4962         estimate D2E/DX2                !
 ! D9    D(2,4,16,15)         -152.8356         estimate D2E/DX2                !
 ! D10   D(2,4,16,27)           26.2287         estimate D2E/DX2                !
 ! D11   D(5,4,16,15)           29.6308         estimate D2E/DX2                !
 ! D12   D(5,4,16,27)         -151.305          estimate D2E/DX2                !
 ! D13   D(4,5,6,7)             -9.0394         estimate D2E/DX2                !
 ! D14   D(4,5,6,18)           152.2279         estimate D2E/DX2                !
 ! D15   D(17,5,6,7)           168.2502         estimate D2E/DX2                !
 ! D16   D(17,5,6,18)          -30.4825         estimate D2E/DX2                !
 ! D17   D(5,6,7,8)           -140.8994         estimate D2E/DX2                !
 ! D18   D(5,6,7,9)            102.6479         estimate D2E/DX2                !
 ! D19   D(5,6,7,13)           -25.8965         estimate D2E/DX2                !
 ! D20   D(18,6,7,8)            55.8185         estimate D2E/DX2                !
 ! D21   D(18,6,7,9)           -60.6342         estimate D2E/DX2                !
 ! D22   D(18,6,7,13)          170.8214         estimate D2E/DX2                !
 ! D23   D(6,7,9,10)           168.8262         estimate D2E/DX2                !
 ! D24   D(6,7,9,19)           -70.1472         estimate D2E/DX2                !
 ! D25   D(6,7,9,20)            48.8607         estimate D2E/DX2                !
 ! D26   D(8,7,9,10)            52.8087         estimate D2E/DX2                !
 ! D27   D(8,7,9,19)           173.8353         estimate D2E/DX2                !
 ! D28   D(8,7,9,20)           -67.1568         estimate D2E/DX2                !
 ! D29   D(13,7,9,10)          -61.8785         estimate D2E/DX2                !
 ! D30   D(13,7,9,19)           59.1481         estimate D2E/DX2                !
 ! D31   D(13,7,9,20)          178.156          estimate D2E/DX2                !
 ! D32   D(6,7,13,12)         -166.2484         estimate D2E/DX2                !
 ! D33   D(6,7,13,14)          -49.5443         estimate D2E/DX2                !
 ! D34   D(6,7,13,15)           75.0216         Frozen                          !
 ! D35   D(8,7,13,12)          -51.6262         estimate D2E/DX2                !
 ! D36   D(8,7,13,14)           65.0779         estimate D2E/DX2                !
 ! D37   D(8,7,13,15)         -170.3562         estimate D2E/DX2                !
 ! D38   D(9,7,13,12)           63.1445         estimate D2E/DX2                !
 ! D39   D(9,7,13,14)          179.8486         estimate D2E/DX2                !
 ! D40   D(9,7,13,15)          -55.5855         estimate D2E/DX2                !
 ! D41   D(7,9,10,11)           54.8125         Frozen                          !
 ! D42   D(7,9,10,21)          176.602          estimate D2E/DX2                !
 ! D43   D(7,9,10,22)          -65.1775         estimate D2E/DX2                !
 ! D44   D(19,9,10,11)         -66.3408         estimate D2E/DX2                !
 ! D45   D(19,9,10,21)          55.4486         estimate D2E/DX2                !
 ! D46   D(19,9,10,22)         173.6692         estimate D2E/DX2                !
 ! D47   D(20,9,10,11)         175.4206         estimate D2E/DX2                !
 ! D48   D(20,9,10,21)         -62.7899         estimate D2E/DX2                !
 ! D49   D(20,9,10,22)          55.4306         estimate D2E/DX2                !
 ! D50   D(9,10,11,12)         -52.8228         Frozen                          !
 ! D51   D(9,10,11,23)          67.7864         estimate D2E/DX2                !
 ! D52   D(9,10,11,24)        -174.6732         estimate D2E/DX2                !
 ! D53   D(21,10,11,12)       -174.7066         estimate D2E/DX2                !
 ! D54   D(21,10,11,23)        -54.0973         estimate D2E/DX2                !
 ! D55   D(21,10,11,24)         63.4431         estimate D2E/DX2                !
 ! D56   D(22,10,11,12)         67.3891         estimate D2E/DX2                !
 ! D57   D(22,10,11,23)       -172.0017         estimate D2E/DX2                !
 ! D58   D(22,10,11,24)        -54.4613         estimate D2E/DX2                !
 ! D59   D(10,11,12,13)         56.5423         estimate D2E/DX2                !
 ! D60   D(10,11,12,25)        177.4034         estimate D2E/DX2                !
 ! D61   D(10,11,12,26)        -64.8609         estimate D2E/DX2                !
 ! D62   D(23,11,12,13)        -63.9305         estimate D2E/DX2                !
 ! D63   D(23,11,12,25)         56.9307         estimate D2E/DX2                !
 ! D64   D(23,11,12,26)        174.6663         estimate D2E/DX2                !
 ! D65   D(24,11,12,13)        178.4644         estimate D2E/DX2                !
 ! D66   D(24,11,12,25)        -60.6744         estimate D2E/DX2                !
 ! D67   D(24,11,12,26)         57.0613         estimate D2E/DX2                !
 ! D68   D(11,12,13,7)         -60.1931         estimate D2E/DX2                !
 ! D69   D(11,12,13,14)       -179.1997         estimate D2E/DX2                !
 ! D70   D(11,12,13,15)         61.7959         estimate D2E/DX2                !
 ! D71   D(25,12,13,7)         178.9505         estimate D2E/DX2                !
 ! D72   D(25,12,13,14)         59.944          estimate D2E/DX2                !
 ! D73   D(25,12,13,15)        -59.0604         estimate D2E/DX2                !
 ! D74   D(26,12,13,7)          61.1908         estimate D2E/DX2                !
 ! D75   D(26,12,13,14)        -57.8157         estimate D2E/DX2                !
 ! D76   D(26,12,13,15)       -176.8201         estimate D2E/DX2                !
 ! D77   D(7,13,15,16)         -67.1599         Frozen                          !
 ! D78   D(12,13,15,16)        175.6199         estimate D2E/DX2                !
 ! D79   D(14,13,15,16)         58.0466         estimate D2E/DX2                !
 ! D80   D(13,15,16,4)           6.0668         estimate D2E/DX2                !
 ! D81   D(13,15,16,27)       -172.9656         estimate D2E/DX2                !
 --------------------------------------------------------------------------------
 Trust Radius=3.00D-01 FncErr=1.00D-07 GrdErr=1.00D-07 EigMax=2.50D+02 EigMin=1.00D-04
 Number of steps in this run=     20 maximum allowed number of steps=    162.
 GradGradGradGradGradGradGradGradGradGradGradGradGradGradGradGradGradGrad

                          Input orientation:                          
 ---------------------------------------------------------------------
 Center     Atomic      Atomic             Coordinates (Angstroms)
 Number     Number       Type             X           Y           Z
 ---------------------------------------------------------------------
      1          8           0       -3.600790   -1.479880   -0.176310
      2          7           0       -3.258040   -0.310500   -0.008290
      3          8           0       -4.047210    0.615210    0.179620
      4          6           0       -1.770320    0.019930   -0.036740
      5          6           0       -1.365970    1.321840    0.278800
      6          7           0       -0.076030    1.777510    0.373540
      7          6           0        1.200450    1.001410    0.352450
      8          1           0        1.861050    1.496590    1.110880
      9          6           0        1.974960    1.049280   -0.988270
     10          6           0        3.382250    0.454920   -0.788860
     11          6           0        3.307810   -0.961060   -0.195960
     12          6           0        2.449720   -0.990840    1.087350
     13          6           0        1.017870   -0.445440    0.832070
     14          1           0        0.462800   -0.482520    1.798730
     15          7           0        0.363550   -1.307110   -0.154170
     16          6           0       -0.874510   -1.092300   -0.459060
     17          1           0       -2.150220    2.058540    0.519640
     18          1           0        0.156540    2.757000    0.192530
     19          1           0        1.428190    0.476480   -1.767230
     20          1           0        2.069810    2.099080   -1.338380
     21          1           0        3.924050    0.428590   -1.759590
     22          1           0        3.957830    1.105000   -0.092610
     23          1           0        2.861970   -1.647160   -0.951140
     24          1           0        4.331980   -1.331130    0.028340
     25          1           0        2.381970   -2.037240    1.457740
     26          1           0        2.942240   -0.383960    1.875800
     27          1           0       -1.369960   -1.827210   -1.111890
 ---------------------------------------------------------------------
                    Distance matrix (angstroms):
                    1          2          3          4          5
     1  O    0.000000
     2  N    1.230105   0.000000
     3  O    2.171492   1.230869   0.000000
     4  C    2.370555   1.524239   2.363345   0.000000
     5  C    3.612642   2.515330   2.774565   1.399298   0.000000
     6  N    4.830824   3.825019   4.142320   2.475487   1.371334
     7  C    5.430312   4.661478   5.264690   3.152816   2.587395
     8  H    6.352002   5.542851   6.045793   4.084655   3.337147
     9  C    6.176157   5.494875   6.149709   3.999012   3.583513
    10  C    7.271968   6.729681   7.494032   5.225311   4.943384
    11  C    6.928082   6.600669   7.531401   5.174466   5.223146
    12  C    6.200376   5.851651   6.753774   4.482630   4.534505
    13  C    4.839310   4.359796   5.215909   2.957263   3.018622
    14  H    4.626908   4.139995   4.915966   2.933979   2.985013
    15  N    3.968165   3.759046   4.823021   2.515597   3.176489
    16  C    2.768171   2.548651   3.659170   1.489257   2.571778
    17  H    3.887019   2.668019   2.407776   2.147048   1.102624
    18  H    5.674921   4.594479   4.717939   3.355131   2.094078
    19  H    5.625745   5.066948   5.812872   3.665174   3.564857
    20  H    6.805517   5.996766   6.474884   4.556724   3.876075
    21  H    7.922894   7.429382   8.205873   5.963310   5.739098
    22  H    7.988826   7.353879   8.024629   5.830283   5.341143
    23  H    6.511191   6.334836   7.357561   5.007337   5.310668
    24  H    7.936803   7.658422   8.603601   6.250413   6.290279
    25  H    6.226892   6.077877   7.071311   4.868976   5.169175
    26  H    6.944310   6.480638   7.261390   5.101878   4.901106
    27  H    2.443880   2.661426   3.847217   2.174434   3.442463
                    6          7          8          9         10
     6  N    0.000000
     7  C    1.494047   0.000000
     8  H    2.091618   1.121076   0.000000
     9  C    2.567373   1.549092   2.149300   0.000000
    10  C    3.880737   2.522200   2.647289   1.540615   0.000000
    11  C    4.390270   2.931383   3.137035   2.538841   1.536903
    12  C    3.814800   2.463699   2.556246   2.948845   2.545584
    13  C    2.519598   1.535170   2.135455   2.542410   3.004722
    14  H    2.725663   2.199523   2.518952   3.521421   4.012182
    15  N    3.160156   2.507255   3.421051   2.974044   3.552482
    16  C    3.092992   3.057389   4.080484   3.603596   4.541218
    17  H    2.098234   3.517452   4.093365   4.506607   5.906945
    18  H    1.022866   2.048760   2.310272   2.759936   4.082634
    19  H    2.922029   2.195555   3.084074   1.110782   2.185411
    20  H    2.763821   2.195352   2.530899   1.110700   2.174335
    21  H    4.729743   3.493828   3.692721   2.186125   1.112006
    22  H    4.116017   2.794987   2.449126   2.176485   1.112951
    23  H    4.702657   3.387465   3.890621   2.838830   2.171582
    24  H    5.404938   3.918197   3.908118   3.500770   2.181691
    25  H    4.665787   3.442535   3.588819   3.959195   3.501233
    26  H    4.004834   2.696976   2.300118   3.345550   2.828028
    27  H    4.107890   4.092968   5.140796   4.413385   5.281663
                   11         12         13         14         15
    11  C    0.000000
    12  C    1.544050   0.000000
    13  C    2.562525   1.553327   0.000000
    14  H    3.507402   2.170784   1.115307   0.000000
    15  N    2.964821   2.448163   1.463994   2.122173   0.000000
    16  C    4.192642   3.667722   2.380451   2.694039   1.293017
    17  H    6.278548   5.548014   4.050225   3.862762   4.254487
    18  H    4.889315   4.483936   3.377354   3.628796   4.084121
    19  H    2.840490   3.368260   2.788308   3.816770   2.629946
    20  H    3.493168   3.946657   3.505997   4.369050   3.989462
    21  H    2.180784   3.506208   3.990803   5.046981   4.274013
    22  H    2.168366   2.838881   3.449966   4.279325   4.329078
    23  H    1.113465   2.180859   2.832785   3.830690   2.644409
    24  H    1.111839   2.186367   3.523316   4.338776   3.972697
    25  H    2.179465   1.112084   2.187706   2.493319   2.684281
    26  H    2.181485   1.110195   2.190058   2.482595   3.409197
    27  H    4.844654   4.486215   3.374908   3.693089   2.047630
                   16         17         18         19         20
    16  C    0.000000
    17  H    3.537384   0.000000
    18  H    4.037913   2.432281   0.000000
    19  H    3.078117   4.531855   3.264740   0.000000
    20  H    4.430252   4.611132   2.537153   1.796780   0.000000
    21  H    5.199102   6.689423   4.840082   2.496331   2.531039
    22  H    5.321083   6.212275   4.154541   3.098139   2.470781
    23  H    3.809369   6.404487   5.293766   2.689159   3.848608
    24  H    5.234705   7.331450   5.845859   3.863097   4.330321
    25  H    3.895086   6.180307   5.434890   4.198680   5.002487
    26  H    4.530000   5.808453   4.523179   4.037867   4.154224
    27  H    1.100795   4.285995   5.004667   3.683219   5.224851
                   21         22         23         24         25
    21  H    0.000000
    22  H    1.799304   0.000000
    23  H    2.467862   3.084213   0.000000
    24  H    2.541597   2.467660   1.794488   0.000000
    25  H    4.336997   3.841952   2.487019   2.518792   0.000000
    26  H    3.852304   2.668907   3.097371   2.498323   1.794996
    27  H    5.790915   6.166209   4.238808   5.835952   4.552372
                   26         27
    26  H    0.000000
    27  H    5.440986   0.000000
 Symmetry turned off by external request.
 Stoichiometry    C9H13N3O2
 Framework group  C1[X(C9H13N3O2)]
 Deg. of freedom    75
 Full point group                 C1      NOp   1
 Rotational constants (GHZ):           1.6746345           0.4001392           0.3550675
 Standard basis: 6-31G(d) (6D, 7F)
   236 basis functions,   444 primitive gaussians,   236 cartesian basis functions
    52 alpha electrons       52 beta electrons
       nuclear repulsion energy       917.4657379462 Hartrees.
 NAtoms=   27 NActive=   27 NUniq=   27 SFac= 1.00D+00 NAtFMM=   60 NAOKFM=F Big=F
 Integral buffers will be    131072 words long.
 Raffenetti 1 integral format.
 Two-electron integral symmetry is turned off.
 One-electron integrals computed using PRISM.
 NBasis=   236 RedAO= T EigKep=  1.27D-03  NBF=   236
 NBsUse=   236 1.00D-06 EigRej= -1.00D+00 NBFU=   236
 ExpMin= 1.61D-01 ExpMax= 5.48D+03 ExpMxC= 8.25D+02 IAcc=3 IRadAn=         5 AccDes= 0.00D+00
 Harris functional with IExCor=  205 and IRadAn=       5 diagonalized for initial guess.
 HarFok:  IExCor=  205 AccDes= 0.00D+00 IRadAn=         5 IDoV= 1 UseB2=F ITyADJ=14
 ICtDFT=  3500011 ScaDFX=  1.000000  1.000000  1.000000  1.000000
 FoFCou: FMM=F IPFlag=           0 FMFlag=      100000 FMFlg1=           0
         NFxFlg=           0 DoJE=T BraDBF=F KetDBF=T FulRan=T
         wScrn=  0.000000 ICntrl=       500 IOpCl=  0 I1Cent=   200000004 NGrid=           0
         NMat0=    1 NMatS0=      1 NMatT0=    0 NMatD0=    1 NMtDS0=    0 NMtDT0=    0
 Symmetry not used in FoFCou.
 Keep R1 ints in memory in canonical form, NReq=397720213.
 Requested convergence on RMS density matrix=1.00D-08 within 128 cycles.
 Requested convergence on MAX density matrix=1.00D-06.
 Requested convergence on             energy=1.00D-06.
 No special actions if energy rises.
 SCF Done:  E(RHF) =  -661.280048386     A.U. after   16 cycles
            NFock= 16  Conv=0.84D-08     -V/T= 2.0037
 ExpMin= 1.61D-01 ExpMax= 5.48D+03 ExpMxC= 8.25D+02 IAcc=3 IRadAn=         5 AccDes= 0.00D+00
 HarFok:  IExCor=  205 AccDes= 0.00D+00 IRadAn=         5 IDoV=-2 UseB2=F ITyADJ=14
 ICtDFT= 12500011 ScaDFX=  1.000000  1.000000  1.000000  1.000000
 Range of M.O.s used for correlation:    15   236
 NBasis=   236 NAE=    52 NBE=    52 NFC=    14 NFV=     0
 NROrb=    222 NOA=    38 NOB=    38 NVA=   184 NVB=   184
 Fully direct method using O(ONN) memory.
 JobTyp=1 Pass  1:  I=  15 to  52 NPSUse=  4 ParTrn=T ParDer=T DoDerP=T.
 Spin components of T(2) and E(2):
     alpha-alpha T2 =       0.9195198750D-01 E2=     -0.2717455387D+00
     alpha-beta  T2 =       0.4997902338D+00 E2=     -0.1493881593D+01
     beta-beta   T2 =       0.9195198750D-01 E2=     -0.2717455387D+00
 ANorm=    0.1297572429D+01
 E2 =    -0.2037372671D+01 EUMP2 =    -0.66331742105643D+03
          IDoAtm=111111111111111111111111111
          Differentiating once with respect to electric field.
                with respect to dipole field.
          Differentiating once with respect to nuclear coordinates.
 Keep R1 ints in memory in canonical form, NReq=397723379.
          There are     1 degrees of freedom in the 1st order CPHF.  IDoFFX=0 NUNeed=     1.
 LinEq1:  Iter=  0 NonCon=     1 RMS=4.60D-03 Max=1.13D-01 NDo=     1
 AX will form     1 AO Fock derivatives at one time.
 LinEq1:  Iter=  1 NonCon=     1 RMS=1.56D-03 Max=3.04D-02 NDo=     1
 LinEq1:  Iter=  2 NonCon=     1 RMS=6.38D-04 Max=1.80D-02 NDo=     1
 LinEq1:  Iter=  3 NonCon=     1 RMS=2.95D-04 Max=9.23D-03 NDo=     1
 LinEq1:  Iter=  4 NonCon=     1 RMS=9.05D-05 Max=2.05D-03 NDo=     1
 LinEq1:  Iter=  5 NonCon=     1 RMS=3.77D-05 Max=1.92D-03 NDo=     1
 LinEq1:  Iter=  6 NonCon=     1 RMS=1.53D-05 Max=5.76D-04 NDo=     1
 LinEq1:  Iter=  7 NonCon=     1 RMS=5.88D-06 Max=9.85D-05 NDo=     1
 LinEq1:  Iter=  8 NonCon=     1 RMS=2.33D-06 Max=5.68D-05 NDo=     1
 LinEq1:  Iter=  9 NonCon=     1 RMS=8.45D-07 Max=2.33D-05 NDo=     1
 LinEq1:  Iter= 10 NonCon=     1 RMS=4.21D-07 Max=1.56D-05 NDo=     1
 LinEq1:  Iter= 11 NonCon=     1 RMS=1.52D-07 Max=5.62D-06 NDo=     1
 LinEq1:  Iter= 12 NonCon=     1 RMS=5.37D-08 Max=7.92D-07 NDo=     1
 LinEq1:  Iter= 13 NonCon=     1 RMS=1.68D-08 Max=3.15D-07 NDo=     1
 LinEq1:  Iter= 14 NonCon=     1 RMS=5.35D-09 Max=1.40D-07 NDo=     1
 LinEq1:  Iter= 15 NonCon=     1 RMS=2.00D-09 Max=4.74D-08 NDo=     1
 LinEq1:  Iter= 16 NonCon=     1 RMS=7.84D-10 Max=1.46D-08 NDo=     1
 LinEq1:  Iter= 17 NonCon=     1 RMS=2.61D-10 Max=4.07D-09 NDo=     1
 LinEq1:  Iter= 18 NonCon=     1 RMS=8.95D-11 Max=1.16D-09 NDo=     1
 LinEq1:  Iter= 19 NonCon=     0 RMS=2.93D-11 Max=4.71D-10 NDo=     1
 Linear equations converged to 1.000D-10 1.000D-09 after    19 iterations.
 End of Minotr F.D. properties file   721 does not exist.
 End of Minotr F.D. properties file   722 does not exist.
 End of Minotr F.D. properties file   788 does not exist.

 **********************************************************************

            Population analysis using the SCF Density.

 **********************************************************************

 Alpha  occ. eigenvalues --  -20.59951 -20.59454 -15.85397 -15.63330 -15.56831
 Alpha  occ. eigenvalues --  -11.35932 -11.30351 -11.30115 -11.30056 -11.27643
 Alpha  occ. eigenvalues --  -11.24613 -11.23865 -11.23379 -11.22836  -1.58587
 Alpha  occ. eigenvalues --   -1.38107  -1.28584  -1.22692  -1.13267  -1.08377
 Alpha  occ. eigenvalues --   -1.01794  -1.00674  -0.93740  -0.88928  -0.84933
 Alpha  occ. eigenvalues --   -0.81500  -0.78076  -0.76890  -0.74337  -0.71214
 Alpha  occ. eigenvalues --   -0.70428  -0.69852  -0.67406  -0.64371  -0.63227
 Alpha  occ. eigenvalues --   -0.61582  -0.60294  -0.57426  -0.56445  -0.54869
 Alpha  occ. eigenvalues --   -0.53509  -0.50727  -0.49283  -0.48582  -0.47843
 Alpha  occ. eigenvalues --   -0.47681  -0.46100  -0.45682  -0.44063  -0.42045
 Alpha  occ. eigenvalues --   -0.39930  -0.33840
 Alpha virt. eigenvalues --    0.07202   0.11923   0.18210   0.21371   0.23361
 Alpha virt. eigenvalues --    0.24236   0.26290   0.27758   0.28551   0.28873
 Alpha virt. eigenvalues --    0.29967   0.31133   0.31839   0.32281   0.33376
 Alpha virt. eigenvalues --    0.33762   0.34112   0.35501   0.37619   0.38681
 Alpha virt. eigenvalues --    0.40696   0.41824   0.44487   0.45264   0.45689
 Alpha virt. eigenvalues --    0.45989   0.49645   0.53058   0.57463   0.59009
 Alpha virt. eigenvalues --    0.63237   0.69214   0.69432   0.72188   0.74067
 Alpha virt. eigenvalues --    0.75107   0.75722   0.75867   0.77803   0.79356
 Alpha virt. eigenvalues --    0.80407   0.83700   0.85088   0.85351   0.87992
 Alpha virt. eigenvalues --    0.89035   0.90102   0.90927   0.91850   0.93822
 Alpha virt. eigenvalues --    0.95284   0.97222   0.98805   1.00348   1.01948
 Alpha virt. eigenvalues --    1.02730   1.05097   1.06386   1.06864   1.08701
 Alpha virt. eigenvalues --    1.09553   1.10479   1.11267   1.11935   1.13265
 Alpha virt. eigenvalues --    1.13787   1.14179   1.15386   1.16410   1.17341
 Alpha virt. eigenvalues --    1.17923   1.19975   1.21121   1.22285   1.22934
 Alpha virt. eigenvalues --    1.23718   1.24128   1.25816   1.26986   1.27578
 Alpha virt. eigenvalues --    1.29560   1.31145   1.32925   1.35683   1.39823
 Alpha virt. eigenvalues --    1.42806   1.46063   1.47382   1.49020   1.52531
 Alpha virt. eigenvalues --    1.54555   1.55445   1.60701   1.61397   1.65809
 Alpha virt. eigenvalues --    1.68780   1.70045   1.72963   1.73261   1.77224
 Alpha virt. eigenvalues --    1.77841   1.79990   1.84338   1.89151   1.92613
 Alpha virt. eigenvalues --    1.93928   1.96390   1.97643   1.98923   2.01156
 Alpha virt. eigenvalues --    2.02824   2.03449   2.05967   2.08817   2.11847
 Alpha virt. eigenvalues --    2.13013   2.13750   2.17794   2.18728   2.19250
 Alpha virt. eigenvalues --    2.20943   2.22007   2.24227   2.25141   2.26551
 Alpha virt. eigenvalues --    2.29037   2.32422   2.33731   2.35594   2.35830
 Alpha virt. eigenvalues --    2.38424   2.39693   2.41642   2.42680   2.46277
 Alpha virt. eigenvalues --    2.48745   2.50338   2.50866   2.56837   2.57553
 Alpha virt. eigenvalues --    2.60846   2.62846   2.66096   2.68385   2.68750
 Alpha virt. eigenvalues --    2.69817   2.70440   2.74520   2.77184   2.80931
 Alpha virt. eigenvalues --    2.84876   2.86986   2.89912   2.91474   2.95196
 Alpha virt. eigenvalues --    2.97612   2.98715   3.01817   3.03396   3.05754
 Alpha virt. eigenvalues --    3.06941   3.12668   3.19567   3.22648   3.27257
 Alpha virt. eigenvalues --    3.30804   3.33457   3.37246   3.43918   3.59459
 Alpha virt. eigenvalues --    4.10155   4.23534   4.31840   4.36209   4.43288
 Alpha virt. eigenvalues --    4.52844   4.59752   4.60197   4.70840   4.77642
 Alpha virt. eigenvalues --    4.96180   4.99264   5.02684   5.10039
          Condensed to atoms (all electrons):
               1          2          3          4          5          6
     1  O    8.298553   0.314814  -0.089347  -0.078097   0.003235  -0.000011
     2  N    0.314814   5.683920   0.308561   0.263445  -0.041957   0.000833
     3  O   -0.089347   0.308561   8.329626  -0.089366   0.008128   0.000427
     4  C   -0.078097   0.263445  -0.089366   5.240335   0.569402  -0.046713
     5  C    0.003235  -0.041957   0.008128   0.569402   4.662592   0.309002
     6  N   -0.000011   0.000833   0.000427  -0.046713   0.309002   7.190893
     7  C    0.000003  -0.000087   0.000002   0.004241  -0.029690   0.197634
     8  H   -0.000000   0.000002  -0.000000  -0.000190   0.002311  -0.050359
     9  C   -0.000000  -0.000003   0.000000   0.000493   0.001660  -0.055795
    10  C   -0.000000   0.000000  -0.000000  -0.000019  -0.000061   0.003324
    11  C   -0.000000  -0.000000  -0.000000  -0.000013   0.000014  -0.000155
    12  C   -0.000000   0.000002  -0.000000  -0.000103  -0.000112   0.003615
    13  C   -0.000021  -0.000033  -0.000003  -0.010657   0.000497  -0.044415
    14  H   -0.000003  -0.000055   0.000000   0.003085   0.004933  -0.005644
    15  N    0.000141   0.001679  -0.000015  -0.061083  -0.003329   0.001711
    16  C    0.003378  -0.029850   0.002101   0.317012  -0.041753  -0.001762
    17  H    0.000104  -0.003864   0.011263  -0.028052   0.377735  -0.034631
    18  H    0.000000  -0.000032   0.000007   0.000882  -0.024235   0.328249
    19  H    0.000000   0.000000   0.000000  -0.000735   0.000627   0.000685
    20  H    0.000000  -0.000000   0.000000  -0.000024   0.000026  -0.001780
    21  H   -0.000000  -0.000000   0.000000   0.000000   0.000001  -0.000058
    22  H   -0.000000   0.000000  -0.000000  -0.000000  -0.000002  -0.000098
    23  H    0.000000  -0.000000   0.000000   0.000024  -0.000001  -0.000024
    24  H    0.000000   0.000000   0.000000   0.000000  -0.000000   0.000004
    25  H    0.000000  -0.000000   0.000000   0.000019  -0.000001  -0.000071
    26  H    0.000000  -0.000000   0.000000   0.000006  -0.000002  -0.000067
    27  H    0.005101  -0.000338  -0.000004  -0.066171   0.002212   0.000052
               7          8          9         10         11         12
     1  O    0.000003  -0.000000  -0.000000  -0.000000  -0.000000  -0.000000
     2  N   -0.000087   0.000002  -0.000003   0.000000  -0.000000   0.000002
     3  O    0.000002  -0.000000   0.000000  -0.000000  -0.000000  -0.000000
     4  C    0.004241  -0.000190   0.000493  -0.000019  -0.000013  -0.000103
     5  C   -0.029690   0.002311   0.001660  -0.000061   0.000014  -0.000112
     6  N    0.197634  -0.050359  -0.055795   0.003324  -0.000155   0.003615
     7  C    5.001249   0.416966   0.340776  -0.049325  -0.007700  -0.064157
     8  H    0.416966   0.548092  -0.060786   0.001539  -0.000344  -0.002782
     9  C    0.340776  -0.060786   5.181544   0.317831  -0.053022  -0.006308
    10  C   -0.049325   0.001539   0.317831   5.126679   0.332770  -0.060072
    11  C   -0.007700  -0.000344  -0.053022   0.332770   5.123695   0.330728
    12  C   -0.064157  -0.002782  -0.006308  -0.060072   0.330728   5.136768
    13  C    0.333413  -0.040734  -0.049989  -0.001796  -0.047842   0.368287
    14  H   -0.040101  -0.000952   0.003870  -0.000392   0.003953  -0.040742
    15  N   -0.058044   0.004072  -0.012976   0.001453  -0.007708  -0.074246
    16  C   -0.002586   0.000049  -0.001053  -0.000015  -0.000006   0.002584
    17  H    0.001461  -0.000015  -0.000068   0.000001   0.000000   0.000001
    18  H   -0.028360  -0.002568   0.000832  -0.000121   0.000012  -0.000136
    19  H   -0.034945   0.004105   0.385820  -0.032467  -0.002277   0.000637
    20  H   -0.041659  -0.001874   0.397202  -0.037392   0.004144  -0.000361
    21  H    0.004041  -0.000081  -0.035832   0.400147  -0.035835   0.004207
    22  H   -0.004192   0.003508  -0.045703   0.395981  -0.045637  -0.001222
    23  H    0.000424   0.000033  -0.002005  -0.040078   0.396688  -0.036620
    24  H   -0.000140  -0.000098   0.004397  -0.038494   0.400299  -0.037870
    25  H    0.004979  -0.000005  -0.000368   0.004097  -0.033949   0.395448
    26  H   -0.004447   0.001619   0.001036  -0.002393  -0.042347   0.394688
    27  H   -0.000413   0.000009  -0.000062   0.000005   0.000005  -0.000018
              13         14         15         16         17         18
     1  O   -0.000021  -0.000003   0.000141   0.003378   0.000104   0.000000
     2  N   -0.000033  -0.000055   0.001679  -0.029850  -0.003864  -0.000032
     3  O   -0.000003   0.000000  -0.000015   0.002101   0.011263   0.000007
     4  C   -0.010657   0.003085  -0.061083   0.317012  -0.028052   0.000882
     5  C    0.000497   0.004933  -0.003329  -0.041753   0.377735  -0.024235
     6  N   -0.044415  -0.005644   0.001711  -0.001762  -0.034631   0.328249
     7  C    0.333413  -0.040101  -0.058044  -0.002586   0.001461  -0.028360
     8  H   -0.040734  -0.000952   0.004072   0.000049  -0.000015  -0.002568
     9  C   -0.049989   0.003870  -0.012976  -0.001053  -0.000068   0.000832
    10  C   -0.001796  -0.000392   0.001453  -0.000015   0.000001  -0.000121
    11  C   -0.047842   0.003953  -0.007708  -0.000006   0.000000   0.000012
    12  C    0.368287  -0.040742  -0.074246   0.002584   0.000001  -0.000136
    13  C    5.025915   0.401899   0.239001  -0.070277  -0.000043   0.003693
    14  H    0.401899   0.519927  -0.035855  -0.004783   0.000070   0.000012
    15  N    0.239001  -0.035855   6.935057   0.587316  -0.000063  -0.000120
    16  C   -0.070277  -0.004783   0.587316   4.708026   0.001854  -0.000218
    17  H   -0.000043   0.000070  -0.000063   0.001854   0.391587  -0.001893
    18  H    0.003693   0.000012  -0.000120  -0.000218  -0.001893   0.323621
    19  H   -0.006300   0.000065   0.006979   0.002611   0.000011  -0.000127
    20  H    0.003862  -0.000049   0.000080  -0.000030  -0.000001   0.002919
    21  H   -0.000373   0.000009  -0.000029   0.000002  -0.000000  -0.000000
    22  H    0.000316  -0.000044   0.000002  -0.000001   0.000000   0.000002
    23  H   -0.005840   0.000008   0.006761   0.000057   0.000000   0.000000
    24  H    0.004136  -0.000058   0.000046   0.000005   0.000000  -0.000000
    25  H   -0.034486  -0.002649   0.000716  -0.000062  -0.000000   0.000002
    26  H   -0.044825  -0.000908   0.004191  -0.000058   0.000000  -0.000001
    27  H    0.004979  -0.000182  -0.040152   0.402498  -0.000060   0.000002
              19         20         21         22         23         24
     1  O    0.000000   0.000000  -0.000000  -0.000000   0.000000   0.000000
     2  N    0.000000  -0.000000  -0.000000   0.000000  -0.000000   0.000000
     3  O    0.000000   0.000000   0.000000  -0.000000   0.000000   0.000000
     4  C   -0.000735  -0.000024   0.000000  -0.000000   0.000024   0.000000
     5  C    0.000627   0.000026   0.000001  -0.000002  -0.000001  -0.000000
     6  N    0.000685  -0.001780  -0.000058  -0.000098  -0.000024   0.000004
     7  C   -0.034945  -0.041659   0.004041  -0.004192   0.000424  -0.000140
     8  H    0.004105  -0.001874  -0.000081   0.003508   0.000033  -0.000098
     9  C    0.385820   0.397202  -0.035832  -0.045703  -0.002005   0.004397
    10  C   -0.032467  -0.037392   0.400147   0.395981  -0.040078  -0.038494
    11  C   -0.002277   0.004144  -0.035835  -0.045637   0.396688   0.400299
    12  C    0.000637  -0.000361   0.004207  -0.001222  -0.036620  -0.037870
    13  C   -0.006300   0.003862  -0.000373   0.000316  -0.005840   0.004136
    14  H    0.000065  -0.000049   0.000009  -0.000044   0.000008  -0.000058
    15  N    0.006979   0.000080  -0.000029   0.000002   0.006761   0.000046
    16  C    0.002611  -0.000030   0.000002  -0.000001   0.000057   0.000005
    17  H    0.000011  -0.000001  -0.000000   0.000000   0.000000   0.000000
    18  H   -0.000127   0.002919  -0.000000   0.000002   0.000000  -0.000000
    19  H    0.506605  -0.024079  -0.002595   0.003754   0.001638  -0.000069
    20  H   -0.024079   0.550632  -0.002607  -0.002976  -0.000049  -0.000090
    21  H   -0.002595  -0.002607   0.526145  -0.024702  -0.002812  -0.002055
    22  H    0.003754  -0.002976  -0.024702   0.568860   0.004062  -0.003598
    23  H    0.001638  -0.000049  -0.002812   0.004062   0.509653  -0.025010
    24  H   -0.000069  -0.000090  -0.002055  -0.003598  -0.025010   0.541145
    25  H   -0.000027   0.000011  -0.000086  -0.000082  -0.002099  -0.002375
    26  H    0.000023  -0.000035  -0.000074   0.002466   0.003824  -0.002776
    27  H    0.000076  -0.000000  -0.000000   0.000000  -0.000022  -0.000000
              25         26         27
     1  O    0.000000   0.000000   0.005101
     2  N   -0.000000  -0.000000  -0.000338
     3  O    0.000000   0.000000  -0.000004
     4  C    0.000019   0.000006  -0.066171
     5  C   -0.000001  -0.000002   0.002212
     6  N   -0.000071  -0.000067   0.000052
     7  C    0.004979  -0.004447  -0.000413
     8  H   -0.000005   0.001619   0.000009
     9  C   -0.000368   0.001036  -0.000062
    10  C    0.004097  -0.002393   0.000005
    11  C   -0.033949  -0.042347   0.000005
    12  C    0.395448   0.394688  -0.000018
    13  C   -0.034486  -0.044825   0.004979
    14  H   -0.002649  -0.000908  -0.000182
    15  N    0.000716   0.004191  -0.040152
    16  C   -0.000062  -0.000058   0.402498
    17  H   -0.000000   0.000000  -0.000060
    18  H    0.000002  -0.000001   0.000002
    19  H   -0.000027   0.000023   0.000076
    20  H    0.000011  -0.000035  -0.000000
    21  H   -0.000086  -0.000074  -0.000000
    22  H   -0.000082   0.002466   0.000000
    23  H   -0.002099   0.003824  -0.000022
    24  H   -0.002375  -0.002776  -0.000000
    25  H    0.510648  -0.023099  -0.000010
    26  H   -0.023099   0.561073   0.000001
    27  H   -0.000010   0.000001   0.454502
 Mulliken charges:
               1
     1  O   -0.457850
     2  N    0.502962
     3  O   -0.481382
     4  C   -0.017724
     5  C    0.198768
     6  N   -0.794846
     7  C    0.060656
     8  H    0.178480
     9  C   -0.311491
    10  C   -0.321200
    11  C   -0.315473
    12  C   -0.312216
    13  C   -0.028363
    14  H    0.194584
    15  N   -0.495587
    16  C    0.124960
    17  H    0.284602
    18  H    0.397576
    19  H    0.189985
    20  H    0.154132
    21  H    0.172588
    22  H    0.149307
    23  H    0.191388
    24  H    0.162599
    25  H    0.183450
    26  H    0.152106
    27  H    0.237989
 Sum of Mulliken charges =  -0.00000
 Mulliken charges with hydrogens summed into heavy atoms:
               1
     1  O   -0.457850
     2  N    0.502962
     3  O   -0.481382
     4  C   -0.017724
     5  C    0.483371
     6  N   -0.397270
     7  C    0.239137
     9  C    0.032627
    10  C    0.000695
    11  C    0.038515
    12  C    0.023339
    13  C    0.166221
    15  N   -0.495587
    16  C    0.362949
 Electronic spatial extent (au):  <R**2>=           3126.4919
 Charge=              0.0000 electrons
 Dipole moment (field-independent basis, Debye):
    X=              5.3112    Y=              4.5666    Z=              0.4418  Tot=              7.0184
 Quadrupole moment (field-independent basis, Debye-Ang):
   XX=           -105.2336   YY=            -80.3349   ZZ=            -82.2495
   XY=             -2.1227   XZ=              1.1584   YZ=             -0.0621
 Traceless Quadrupole moment (field-independent basis, Debye-Ang):
   XX=            -15.9609   YY=              8.9377   ZZ=              7.0232
   XY=             -2.1227   XZ=              1.1584   YZ=             -0.0621
 Octapole moment (field-independent basis, Debye-Ang**2):
  XXX=            100.3870  YYY=             37.7217  ZZZ=             -5.7069  XYY=             -1.0386
  XXY=             12.7056  XXZ=             -1.8659  XZZ=             -8.3361  YZZ=             -2.7672
  YYZ=              0.5286  XYZ=             -1.3599
 Hexadecapole moment (field-independent basis, Debye-Ang**3):
 XXXX=          -3556.7824 YYYY=           -621.0749 ZZZZ=           -299.2942 XXXY=            -49.8721
 XXXZ=             36.3523 YYYX=            -28.1390 YYYZ=              9.9713 ZZZX=             25.7277
 ZZZY=              8.7048 XXYY=           -656.9574 XXZZ=           -543.7564 YYZZ=           -164.7308
 XXYZ=              1.7954 YYXZ=             11.3211 ZZXY=              0.6024
 N-N= 9.174657379462D+02 E-N=-3.380934743461D+03  KE= 6.588560183461D+02
 Calling FoFJK, ICntrl=  10002127 FMM=F ISym2X=0 I1Cent= 0 IOpClX= 0 NMat=1 NMatS=1 NMatT=0.
 -------------------------------------------------------------------
 Center     Atomic                   Forces (Hartrees/Bohr)
 Number     Number              X              Y              Z
 -------------------------------------------------------------------
      1        8           0.004082739   -0.017471230   -0.003756348
      2        7           0.038854045    0.018309527    0.000682056
      3        8          -0.008192277    0.016503947    0.003600500
      4        6           0.004653173    0.001501079    0.006855116
      5        6          -0.003012838   -0.015368630   -0.004955855
      6        7           0.014495647   -0.011462935   -0.006362862
      7        6          -0.004382422    0.005188295    0.003060024
      8        1          -0.009936415   -0.001690793   -0.007705237
      9        6          -0.004000748    0.000136895   -0.002140158
     10        6           0.002837470   -0.000872036    0.001028970
     11        6          -0.001162677   -0.004640273   -0.002460450
     12        6           0.000828437   -0.008735932   -0.002737995
     13        6           0.009233814   -0.002602856    0.005329054
     14        1           0.000959941    0.004657888   -0.009735650
     15        7          -0.000581925    0.002130841   -0.000007573
     16        6          -0.020376761    0.005998300    0.004048370
     17        1           0.007122189   -0.004999468   -0.006474860
     18        1          -0.017809487   -0.001570851    0.006462041
     19        1           0.003103617    0.005887182    0.007742348
     20        1          -0.003292138   -0.007285017    0.002594094
     21        1          -0.004402777    0.002432260    0.009592555
     22        1          -0.003958371   -0.003965932   -0.007427984
     23        1           0.003991942    0.006139175    0.009316038
     24        1          -0.009351731    0.002675760   -0.002171667
     25        1          -0.000672131    0.010579115   -0.002396700
     26        1          -0.004776067   -0.004793744   -0.004383289
     27        1           0.005745750    0.003319434    0.002405462
 -------------------------------------------------------------------
 Cartesian Forces:  Max     0.038854045 RMS     0.008357529

 GradGradGradGradGradGradGradGradGradGradGradGradGradGradGradGradGradGrad
 Berny optimization.
 FormGI is forming the generalized inverse of G from B-inverse, IUseBI=4.
 Internal  Forces:  Max     0.037661764 RMS     0.007024562
 Search for a local minimum.
 Step number   1 out of a maximum of   20
 All quantities printed in internal units (Hartrees-Bohrs-Radians)
 Mixed Optimization -- RFO/linear search
 Second derivative matrix not updated -- first step.
 ITU=  0
     Eigenvalues ---    0.00230   0.00770   0.01040   0.01145   0.01197
     Eigenvalues ---    0.01491   0.01529   0.01605   0.01969   0.02015
     Eigenvalues ---    0.02087   0.02695   0.03670   0.04505   0.04694
     Eigenvalues ---    0.04839   0.05086   0.05138   0.05306   0.05903
     Eigenvalues ---    0.06261   0.07237   0.07700   0.07728   0.07876
     Eigenvalues ---    0.07992   0.08051   0.08063   0.10458   0.11740
     Eigenvalues ---    0.12268   0.13546   0.15303   0.15849   0.15992
     Eigenvalues ---    0.16001   0.20090   0.21932   0.23315   0.25000
     Eigenvalues ---    0.25000   0.25385   0.26215   0.26649   0.27976
     Eigenvalues ---    0.28085   0.28481   0.29962   0.31447   0.31455
     Eigenvalues ---    0.32045   0.32236   0.32290   0.32380   0.32389
     Eigenvalues ---    0.32406   0.32517   0.32526   0.32579   0.33168
     Eigenvalues ---    0.33394   0.33594   0.35419   0.43884   0.44226
     Eigenvalues ---    0.49044   0.66810   0.90725   0.910431000.00000
     Eigenvalues --- 1000.000001000.000001000.000001000.000001000.00000
     Eigenvalues --- 1000.000001000.000001000.000001000.000001000.00000
     Eigenvalues --- 1000.000001000.000001000.000001000.000001000.00000
     Eigenvalues --- 1000.000001000.000001000.000001000.000001000.00000
     Eigenvalues --- 1000.000001000.000001000.000001000.000001000.00000
     Eigenvalues --- 1000.000001000.000001000.000001000.000001000.00000
     Eigenvalues --- 1000.000001000.000001000.000001000.000001000.00000
     Eigenvalues --- 1000.000001000.000001000.000001000.000001000.00000
     Eigenvalues --- 1000.000001000.000001000.000001000.000001000.00000
     Eigenvalues --- 1000.000001000.000001000.000001000.000001000.00000
     Eigenvalues --- 1000.000001000.000001000.000001000.000001000.00000
     Eigenvalues --- 1000.000001000.000001000.000001000.000001000.00000
     Eigenvalues --- 1000.000001000.000001000.000001000.000001000.00000
     Eigenvalues --- 1000.000001000.000001000.000001000.000001000.00000
     Eigenvalues --- 1000.000001000.000001000.000001000.000001000.00000
     Eigenvalues --- 1000.000001000.000001000.000001000.000001000.00000
     Eigenvalues --- 1000.000001000.000001000.000001000.000001000.00000
     Eigenvalues --- 1000.000001000.000001000.000001000.000001000.00000
     Eigenvalues --- 1000.00000
 RFO step:  Lambda=-2.36002592D-02 EMin= 2.30026603D-03
 Linear search not attempted -- first point.
 Iteration  1 RMS(Cart)=  0.05494463 RMS(Int)=  0.00101814
 Iteration  2 RMS(Cart)=  0.00113105 RMS(Int)=  0.00021313
 Iteration  3 RMS(Cart)=  0.00000071 RMS(Int)=  0.00021313
 Iteration  1 RMS(Cart)=  0.00008685 RMS(Int)=  0.00002690
 Iteration  2 RMS(Cart)=  0.00003649 RMS(Int)=  0.00002993
 Iteration  3 RMS(Cart)=  0.00001594 RMS(Int)=  0.00003294
 Iteration  4 RMS(Cart)=  0.00000747 RMS(Int)=  0.00003463
 Iteration  5 RMS(Cart)=  0.00000393 RMS(Int)=  0.00003557
 Iteration  6 RMS(Cart)=  0.00000241 RMS(Int)=  0.00003611
 Iteration  7 RMS(Cart)=  0.00000172 RMS(Int)=  0.00003647
 Iteration  8 RMS(Cart)=  0.00000135 RMS(Int)=  0.00003672
 Iteration  9 RMS(Cart)=  0.00000112 RMS(Int)=  0.00003690
 Iteration 10 RMS(Cart)=  0.00000095 RMS(Int)=  0.00003705
 Variable       Old X    -DE/DX   Delta X   Delta X   Delta X     New X
                                 (Linear)    (Quad)   (Total)
    R1        2.32456   0.01598   0.00000   0.01711   0.01711   2.34167
    R2        2.32601   0.01821   0.00000   0.01957   0.01957   2.34557
    R3        2.88039  -0.03766   0.00000  -0.11652  -0.11652   2.76387
    R4        2.64429  -0.03577   0.00000  -0.07516  -0.07491   2.56938
    R5        2.81429  -0.02156   0.00000  -0.05937  -0.05915   2.75514
    R6        2.59145  -0.02481   0.00000  -0.04802  -0.04793   2.54352
    R7        2.08366  -0.00982   0.00000  -0.02747  -0.02747   2.05619
    R8        2.82334  -0.01864   0.00000  -0.05388  -0.05399   2.76935
    R9        1.93294  -0.00670   0.00000  -0.01448  -0.01448   1.91845
   R10        2.11853  -0.01181   0.00000  -0.03494  -0.03494   2.08359
   R11        2.92736  -0.01307   0.00000  -0.04467  -0.04469   2.88267
   R12        2.90105  -0.00417   0.00000  -0.01040  -0.01046   2.89059
   R13        2.91134  -0.00461   0.00000  -0.01428  -0.01431   2.89703
   R14        2.09907  -0.00999   0.00000  -0.02865  -0.02865   2.07042
   R15        2.09892  -0.00798   0.00000  -0.02289  -0.02289   2.07603
   R16        2.90433  -0.00180   0.00000  -0.00710  -0.00716   2.89717
   R17        2.10139  -0.01058   0.00000  -0.03044  -0.03044   2.07095
   R18        2.10317  -0.00901   0.00000  -0.02600  -0.02600   2.07717
   R19        2.91783  -0.00910   0.00000  -0.02872  -0.02870   2.88913
   R20        2.10414  -0.01170   0.00000  -0.03382  -0.03382   2.07033
   R21        2.10107  -0.00994   0.00000  -0.02860  -0.02860   2.07247
   R22        2.93536  -0.01055   0.00000  -0.03637  -0.03634   2.89903
   R23        2.10153  -0.01071   0.00000  -0.03083  -0.03083   2.07070
   R24        2.09796  -0.00785   0.00000  -0.02247  -0.02247   2.07549
   R25        2.10762  -0.00907   0.00000  -0.02636  -0.02636   2.08126
   R26        2.76655  -0.00464   0.00000  -0.01122  -0.01151   2.75504
   R27        2.44345  -0.00663   0.00000  -0.00854  -0.00857   2.43488
   R28        2.08020  -0.00623   0.00000  -0.01732  -0.01732   2.06288
    A1        2.16176   0.01043   0.00000   0.03813   0.03812   2.19988
    A2        2.06632  -0.01036   0.00000  -0.03786  -0.03786   2.02845
    A3        2.05511  -0.00007   0.00000  -0.00025  -0.00026   2.05485
    A4        2.07092  -0.01504   0.00000   0.00000  -0.00000   2.07092
    A5        2.01584   0.00165   0.00000  -0.02697  -0.02762   1.98822
    A6        2.19566   0.01333   0.00000   0.02557   0.02558   2.22124
    A7        2.20999   0.00385   0.00000   0.01903   0.01936   2.22935
    A8        2.05484  -0.00143   0.00000  -0.00659  -0.00684   2.04799
    A9        2.01744  -0.00238   0.00000  -0.01161  -0.01187   2.00557
   A10        2.25246  -0.00494   0.00000  -0.01519  -0.01521   2.23724
   A11        2.11746  -0.01303   0.00000  -0.07534  -0.07569   2.04177
   A12        1.87620   0.01820   0.00000   0.09733   0.09746   1.97365
   A13        1.83843  -0.00162   0.00000  -0.01752  -0.01732   1.82111
   A14        2.00792  -0.00124   0.00000  -0.01231  -0.01235   1.99557
   A15        1.96444   0.00129   0.00000   0.00168   0.00122   1.96566
   A16        1.85173   0.00271   0.00000   0.02360   0.02343   1.87517
   A17        1.84940   0.00076   0.00000   0.01753   0.01736   1.86676
   A18        1.93798  -0.00160   0.00000  -0.00890  -0.00858   1.92940
   A19        1.91003   0.00015   0.00000  -0.00481  -0.00496   1.90507
   A20        1.92293  -0.00074   0.00000  -0.01298  -0.01295   1.90998
   A21        1.92274  -0.00166   0.00000  -0.00714  -0.00713   1.91561
   A22        1.91927  -0.00040   0.00000   0.00578   0.00574   1.92502
   A23        1.90438   0.00305   0.00000   0.02446   0.02447   1.92886
   A24        1.88429  -0.00038   0.00000  -0.00487  -0.00513   1.87916
   A25        1.94028  -0.00081   0.00000   0.00562   0.00550   1.94578
   A26        1.91900  -0.00072   0.00000  -0.00684  -0.00685   1.91215
   A27        1.90502   0.00030   0.00000  -0.00292  -0.00298   1.90204
   A28        1.91617   0.00077   0.00000   0.00712   0.00717   1.92334
   A29        1.89849   0.00169   0.00000   0.01112   0.01115   1.90964
   A30        1.88385  -0.00122   0.00000  -0.01459  -0.01468   1.86917
   A31        1.94477   0.00066   0.00000   0.00526   0.00538   1.95015
   A32        1.90229   0.00061   0.00000   0.00555   0.00551   1.90780
   A33        1.91757   0.00038   0.00000   0.00543   0.00540   1.92297
   A34        1.90635  -0.00111   0.00000  -0.01404  -0.01408   1.89226
   A35        1.91541  -0.00050   0.00000   0.00002  -0.00006   1.91534
   A36        1.87608  -0.00006   0.00000  -0.00262  -0.00265   1.87343
   A37        1.94864  -0.00307   0.00000  -0.01820  -0.01821   1.93043
   A38        1.90585   0.00256   0.00000   0.01684   0.01669   1.92254
   A39        1.91046   0.00142   0.00000   0.01328   0.01325   1.92372
   A40        1.90600   0.00024   0.00000  -0.00251  -0.00235   1.90364
   A41        1.91104  -0.00017   0.00000  -0.00492  -0.00486   1.90618
   A42        1.88057  -0.00090   0.00000  -0.00402  -0.00420   1.87638
   A43        1.84692   0.00464   0.00000   0.02457   0.02460   1.87152
   A44        1.94046  -0.00449   0.00000  -0.03150  -0.03197   1.90850
   A45        1.97948   0.00083   0.00000   0.00688   0.00707   1.98655
   A46        1.88037   0.00222   0.00000   0.03051   0.03084   1.91120
   A47        1.89235  -0.00387   0.00000  -0.02679  -0.02681   1.86554
   A48        1.91971   0.00088   0.00000  -0.00117  -0.00112   1.91859
   A49        2.08175  -0.00635   0.00000  -0.01337  -0.01369   2.06806
   A50        2.25642  -0.00599   0.00000  -0.01657  -0.01651   2.23990
   A51        1.97800   0.00614   0.00000   0.02554   0.02515   2.00315
   A52        2.04866  -0.00012   0.00000  -0.00842  -0.00880   2.03986
    D1       -3.03723  -0.00132   0.00000  -0.03536  -0.03485  -3.07209
    D2        0.14414  -0.00021   0.00000   0.00000  -0.00000   0.14414
    D3        0.10707  -0.00112   0.00000  -0.03942  -0.03917   0.06790
    D4       -2.99474  -0.00001   0.00000  -0.00406  -0.00432  -2.99906
    D5        3.07651   0.00024   0.00000   0.01503   0.01532   3.09184
    D6       -0.01688  -0.00067   0.00000  -0.00649  -0.00634  -0.02322
    D7       -0.10936  -0.00139   0.00000  -0.02571  -0.02616  -0.13551
    D8        3.08044  -0.00230   0.00000  -0.04723  -0.04782   3.03262
    D9       -2.66748  -0.00242   0.00000  -0.04228  -0.04249  -2.70998
   D10        0.45778   0.00034   0.00000  -0.00013  -0.00010   0.45768
   D11        0.51715  -0.00044   0.00000  -0.00322  -0.00322   0.51393
   D12       -2.64077   0.00232   0.00000   0.03893   0.03917  -2.60160
   D13       -0.15777  -0.00008   0.00000   0.02659   0.02688  -0.13089
   D14        2.65688   0.00390   0.00000   0.07163   0.07070   2.72758
   D15        2.93652   0.00084   0.00000   0.04780   0.04819   2.98471
   D16       -0.53202   0.00481   0.00000   0.09285   0.09202  -0.44000
   D17       -2.45916  -0.00074   0.00000  -0.02142  -0.02105  -2.48021
   D18        1.79154  -0.00234   0.00000  -0.03224  -0.03191   1.75964
   D19       -0.45198  -0.00014   0.00000  -0.00998  -0.00996  -0.46194
   D20        0.97422  -0.00016   0.00000  -0.03833  -0.03882   0.93540
   D21       -1.05827  -0.00176   0.00000  -0.04915  -0.04967  -1.10794
   D22        2.98140   0.00044   0.00000  -0.02689  -0.02772   2.95367
   D23        2.94657   0.00225   0.00000   0.02527   0.02517   2.97174
   D24       -1.22430   0.00139   0.00000   0.02113   0.02105  -1.20325
   D25        0.85278  -0.00057   0.00000   0.00257   0.00256   0.85534
   D26        0.92169   0.00314   0.00000   0.03803   0.03803   0.95971
   D27        3.03400   0.00227   0.00000   0.03390   0.03391   3.06791
   D28       -1.17211   0.00031   0.00000   0.01533   0.01542  -1.15669
   D29       -1.07998   0.00152   0.00000   0.00864   0.00860  -1.07138
   D30        1.03233   0.00066   0.00000   0.00450   0.00448   1.03681
   D31        3.10941  -0.00130   0.00000  -0.01407  -0.01400   3.09541
   D32       -2.90158  -0.00101   0.00000  -0.01303  -0.01284  -2.91442
   D33       -0.86471   0.00200   0.00000   0.02125   0.02104  -0.84367
   D34        1.30937   0.00025   0.00000   0.00000  -0.00001   1.30937
   D35       -0.90105  -0.00185   0.00000  -0.02281  -0.02272  -0.92376
   D36        1.13582   0.00117   0.00000   0.01147   0.01116   1.14699
   D37       -2.97328  -0.00058   0.00000  -0.00978  -0.00988  -2.98316
   D38        1.10208   0.00098   0.00000   0.01037   0.01047   1.11254
   D39        3.13895   0.00400   0.00000   0.04465   0.04435  -3.09989
   D40       -0.97015   0.00225   0.00000   0.02340   0.02330  -0.94685
   D41        0.95666   0.00066   0.00000   0.00000   0.00001   0.95667
   D42        3.08229   0.00060   0.00000   0.00809   0.00805   3.09034
   D43       -1.13756  -0.00112   0.00000  -0.01542  -0.01539  -1.15295
   D44       -1.15787   0.00173   0.00000   0.01548   0.01556  -1.14231
   D45        0.96776   0.00167   0.00000   0.02358   0.02360   0.99136
   D46        3.03110  -0.00006   0.00000   0.00006   0.00016   3.03126
   D47        3.06167   0.00060   0.00000   0.00336   0.00333   3.06499
   D48       -1.09589   0.00054   0.00000   0.01146   0.01137  -1.08452
   D49        0.96745  -0.00119   0.00000  -0.01206  -0.01207   0.95537
   D50       -0.92193  -0.00083   0.00000   0.00000   0.00001  -0.92192
   D51        1.18310  -0.00139   0.00000  -0.01051  -0.01052   1.17258
   D52       -3.04862  -0.00090   0.00000  -0.00728  -0.00731  -3.05594
   D53       -3.04920   0.00010   0.00000   0.00004   0.00007  -3.04914
   D54       -0.94418  -0.00047   0.00000  -0.01046  -0.01046  -0.95464
   D55        1.10729   0.00003   0.00000  -0.00724  -0.00726   1.10003
   D56        1.17616   0.00013   0.00000   0.00705   0.00708   1.18325
   D57       -3.00200  -0.00043   0.00000  -0.00346  -0.00344  -3.00544
   D58       -0.95053   0.00006   0.00000  -0.00023  -0.00024  -0.95077
   D59        0.98685  -0.00082   0.00000  -0.01285  -0.01288   0.97396
   D60        3.09627  -0.00078   0.00000  -0.01640  -0.01654   3.07973
   D61       -1.13204   0.00045   0.00000  -0.00375  -0.00372  -1.13576
   D62       -1.11580  -0.00126   0.00000  -0.01385  -0.01384  -1.12963
   D63        0.99363  -0.00122   0.00000  -0.01740  -0.01749   0.97613
   D64        3.04850   0.00001   0.00000  -0.00475  -0.00467   3.04383
   D65        3.11479  -0.00025   0.00000  -0.00245  -0.00245   3.11234
   D66       -1.05897  -0.00021   0.00000  -0.00600  -0.00611  -1.06507
   D67        0.99591   0.00102   0.00000   0.00665   0.00671   1.00262
   D68       -1.05057  -0.00001   0.00000   0.00106   0.00114  -1.04943
   D69       -3.12762   0.00167   0.00000   0.00957   0.00920  -3.11843
   D70        1.07854   0.00151   0.00000   0.00869   0.00860   1.08714
   D71        3.12328  -0.00141   0.00000  -0.00666  -0.00651   3.11677
   D72        1.04622   0.00028   0.00000   0.00185   0.00155   1.04777
   D73       -1.03080   0.00012   0.00000   0.00096   0.00095  -1.02985
   D74        1.06798  -0.00036   0.00000   0.00250   0.00270   1.07068
   D75       -1.00907   0.00132   0.00000   0.01102   0.01075  -0.99832
   D76       -3.08609   0.00116   0.00000   0.01013   0.01016  -3.07593
   D77       -1.17216   0.00394   0.00000   0.00000  -0.00001  -1.17217
   D78        3.06515   0.00023   0.00000  -0.01700  -0.01696   3.04818
   D79        1.01311  -0.00068   0.00000  -0.03745  -0.03774   0.97537
   D80        0.10589   0.00287   0.00000   0.01844   0.01828   0.12416
   D81       -3.01882  -0.00003   0.00000  -0.02541  -0.02514  -3.04396
         Item               Value     Threshold  Converged?
 Maximum Force            0.037662     0.000450     NO 
 RMS     Force            0.006962     0.000300     NO 
 Maximum Displacement     0.322849     0.001800     NO 
 RMS     Displacement     0.055087     0.001200     NO 
 Predicted change in Energy=-1.317607D-02
 GradGradGradGradGradGradGradGradGradGradGradGradGradGradGradGradGradGrad

                          Input orientation:                          
 ---------------------------------------------------------------------
 Center     Atomic      Atomic             Coordinates (Angstroms)
 Number     Number       Type             X           Y           Z
 ---------------------------------------------------------------------
      1          8           0       -3.429945   -1.477712   -0.222584
      2          7           0       -3.130089   -0.291379   -0.027086
      3          8           0       -3.926544    0.641565    0.162419
      4          6           0       -1.701350    0.021337   -0.019967
      5          6           0       -1.313370    1.291498    0.271283
      6          7           0       -0.058085    1.764744    0.380548
      7          6           0        1.198838    1.011444    0.363056
      8          1           0        1.833325    1.521521    1.106660
      9          6           0        1.936791    1.050747   -0.971434
     10          6           0        3.332311    0.441848   -0.792600
     11          6           0        3.257220   -0.969518   -0.198590
     12          6           0        2.429950   -0.999537    1.086767
     13          6           0        1.026400   -0.432048    0.838851
     14          1           0        0.454924   -0.440141    1.780303
     15          7           0        0.384629   -1.301813   -0.139476
     16          6           0       -0.851341   -1.088326   -0.434424
     17          1           0       -2.096805    2.021504    0.464309
     18          1           0        0.072901    2.760956    0.235500
     19          1           0        1.368695    0.486005   -1.718907
     20          1           0        2.011828    2.088564   -1.323855
     21          1           0        3.849070    0.418769   -1.758738
     22          1           0        3.921483    1.087789   -0.126375
     23          1           0        2.791895   -1.644236   -0.925569
     24          1           0        4.266198   -1.350003    0.001301
     25          1           0        2.340544   -2.027964    1.454261
     26          1           0        2.924810   -0.410425    1.870558
     27          1           0       -1.332291   -1.810157   -1.097219
 ---------------------------------------------------------------------
                    Distance matrix (angstroms):
                    1          2          3          4          5
     1  O    0.000000
     2  N    1.239161   0.000000
     3  O    2.210469   1.241224   0.000000
     4  C    2.297007   1.462579   2.317204   0.000000
     5  C    3.520272   2.427960   2.694984   1.359656   0.000000
     6  N    4.716644   3.719007   4.034115   2.429033   1.345973
     7  C    5.288148   4.537529   5.142626   3.088383   2.529435
     8  H    6.201959   5.404393   5.902711   4.001721   3.263810
     9  C    5.979610   5.326009   5.985963   3.898852   3.487958
    10  C    7.052499   6.548759   7.324133   5.109945   4.841085
    11  C    6.706491   6.425496   7.371050   5.059755   5.120866
    12  C    6.023406   5.714559   6.629679   4.397122   4.463888
    13  C    4.698838   4.248063   5.112911   2.895470   2.960957
    14  H    4.492251   4.017599   4.794256   2.846656   2.898720
    15  N    3.819532   3.658804   4.738572   2.473119   3.126849
    16  C    2.616429   2.448212   3.578494   1.457958   2.524887
    17  H    3.807046   2.580421   2.311561   2.095609   1.088089
    18  H    5.517797   4.432250   4.526888   3.273949   2.020479
    19  H    5.396490   4.868844   5.621667   3.539419   3.435570
    20  H    6.598790   5.812491   6.290237   4.445362   3.773158
    21  H    7.677270   7.225759   8.012531   5.829960   5.615463
    22  H    7.786819   7.185864   7.866006   5.724063   5.253886
    23  H    6.263642   6.140634   7.179556   4.876833   5.186925
    24  H    7.700458   7.471717   8.432871   6.123124   6.179158
    25  H    6.034330   5.927727   6.933371   4.765490   5.076353
    26  H    6.775195   6.346419   7.139011   5.016160   4.839049
    27  H    2.296880   2.585333   3.785204   2.156628   3.390194
                    6          7          8          9         10
     6  N    0.000000
     7  C    1.465476   0.000000
     8  H    2.040546   1.102587   0.000000
     9  C    2.513399   1.525445   2.133262   0.000000
    10  C    3.823756   2.492326   2.649498   1.533041   0.000000
    11  C    4.336223   2.911459   3.152210   2.534223   1.533114
    12  C    3.785539   2.466463   2.590770   2.946703   2.534535
    13  C    2.492397   1.529635   2.130558   2.510901   2.956780
    14  H    2.661580   2.160810   2.490362   3.462764   3.959431
    15  N    3.141686   2.503325   3.409221   2.938690   3.486510
    16  C    3.071390   3.041091   4.048909   3.554953   4.469078
    17  H    2.056531   3.448439   4.013542   4.390174   5.792273
    18  H    1.015202   2.084417   2.322544   2.802783   4.130255
    19  H    2.842284   2.153951   3.044996   1.095620   2.171585
    20  H    2.700812   2.160280   2.502160   1.098588   2.176598
    21  H    4.653391   3.446303   3.672845   2.162418   1.095899
    22  H    4.068440   2.767340   2.463515   2.157429   1.099190
    23  H    4.631357   3.354255   3.882116   2.827762   2.159046
    24  H    5.342742   3.887930   3.922542   3.483669   2.170980
    25  H    4.614208   3.425234   3.602352   3.940238   3.483096
    26  H    3.981100   2.696898   2.346763   3.344866   2.825746
    27  H    4.072752   4.062074   5.096889   4.345974   5.188721
                   11         12         13         14         15
    11  C    0.000000
    12  C    1.528863   0.000000
    13  C    2.518276   1.534098   0.000000
    14  H    3.471185   2.166713   1.101355   0.000000
    15  N    2.892351   2.403827   1.457905   2.105462   0.000000
    16  C    4.117038   3.617841   2.361745   2.651694   1.288484
    17  H    6.168568   5.477741   3.989311   3.781911   4.191241
    18  H    4.923897   4.519031   3.386512   3.574826   4.091928
    19  H    2.827797   3.347372   2.738998   3.733255   2.580558
    20  H    3.488422   3.939834   3.464369   4.295824   3.942739
    21  H    2.170642   3.481723   3.929227   4.978229   4.193419
    22  H    2.163093   2.837836   3.409263   4.241112   4.268455
    23  H    1.095569   2.143861   2.774806   3.772668   2.555411
    24  H    1.096705   2.161682   3.469931   4.303313   3.884420
    25  H    2.166223   1.095768   2.157001   2.486574   2.625433
    26  H    2.168976   1.098302   2.160752   2.471714   3.359663
    27  H    4.751612   4.425083   3.348279   3.653931   2.030640
                   16         17         18         19         20
    16  C    0.000000
    17  H    3.468420   0.000000
    18  H    4.014971   2.303642   0.000000
    19  H    3.009480   4.374229   3.267138   0.000000
    20  H    4.368232   4.481394   2.577429   1.771407   0.000000
    21  H    5.110675   6.547070   4.870552   2.481606   2.520475
    22  H    5.254542   6.118867   4.212129   3.068392   2.466230
    23  H    3.717986   6.266482   5.305349   2.681941   3.834180
    24  H    5.142716   7.215901   5.876952   3.837390   4.319949
    25  H    3.825987   6.088371   5.437034   4.163355   4.977126
    26  H    4.475690   5.753993   4.567763   4.013644   4.157254
    27  H    1.091628   4.207668   4.964451   3.599191   5.141451
                   21         22         23         24         25
    21  H    0.000000
    22  H    1.765627   0.000000
    23  H    2.463287   3.062457   0.000000
    24  H    2.529879   2.465351   1.766135   0.000000
    25  H    4.311092   3.834800   2.452459   2.505766   0.000000
    26  H    3.835833   2.688075   3.059131   2.485206   1.769492
    27  H    5.679104   6.078056   4.131090   5.723772   4.477411
                   26         27
    26  H    0.000000
    27  H    5.374929   0.000000
 Symmetry turned off by external request.
 Stoichiometry    C9H13N3O2
 Framework group  C1[X(C9H13N3O2)]
 Deg. of freedom    75
 Full point group                 C1      NOp   1
 Rotational constants (GHZ):           1.6840797           0.4214338           0.3719417
 Standard basis: 6-31G(d) (6D, 7F)
   236 basis functions,   444 primitive gaussians,   236 cartesian basis functions
    52 alpha electrons       52 beta electrons
       nuclear repulsion energy       931.9619574684 Hartrees.
 NAtoms=   27 NActive=   27 NUniq=   27 SFac= 1.00D+00 NAtFMM=   60 NAOKFM=F Big=F
 Integral buffers will be    131072 words long.
 Raffenetti 1 integral format.
 Two-electron integral symmetry is turned off.
 One-electron integrals computed using PRISM.
 NBasis=   236 RedAO= T EigKep=  1.02D-03  NBF=   236
 NBsUse=   236 1.00D-06 EigRej= -1.00D+00 NBFU=   236
 Initial guess from the checkpoint file:  "/home/alexey/tmp/Gau-1335746.chk"
 B after Tr=     0.054756    0.002200   -0.002022
         Rot=    0.999999   -0.000883    0.001278    0.000072 Ang=  -0.18 deg.
 ExpMin= 1.61D-01 ExpMax= 5.48D+03 ExpMxC= 8.25D+02 IAcc=3 IRadAn=         5 AccDes= 0.00D+00
 Harris functional with IExCor=  205 and IRadAn=       5 diagonalized for initial guess.
 HarFok:  IExCor=  205 AccDes= 0.00D+00 IRadAn=         5 IDoV= 1 UseB2=F ITyADJ=14
 ICtDFT=  3500011 ScaDFX=  1.000000  1.000000  1.000000  1.000000
 FoFCou: FMM=F IPFlag=           0 FMFlag=      100000 FMFlg1=           0
         NFxFlg=           0 DoJE=T BraDBF=F KetDBF=T FulRan=T
         wScrn=  0.000000 ICntrl=       500 IOpCl=  0 I1Cent=   200000004 NGrid=           0
         NMat0=    1 NMatS0=      1 NMatT0=    0 NMatD0=    1 NMtDS0=    0 NMtDT0=    0
 Symmetry not used in FoFCou.
 Keep R1 ints in memory in canonical form, NReq=397720213.
 Requested convergence on RMS density matrix=1.00D-08 within 128 cycles.
 Requested convergence on MAX density matrix=1.00D-06.
 Requested convergence on             energy=1.00D-06.
 No special actions if energy rises.
 SCF Done:  E(RHF) =  -661.297308143     A.U. after   14 cycles
            NFock= 14  Conv=0.88D-08     -V/T= 2.0025
 ExpMin= 1.61D-01 ExpMax= 5.48D+03 ExpMxC= 8.25D+02 IAcc=3 IRadAn=         5 AccDes= 0.00D+00
 HarFok:  IExCor=  205 AccDes= 0.00D+00 IRadAn=         5 IDoV=-2 UseB2=F ITyADJ=14
 ICtDFT= 12500011 ScaDFX=  1.000000  1.000000  1.000000  1.000000
 Range of M.O.s used for correlation:    15   236
 NBasis=   236 NAE=    52 NBE=    52 NFC=    14 NFV=     0
 NROrb=    222 NOA=    38 NOB=    38 NVA=   184 NVB=   184
 Fully direct method using O(ONN) memory.
 JobTyp=1 Pass  1:  I=  15 to  52 NPSUse=  4 ParTrn=T ParDer=T DoDerP=T.
 Spin components of T(2) and E(2):
     alpha-alpha T2 =       0.9123272215D-01 E2=     -0.2723058522D+00
     alpha-beta  T2 =       0.4915092321D+00 E2=     -0.1488263472D+01
     beta-beta   T2 =       0.9123272215D-01 E2=     -0.2723058522D+00
 ANorm=    0.1293821733D+01
 E2 =    -0.2032875176D+01 EUMP2 =    -0.66333018331896D+03
          IDoAtm=111111111111111111111111111
          Differentiating once with respect to electric field.
                with respect to dipole field.
          Differentiating once with respect to nuclear coordinates.
 Keep R1 ints in memory in canonical form, NReq=397723379.
          There are     1 degrees of freedom in the 1st order CPHF.  IDoFFX=0 NUNeed=     1.
 LinEq1:  Iter=  0 NonCon=     1 RMS=4.56D-03 Max=1.06D-01 NDo=     1
 AX will form     1 AO Fock derivatives at one time.
 LinEq1:  Iter=  1 NonCon=     1 RMS=1.53D-03 Max=2.67D-02 NDo=     1
 LinEq1:  Iter=  2 NonCon=     1 RMS=6.40D-04 Max=1.76D-02 NDo=     1
 LinEq1:  Iter=  3 NonCon=     1 RMS=2.81D-04 Max=8.34D-03 NDo=     1
 LinEq1:  Iter=  4 NonCon=     1 RMS=8.76D-05 Max=1.85D-03 NDo=     1
 LinEq1:  Iter=  5 NonCon=     1 RMS=3.68D-05 Max=1.83D-03 NDo=     1
 LinEq1:  Iter=  6 NonCon=     1 RMS=1.43D-05 Max=5.15D-04 NDo=     1
 LinEq1:  Iter=  7 NonCon=     1 RMS=5.53D-06 Max=9.94D-05 NDo=     1
 LinEq1:  Iter=  8 NonCon=     1 RMS=2.25D-06 Max=6.65D-05 NDo=     1
[...]
    27  H    4.713554   4.414813   3.353991   3.661916   2.024563
                   16         17         18         19         20
    16  C    0.000000
    17  H    3.456722   0.000000
    18  H    4.069323   2.226851   0.000000
    19  H    2.981568   4.319219   3.512401   0.000000
    20  H    4.363302   4.462363   2.885953   1.768513   0.000000
    21  H    5.090498   6.521369   5.088825   2.498887   2.521272
    22  H    5.241904   6.102267   4.315530   3.070138   2.461142
    23  H    3.696623   6.240201   5.419953   2.705089   3.843341
    24  H    5.134431   7.200689   5.936149   3.850238   4.317182
    25  H    3.825165   6.079162   5.366243   4.172088   4.985447
    26  H    4.495324   5.772616   4.486007   4.038804   4.184902
    27  H    1.089564   4.212577   5.057277   3.558611   5.123569
                   21         22         23         24         25
    21  H    0.000000
    22  H    1.758808   0.000000
    23  H    2.469125   3.062087   0.000000
    24  H    2.517205   2.459701   1.764573   0.000000
    25  H    4.312097   3.840450   2.443492   2.520338   0.000000
    26  H    3.847917   2.706234   3.060356   2.490730   1.767910
    27  H    5.632309   6.043391   4.080394   5.686479   4.455976
                   26         27
    26  H    0.000000
    27  H    5.375354   0.000000
 Symmetry turned off by external request.
 Stoichiometry    C9H13N3O2
 Framework group  C1[X(C9H13N3O2)]
 Deg. of freedom    75
 Full point group                 C1      NOp   1
 Rotational constants (GHZ):           1.6787874           0.4189729           0.3716522

 **********************************************************************

            Population analysis using the SCF Density.

 **********************************************************************

 Alpha  occ. eigenvalues --  -20.59369 -20.58903 -15.84804 -15.64176 -15.56055
 Alpha  occ. eigenvalues --  -11.35164 -11.29611 -11.29392 -11.28637 -11.27082
 Alpha  occ. eigenvalues --  -11.23707 -11.23198 -11.22677 -11.22076  -1.57185
 Alpha  occ. eigenvalues --   -1.36784  -1.31021  -1.23018  -1.14706  -1.09815
 Alpha  occ. eigenvalues --   -1.02827  -1.01327  -0.94721  -0.89637  -0.85582
 Alpha  occ. eigenvalues --   -0.82384  -0.78503  -0.77440  -0.75214  -0.72139
 Alpha  occ. eigenvalues --   -0.69860  -0.69474  -0.67827  -0.64919  -0.63719
 Alpha  occ. eigenvalues --   -0.62300  -0.60161  -0.57725  -0.56971  -0.55016
 Alpha  occ. eigenvalues --   -0.54540  -0.50785  -0.50086  -0.48795  -0.48054
 Alpha  occ. eigenvalues --   -0.47419  -0.46102  -0.46048  -0.43684  -0.41624
 Alpha  occ. eigenvalues --   -0.39732  -0.33920
 Alpha virt. eigenvalues --    0.07268   0.12063   0.17238   0.21831   0.24086
 Alpha virt. eigenvalues --    0.25691   0.27120   0.28681   0.29058   0.29612
 Alpha virt. eigenvalues --    0.30653   0.31867   0.31998   0.32772   0.33969
 Alpha virt. eigenvalues --    0.34392   0.35855   0.37089   0.38612   0.40431
 Alpha virt. eigenvalues --    0.41556   0.42453   0.45068   0.46024   0.46579
 Alpha virt. eigenvalues --    0.47092   0.48900   0.53748   0.57460   0.59562
 Alpha virt. eigenvalues --    0.63806   0.69603   0.70120   0.72846   0.74242
 Alpha virt. eigenvalues --    0.75202   0.75756   0.76753   0.78778   0.79469
 Alpha virt. eigenvalues --    0.81282   0.84783   0.85654   0.85827   0.88520
 Alpha virt. eigenvalues --    0.89432   0.90943   0.92244   0.92821   0.94504
 Alpha virt. eigenvalues --    0.95617   0.98089   0.99626   1.01722   1.02462
 Alpha virt. eigenvalues --    1.03115   1.05806   1.06886   1.07593   1.09044
 Alpha virt. eigenvalues --    1.10274   1.11241   1.11851   1.12461   1.13937
 Alpha virt. eigenvalues --    1.14755   1.14995   1.15850   1.16935   1.18746
 Alpha virt. eigenvalues --    1.19176   1.21357   1.22351   1.23744   1.24300
 Alpha virt. eigenvalues --    1.24798   1.26026   1.26923   1.27577   1.29644
 Alpha virt. eigenvalues --    1.30201   1.33064   1.35834   1.36969   1.41009
 Alpha virt. eigenvalues --    1.42293   1.47090   1.49001   1.51166   1.54969
 Alpha virt. eigenvalues --    1.55572   1.58746   1.59754   1.63389   1.65565
 Alpha virt. eigenvalues --    1.67869   1.68869   1.72767   1.75242   1.77341
 Alpha virt. eigenvalues --    1.81514   1.84433   1.87637   1.90710   1.93487
 Alpha virt. eigenvalues --    1.95815   1.96985   1.99607   2.01428   2.02912
 Alpha virt. eigenvalues --    2.04636   2.06018   2.08113   2.09795   2.12484
 Alpha virt. eigenvalues --    2.13378   2.15426   2.18828   2.20141   2.22147
 Alpha virt. eigenvalues --    2.22719   2.24457   2.25497   2.28185   2.29534
 Alpha virt. eigenvalues --    2.31917   2.33926   2.34891   2.36233   2.38454
 Alpha virt. eigenvalues --    2.40307   2.41623   2.43209   2.45141   2.47240
 Alpha virt. eigenvalues --    2.51029   2.52040   2.53108   2.55555   2.62079
 Alpha virt. eigenvalues --    2.62482   2.65241   2.67507   2.70439   2.70588
 Alpha virt. eigenvalues --    2.72378   2.72794   2.76950   2.78611   2.83785
 Alpha virt. eigenvalues --    2.88736   2.89131   2.92883   2.93028   2.96232
 Alpha virt. eigenvalues --    2.99417   3.01466   3.03861   3.05594   3.07621
 Alpha virt. eigenvalues --    3.09366   3.15141   3.21578   3.24849   3.27597
 Alpha virt. eigenvalues --    3.33652   3.37633   3.39106   3.52731   3.65391
 Alpha virt. eigenvalues --    4.13448   4.28734   4.34590   4.38381   4.46397
 Alpha virt. eigenvalues --    4.56542   4.61897   4.62393   4.73421   4.79791
 Alpha virt. eigenvalues --    4.99337   5.00942   5.04874   5.11146
          Condensed to atoms (all electrons):
               1          2          3          4          5          6
     1  O    8.316305   0.307558  -0.082365  -0.084278   0.004389  -0.000013
     2  N    0.307558   5.726748   0.302660   0.260279  -0.048987   0.000934
     3  O   -0.082365   0.302660   8.349961  -0.094858   0.006289   0.000665
     4  C   -0.084278   0.260279  -0.094858   5.221306   0.562839  -0.045269
     5  C    0.004389  -0.048987   0.006289   0.562839   4.695143   0.320418
     6  N   -0.000013   0.000934   0.000665  -0.045269   0.320418   7.194005
     7  C    0.000004  -0.000128   0.000003   0.004706  -0.030595   0.167991
     8  H   -0.000000   0.000002  -0.000000  -0.000280   0.003158  -0.050862
     9  C   -0.000000  -0.000004  -0.000000   0.000902   0.000605  -0.061052
    10  C    0.000000   0.000000   0.000000  -0.000040  -0.000049   0.003731
    11  C   -0.000000  -0.000000  -0.000000  -0.000025   0.000025  -0.000192
    12  C   -0.000000   0.000002  -0.000000  -0.000149  -0.000155   0.003900
    13  C   -0.000030  -0.000050  -0.000004  -0.011420  -0.000477  -0.048303
    14  H   -0.000004  -0.000100   0.000001   0.002822   0.006146  -0.007101
    15  N    0.000339   0.002460  -0.000018  -0.063363  -0.005786   0.001361
    16  C   -0.000511  -0.030775   0.002652   0.326238  -0.050471  -0.002758
    17  H    0.000172  -0.006386   0.015699  -0.023591   0.374941  -0.035289
    18  H    0.000001  -0.000045   0.000009   0.001518  -0.031638   0.338975
    19  H    0.000001  -0.000004   0.000000  -0.001169   0.001200  -0.000348
    20  H    0.000000  -0.000000   0.000000  -0.000075   0.000138  -0.000431
    21  H   -0.000000   0.000000  -0.000000   0.000001   0.000001  -0.000076
    22  H   -0.000000   0.000000  -0.000000  -0.000000  -0.000003  -0.000116
    23  H    0.000000  -0.000000   0.000000   0.000040  -0.000001  -0.000030
    24  H    0.000000   0.000000   0.000000   0.000000  -0.000000   0.000006
    25  H    0.000000  -0.000000   0.000000   0.000024  -0.000001  -0.000091
    26  H    0.000000  -0.000000   0.000000   0.000007  -0.000003  -0.000061
    27  H    0.005608  -0.001229   0.000001  -0.063606   0.002364   0.000020
               7          8          9         10         11         12
     1  O    0.000004  -0.000000  -0.000000   0.000000  -0.000000  -0.000000
     2  N   -0.000128   0.000002  -0.000004   0.000000  -0.000000   0.000002
     3  O    0.000003  -0.000000  -0.000000   0.000000  -0.000000  -0.000000
     4  C    0.004706  -0.000280   0.000902  -0.000040  -0.000025  -0.000149
     5  C   -0.030595   0.003158   0.000605  -0.000049   0.000025  -0.000155
     6  N    0.167991  -0.050862  -0.061052   0.003731  -0.000192   0.003900
     7  C    5.016678   0.418425   0.350683  -0.054816  -0.009020  -0.061149
     8  H    0.418425   0.538789  -0.055243   0.000829  -0.000334  -0.002104
     9  C    0.350683  -0.055243   5.158135   0.324665  -0.050312  -0.005401
    10  C   -0.054816   0.000829   0.324665   5.119533   0.337032  -0.060872
    11  C   -0.009020  -0.000334  -0.050312   0.337032   5.119594   0.335962
    12  C   -0.061149  -0.002104  -0.005401  -0.060872   0.335962   5.118335
    13  C    0.339997  -0.038201  -0.059910  -0.000290  -0.050586   0.372200
    14  H   -0.046317  -0.000762   0.004419  -0.000406   0.004200  -0.036517
    15  N   -0.058209   0.003981  -0.015118   0.001545  -0.012971  -0.082032
    16  C   -0.001775   0.000035  -0.001539  -0.000015   0.000016   0.002608
    17  H    0.001696  -0.000045  -0.000075   0.000001   0.000000   0.000000
    18  H   -0.021239  -0.004478   0.001317  -0.000083   0.000004  -0.000115
    19  H   -0.036703   0.004364   0.390168  -0.031973  -0.002209   0.000699
    20  H   -0.042443  -0.002128   0.399445  -0.035340   0.003932  -0.000416
    21  H    0.004602  -0.000077  -0.036344   0.402436  -0.034869   0.004340
    22  H   -0.004816   0.003558  -0.046973   0.397728  -0.045466  -0.000987
    23  H    0.000581   0.000034  -0.001951  -0.038999   0.399119  -0.037774
    24  H   -0.000129  -0.000102   0.004386  -0.038456   0.402341  -0.038727
    25  H    0.005147  -0.000028  -0.000421   0.004183  -0.033421   0.398199
    26  H   -0.003875   0.001691   0.000959  -0.002202  -0.041522   0.396757
    27  H   -0.000428   0.000009  -0.000063   0.000007   0.000012  -0.000033
              13         14         15         16         17         18
     1  O   -0.000030  -0.000004   0.000339  -0.000511   0.000172   0.000001
     2  N   -0.000050  -0.000100   0.002460  -0.030775  -0.006386  -0.000045
     3  O   -0.000004   0.000001  -0.000018   0.002652   0.015699   0.000009
     4  C   -0.011420   0.002822  -0.063363   0.326238  -0.023591   0.001518
     5  C   -0.000477   0.006146  -0.005786  -0.050471   0.374941  -0.031638
     6  N   -0.048303  -0.007101   0.001361  -0.002758  -0.035289   0.338975
     7  C    0.339997  -0.046317  -0.058209  -0.001775   0.001696  -0.021239
     8  H   -0.038201  -0.000762   0.003981   0.000035  -0.000045  -0.004478
     9  C   -0.059910   0.004419  -0.015118  -0.001539  -0.000075   0.001317
    10  C   -0.000290  -0.000406   0.001545  -0.000015   0.000001  -0.000083
    11  C   -0.050586   0.004200  -0.012971   0.000016   0.000000   0.000004
    12  C    0.372200  -0.036517  -0.082032   0.002608   0.000000  -0.000115
    13  C    5.040642   0.402730   0.243216  -0.071331  -0.000013   0.003024
    14  H    0.402730   0.527208  -0.037037  -0.004527   0.000098  -0.000100
    15  N    0.243216  -0.037037   6.964767   0.586017  -0.000081  -0.000133
    16  C   -0.071331  -0.004527   0.586017   4.717415   0.002315  -0.000194
    17  H   -0.000013   0.000098  -0.000081   0.002315   0.385672  -0.003083
    18  H    0.003024  -0.000100  -0.000133  -0.000194  -0.003083   0.310379
    19  H   -0.007581   0.000103   0.007776   0.003072   0.000016  -0.000147
    20  H    0.004337  -0.000065   0.000132  -0.000035   0.000002   0.000804
    21  H   -0.000429   0.000010  -0.000041   0.000003  -0.000000   0.000001
    22  H    0.000025  -0.000056   0.000019  -0.000002   0.000000   0.000001
    23  H   -0.007518   0.000002   0.008580   0.000105   0.000000   0.000000
    24  H    0.004696  -0.000056   0.000140   0.000007   0.000000  -0.000000
    25  H   -0.035511  -0.002796   0.000365  -0.000024  -0.000000   0.000002
    26  H   -0.047473  -0.001046   0.004905  -0.000062   0.000000  -0.000000
    27  H    0.005200  -0.000183  -0.041080   0.404086  -0.000081   0.000001
              19         20         21         22         23         24
     1  O    0.000001   0.000000  -0.000000  -0.000000   0.000000   0.000000
     2  N   -0.000004  -0.000000   0.000000   0.000000  -0.000000   0.000000
     3  O    0.000000   0.000000  -0.000000  -0.000000   0.000000   0.000000
     4  C   -0.001169  -0.000075   0.000001  -0.000000   0.000040   0.000000
     5  C    0.001200   0.000138   0.000001  -0.000003  -0.000001  -0.000000
     6  N   -0.000348  -0.000431  -0.000076  -0.000116  -0.000030   0.000006
     7  C   -0.036703  -0.042443   0.004602  -0.004816   0.000581  -0.000129
     8  H    0.004364  -0.002128  -0.000077   0.003558   0.000034  -0.000102
     9  C    0.390168   0.399445  -0.036344  -0.046973  -0.001951   0.004386
    10  C   -0.031973  -0.035340   0.402436   0.397728  -0.038999  -0.038456
    11  C   -0.002209   0.003932  -0.034869  -0.045466   0.399119   0.402341
    12  C    0.000699  -0.000416   0.004340  -0.000987  -0.037774  -0.038727
    13  C   -0.007581   0.004337  -0.000429   0.000025  -0.007518   0.004696
    14  H    0.000103  -0.000065   0.000010  -0.000056   0.000002  -0.000056
    15  N    0.007776   0.000132  -0.000041   0.000019   0.008580   0.000140
    16  C    0.003072  -0.000035   0.000003  -0.000002   0.000105   0.000007
    17  H    0.000016   0.000002  -0.000000   0.000000   0.000000   0.000000
    18  H   -0.000147   0.000804   0.000001   0.000001   0.000000  -0.000000
    19  H    0.504210  -0.024740  -0.002792   0.003954   0.001506  -0.000066
    20  H   -0.024740   0.541590  -0.002681  -0.003004  -0.000045  -0.000083
    21  H   -0.002792  -0.002681   0.523981  -0.027413  -0.002901  -0.002237
    22  H    0.003954  -0.003004  -0.027413   0.571520   0.004141  -0.003665
    23  H    0.001506  -0.000045  -0.002901   0.004141   0.498946  -0.025474
    24  H   -0.000066  -0.000083  -0.002237  -0.003665  -0.025474   0.538301
    25  H   -0.000028   0.000012  -0.000087  -0.000080  -0.002329  -0.002273
    26  H    0.000019  -0.000030  -0.000081   0.002379   0.004069  -0.003055
    27  H    0.000083   0.000000  -0.000000   0.000000  -0.000037  -0.000000
              25         26         27
     1  O    0.000000   0.000000   0.005608
     2  N   -0.000000  -0.000000  -0.001229
     3  O    0.000000   0.000000   0.000001
     4  C    0.000024   0.000007  -0.063606
     5  C   -0.000001  -0.000003   0.002364
     6  N   -0.000091  -0.000061   0.000020
     7  C    0.005147  -0.003875  -0.000428
     8  H   -0.000028   0.001691   0.000009
     9  C   -0.000421   0.000959  -0.000063
    10  C    0.004183  -0.002202   0.000007
    11  C   -0.033421  -0.041522   0.000012
    12  C    0.398199   0.396757  -0.000033
    13  C   -0.035511  -0.047473   0.005200
    14  H   -0.002796  -0.001046  -0.000183
    15  N    0.000365   0.004905  -0.041080
    16  C   -0.000024  -0.000062   0.404086
    17  H   -0.000000   0.000000  -0.000081
    18  H    0.000002  -0.000000   0.000001
    19  H   -0.000028   0.000019   0.000083
    20  H    0.000012  -0.000030   0.000000
    21  H   -0.000087  -0.000081  -0.000000
    22  H   -0.000080   0.002379   0.000000
    23  H   -0.002329   0.004069  -0.000037
    24  H   -0.002273  -0.003055  -0.000000
    25  H    0.506384  -0.024102  -0.000013
    26  H   -0.024102   0.562504   0.000001
    27  H   -0.000013   0.000001   0.442559
 Mulliken charges:
               1
     1  O   -0.467174
     2  N    0.487065
     3  O   -0.500695
     4  C    0.007439
     5  C    0.190509
     6  N   -0.780010
     7  C    0.061127
     8  H    0.179768
     9  C   -0.301278
    10  C   -0.328151
    11  C   -0.321310
    12  C   -0.306569
    13  C   -0.036939
    14  H    0.189334
    15  N   -0.509733
    16  C    0.119453
    17  H    0.288030
    18  H    0.405219
    19  H    0.190590
    20  H    0.161124
    21  H    0.174651
    22  H    0.149256
    23  H    0.199937
    24  H    0.164446
    25  H    0.186885
    26  H    0.150221
    27  H    0.246803
 Sum of Mulliken charges =  -0.00000
 Mulliken charges with hydrogens summed into heavy atoms:
               1
     1  O   -0.467174
     2  N    0.487065
     3  O   -0.500695
     4  C    0.007439
     5  C    0.478539
     6  N   -0.374791
     7  C    0.240895
     9  C    0.050436
    10  C   -0.004244
    11  C    0.043073
    12  C    0.030538
    13  C    0.152395
    15  N   -0.509733
    16  C    0.366256
 Electronic spatial extent (au):  <R**2>=           3008.1669
 Charge=             -0.0000 electrons
 Dipole moment (field-independent basis, Debye):
    X=              5.4009    Y=              4.9040    Z=              1.2431  Tot=              7.4003
 Quadrupole moment (field-independent basis, Debye-Ang):
   XX=           -106.0161   YY=            -79.2541   ZZ=            -81.4514
   XY=             -2.1014   XZ=              0.1083   YZ=              1.8817
 Traceless Quadrupole moment (field-independent basis, Debye-Ang):
   XX=            -17.1089   YY=              9.6531   ZZ=              7.4558
   XY=             -2.1014   XZ=              0.1083   YZ=              1.8817
 Octapole moment (field-independent basis, Debye-Ang**2):
  XXX=             92.4099  YYY=             37.8160  ZZZ=             -1.8023  XYY=             -4.0410
  XXY=             10.5548  XXZ=              3.6726  XZZ=             -9.8669  YZZ=             -0.3231
  YYZ=              8.0343  XYZ=              0.1038
 Hexadecapole moment (field-independent basis, Debye-Ang**3):
 XXXX=          -3386.1732 YYYY=           -601.9828 ZZZZ=           -303.4099 XXXY=            -29.5486
 XXXZ=             -5.2481 YYYX=            -17.9488 YYYZ=             24.7363 ZZZX=              5.3109
 ZZZY=              7.2381 XXYY=           -628.3175 XXZZ=           -523.6204 YYZZ=           -157.4784
 XXYZ=             -3.6503 YYXZ=              2.7284 ZZXY=              2.9103
 N-N= 9.310672815714D+02 E-N=-3.408845898706D+03  KE= 6.596302115070D+02
 Unable to Open any file for archive entry.
 1\1\GINC-LOTUS\FOpt\RMP2-FC\6-31G(d)\C9H13N3O2\ALEXEY\01-Jul-2023\0\\#
 MP2/6-31G* SCF=Tight Opt=(ModRedun, MaxCycle=20 ) NoSymm\\MolName:\\0,
 1\O,-3.4731656506,-1.441473969,-0.3427016529\N,-3.125755258,-0.2694965
 809,-0.1044425984\O,-3.9276767226,0.6692912344,0.0723734414\C,-1.70603
 92227,0.0016630525,-0.0144419896\C,-1.298227996,1.2757328885,0.2753145
 356\N,-0.0501165593,1.7583072167,0.3769029683\C,1.2111065992,1.0298978
 052,0.3528986877\H,1.8585792586,1.5593132718,1.0684006565\C,1.91939022
 13,1.0350186095,-1.0002021429\C,3.313295651,0.4198739184,-0.8292954745
 \C,3.2544700363,-0.9751047186,-0.200826946\C,2.4541455153,-0.979725358
 6,1.1035647778\C,1.0501073793,-0.4145865765,0.8627248472\H,0.470731151
 4,-0.3876605555,1.7992684553\N,0.399678192,-1.2964687388,-0.0999320934
 \C,-0.843810231,-1.1054793296,-0.4017845031\H,-2.0843319169,2.01105906
 65,0.433212241\H,0.0116270745,2.7431568158,0.6059932366\H,1.3248589864
 ,0.4607428536,-1.7184355692\H,1.9934745659,2.0622716693,-1.3782951074\
 H,3.8210305438,0.3772412833,-1.7996301533\H,3.914569128,1.0833968721,-
 0.1915258994\H,2.7756417555,-1.6698406348,-0.8978569314\H,4.2707644934
 ,-1.3442563694,-0.0190384575\H,2.3596423762,-2.0010056338,1.4870809823
 \H,2.9657401138,-0.3858428028,1.8736031999\H,-1.2977394848,-1.85099528
 94,-1.0539385107\\Version=ES64L-G16RevC.02\HF=-661.2996956\MP2=-663.33
 39027\RMSD=7.606e-09\RMSF=2.343e-03\Dipole=1.9749436,1.7229137,0.45852
 16\PG=C01 [X(C9H13N3O2)]\\@
 The archive entry for this job was punched.


 ... THE UNIVERSE IS NOT ONLY QUEERER THAN WE SUPPOSE,
 BUT QUEERER THAN WE CAN SUPPOSE ... 

                                   -- J. B. S. HALDANE
 Job cpu time:       0 days  1 hours  5 minutes 23.4 seconds.
 Elapsed time:       0 days  0 hours 19 minutes 37.5 seconds.
 File lengths (MBytes):  RWF=     36 Int=      0 D2E=      0 Chk=      7 Scr=      1
 Normal termination of Gaussian 16 at Sat Jul  1 14:25:07 2023.
