 Entering Gaussian System, Link 0=g16
 Initial command:
 /home/alexey/programs//g16/l1.exe "/home/alexey/tmp/Gau-1338265.inp" -scrdir="/home/alexey/tmp/"
 Entering Link 1 = /home/alexey/programs//g16/l1.exe PID=   1338267.
  
 Copyright (c) 1988-2021, Gaussian, Inc.  All Rights Reserved.
  
 This is part of the Gaussian(R) 16 program.  It is based on
 the Gaussian(R) 09 system (copyright 2009, Gaussian, Inc.),
 the Gaussian(R) 03 system (copyright 2003, Gaussian, Inc.),
 the Gaussian(R) 98 system (copyright 1998, Gaussian, Inc.),
 the Gaussian(R) 94 system (copyright 1995, Gaussian, Inc.),
 the Gaussian 92(TM) system (copyright 1992, Gaussian, Inc.),
 the Gaussian 90(TM) system (copyright 1990, Gaussian, Inc.),
 the Gaussian 88(TM) system (copyright 1988, Gaussian, Inc.),
 the Gaussian 86(TM) system (copyright 1986, Carnegie Mellon
 University), and the Gaussian 82(TM) system (copyright 1983,
 Carnegie Mellon University). Gaussian is a federally registered
 trademark of Gaussian, Inc.
  
 This software contains proprietary and confidential information,
 including trade secrets, belonging to Gaussian, Inc.
  
 This software is provided under written license and may be
 used, copied, transmitted, or stored only in accord with that
 written license.
  
 The following legend is applicable only to US Government
 contracts under FAR:
  
                    RESTRICTED RIGHTS LEGEND
  
 Use, reproduction and disclosure by the US Government is
 subject to restrictions as set forth in subparagraphs (a)
 and (c) of the Commercial Computer Software - Restricted
 Rights clause in FAR 52.227-19.
  
 Gaussian, Inc.
 340 Quinnipiac St., Bldg. 40, Wallingford CT 06492
  
  
 ---------------------------------------------------------------
 Warning -- This program may not be used in any manner that
 competes with the business of Gaussian, Inc. or will provide
 assistance to any competitor of Gaussian, Inc.  The licensee
 of this program is prohibited from giving any competitor of
 Gaussian, Inc. access to this program.  By using this program,
 the user acknowledges that Gaussian, Inc. is engaged in the
 business of creating and licensing software in the field of
 computational chemistry and represents and warrants to the
 licensee that it is not a competitor of Gaussian, Inc. and that
 it will not use this program in any manner prohibited above.
 ---------------------------------------------------------------
  

 Cite this work as:
 Gaussian 16, Revision C.02,
 M. J. Frisch, G. W. Trucks, H. B. Schlegel, G. E. Scuseria, 
 M. A. Robb, J. R. Cheeseman, G. Scalmani, V. Barone, 
 G. A. Petersson, H. Nakatsuji, X. Li, M. Caricato, A. V. Marenich, 
 J. Bloino, B. G. Janesko, R. Gomperts, B. Mennucci, H. P. Hratchian, 
 J. V. Ortiz, A. F. Izmaylov, J. L. Sonnenberg, D. Williams-Young, 
 F. Ding, F. Lipparini, F. Egidi, J. Goings, B. Peng, A. Petrone, 
 T. Henderson, D. Ranasinghe, V. G. Zakrzewski, J. Gao, N. Rega, 
 G. Zheng, W. Liang, M. Hada, M. Ehara, K. Toyota, R. Fukuda, 
 J. Hasegawa, M. Ishida, T. Nakajima, Y. Honda, O. Kitao, H. Nakai, 
 T. Vreven, K. Throssell, J. A. Montgomery, Jr., J. E. Peralta, 
 F. Ogliaro, M. J. Bearpark, J. J. Heyd, E. N. Brothers, K. N. Kudin, 
 V. N. Staroverov, T. A. Keith, R. Kobayashi, J. Normand, 
 K. Raghavachari, A. P. Rendell, J. C. Burant, S. S. Iyengar, 
 J. Tomasi, M. Cossi, J. M. Millam, M. Klene, C. Adamo, R. Cammi, 
 J. W. Ochterski, R. L. Martin, K. Morokuma, O. Farkas, 
 J. B. Foresman, and D. J. Fox, Gaussian, Inc., Wallingford CT, 2019.
 
 ******************************************
 Gaussian 16:  ES64L-G16RevC.02  7-Dec-2021
                 1-Jul-2023 
 ******************************************
 %mem=8GB
 %NPROCS=4
 Will use up to    4 processors via shared memory.
 %NoSave
 ---------------------------------------------------------
 #MP2/6-31G* SCF=Tight Opt=(ModRedun, MaxCycle=20 ) NoSymm
 ---------------------------------------------------------
 1/6=20,18=120,19=15,38=1/1,3;
 2/9=110,12=2,15=1,17=6,18=5,40=1/2;
 3/5=1,6=6,7=1,11=9,25=1,30=1,71=1/1,2,3;
 4//1;
 5/5=2,32=2,38=5/2;
 8/6=4,10=2/1;
 9/15=2,16=-3/6;
 10/5=1,31=1/2;
 6/7=2,8=2,9=2,10=2/1;
 7/12=2,30=1/1,2,3,16;
 1/6=20,18=20,19=15/3(2);
 2/9=110,15=1/2;
 99//99;
 2/9=110,15=1/2;
 3/5=1,6=6,7=1,11=9,25=1,30=1,71=1/1,2,3;
 4/5=5,16=3,69=1/1;
 5/5=2,32=2,38=5/2;
 8/6=4,10=2/1;
 9/15=2,16=-3/6;
 10/5=1,31=1/2;
 7/12=2,30=1/1,2,3,16;
 1/6=20,18=20,19=15/3(-8);
 2/9=110,15=1/2;
 6/7=2,8=2,9=2,10=2/1;
 99/9=10/99;
 --------
 MolName:
 --------
 Symbolic Z-matrix:
 Charge =  0 Multiplicity = 1
 8                    0    -3.57203  -1.53085  -0.16572 
 7                    0    -3.25694  -0.35448   0.01113 
 8                    0    -4.06172   0.54837   0.2344 
 6                    0    -1.78939   0.04     -0.02871 
 6                    0    -1.3603    1.33368   0.28691 
 7                    0    -0.06814   1.78996   0.35406 
 6                    0     1.20476   1.00962   0.34203 
 1                    0     1.86284   1.50272   1.10413 
 6                    0     1.98937   1.05035  -0.99298 
 6                    0     3.39078   0.44616  -0.78233 
 6                    0     3.30135  -0.96849  -0.18828 
 6                    0     2.43331  -0.99049   1.08866 
 6                    0     1.00772  -0.43309   0.82425 
 1                    0     0.44646  -0.46589   1.7875 
 7                    0     0.35377  -1.28594  -0.16809 
 6                    0    -0.88024  -1.05508  -0.48026 
 1                    0    -2.13783   2.06881   0.55267 
 1                    0     0.16505   2.76534   0.15282 
 1                    0     1.44456   0.48087  -1.77571 
 1                    0     2.09448   2.0991   -1.3433 
 1                    0     3.93969   0.41464  -1.74889 
 1                    0     3.96579   1.09286  -0.08248 
 1                    0     2.85576  -1.65203  -0.94593 
 1                    0     4.32094  -1.34612   0.04403 
 1                    0     2.35419  -2.03616   1.45886 
 1                    0     2.92538  -0.38749   1.88039 
 1                    0    -1.36661  -1.77137  -1.16017 
 
 The following ModRedundant input section has been read:
 A       2       4       5 F                                                   
 D       1       2       4      16 F                                           
 D       7      13      15      16 F                                           
 D       7       9      10      11 F                                           
 D       9      10      11      12 F                                           
 D       6       7      13      15 F                                           
 

 GradGradGradGradGradGradGradGradGradGradGradGradGradGradGradGradGradGrad
 Berny optimization.
 Initialization pass.
                           ----------------------------
                           !    Initial Parameters    !
                           ! (Angstroms and Degrees)  !
 --------------------------                            --------------------------
 ! Name  Definition              Value          Derivative Info.                !
 --------------------------------------------------------------------------------
 ! R1    R(1,2)                  1.2306         estimate D2E/DX2                !
 ! R2    R(2,3)                  1.2299         estimate D2E/DX2                !
 ! R3    R(2,4)                  1.5202         estimate D2E/DX2                !
 ! R4    R(4,5)                  1.3991         estimate D2E/DX2                !
 ! R5    R(4,16)                 1.4932         estimate D2E/DX2                !
 ! R6    R(5,6)                  1.372          estimate D2E/DX2                !
 ! R7    R(5,17)                 1.1025         estimate D2E/DX2                !
 ! R8    R(6,7)                  1.4931         estimate D2E/DX2                !
 ! R9    R(6,18)                 1.0229         estimate D2E/DX2                !
 ! R10   R(7,8)                  1.1212         estimate D2E/DX2                !
 ! R11   R(7,9)                  1.549          estimate D2E/DX2                !
 ! R12   R(7,13)                 1.5339         estimate D2E/DX2                !
 ! R13   R(9,10)                 1.5406         estimate D2E/DX2                !
 ! R14   R(9,19)                 1.1108         estimate D2E/DX2                !
 ! R15   R(9,20)                 1.1107         estimate D2E/DX2                !
 ! R16   R(10,11)                1.5369         estimate D2E/DX2                !
 ! R17   R(10,21)                1.112          estimate D2E/DX2                !
 ! R18   R(10,22)                1.1129         estimate D2E/DX2                !
 ! R19   R(11,12)                1.5442         estimate D2E/DX2                !
 ! R20   R(11,23)                1.1135         estimate D2E/DX2                !
 ! R21   R(11,24)                1.1118         estimate D2E/DX2                !
 ! R22   R(12,13)                1.5534         estimate D2E/DX2                !
 ! R23   R(12,25)                1.1121         estimate D2E/DX2                !
 ! R24   R(12,26)                1.1102         estimate D2E/DX2                !
 ! R25   R(13,14)                1.1153         estimate D2E/DX2                !
 ! R26   R(13,15)                1.4628         estimate D2E/DX2                !
 ! R27   R(15,16)                1.2936         estimate D2E/DX2                !
 ! R28   R(16,27)                1.1009         estimate D2E/DX2                !
 ! A1    A(1,2,3)              124.0748         estimate D2E/DX2                !
 ! A2    A(1,2,4)              119.4376         estimate D2E/DX2                !
 ! A3    A(3,2,4)              116.4849         estimate D2E/DX2                !
 ! A4    A(2,4,5)              122.014          Frozen                          !
 ! A5    A(2,4,16)             113.9163         estimate D2E/DX2                !
 ! A6    A(5,4,16)             124.0299         estimate D2E/DX2                !
 ! A7    A(4,5,6)              127.4027         estimate D2E/DX2                !
 ! A8    A(4,5,17)             117.0411         estimate D2E/DX2                !
 ! A9    A(6,5,17)             115.5082         estimate D2E/DX2                !
 ! A10   A(5,6,7)              128.9549         estimate D2E/DX2                !
 ! A11   A(5,6,18)             121.4807         estimate D2E/DX2                !
 ! A12   A(7,6,18)             107.6036         estimate D2E/DX2                !
 ! A13   A(6,7,8)              105.3706         estimate D2E/DX2                !
 ! A14   A(6,7,9)              115.1517         estimate D2E/DX2                !
 ! A15   A(6,7,13)             112.304          estimate D2E/DX2                !
 ! A16   A(8,7,9)              106.0784         estimate D2E/DX2                !
 ! A17   A(8,7,13)             105.9843         estimate D2E/DX2                !
 ! A18   A(9,7,13)             111.1456         estimate D2E/DX2                !
 ! A19   A(7,9,10)             109.427          estimate D2E/DX2                !
 ! A20   A(7,9,19)             110.206          estimate D2E/DX2                !
 ! A21   A(7,9,20)             110.1566         estimate D2E/DX2                !
 ! A22   A(10,9,19)            109.9659         estimate D2E/DX2                !
 ! A23   A(10,9,20)            109.1082         estimate D2E/DX2                !
 ! A24   A(19,9,20)            107.9541         estimate D2E/DX2                !
 ! A25   A(9,10,11)            111.1557         estimate D2E/DX2                !
 ! A26   A(9,10,21)            109.9561         estimate D2E/DX2                !
 ! A27   A(9,10,22)            109.1523         estimate D2E/DX2                !
 ! A28   A(11,10,21)           109.7916         estimate D2E/DX2                !
 ! A29   A(11,10,22)           108.775          estimate D2E/DX2                !
 ! A30   A(21,10,22)           107.9399         estimate D2E/DX2                !
 ! A31   A(10,11,12)           111.435          estimate D2E/DX2                !
 ! A32   A(10,11,23)           108.9854         estimate D2E/DX2                !
 ! A33   A(10,11,24)           109.8788         estimate D2E/DX2                !
 ! A34   A(12,11,23)           109.2066         estimate D2E/DX2                !
 ! A35   A(12,11,24)           109.7476         estimate D2E/DX2                !
 ! A36   A(23,11,24)           107.497          estimate D2E/DX2                !
 ! A37   A(11,12,13)           111.717          estimate D2E/DX2                !
 ! A38   A(11,12,25)           109.1877         estimate D2E/DX2                !
 ! A39   A(11,12,26)           109.4402         estimate D2E/DX2                !
 ! A40   A(13,12,25)           109.1945         estimate D2E/DX2                !
 ! A41   A(13,12,26)           109.4665         estimate D2E/DX2                !
 ! A42   A(25,12,26)           107.7486         estimate D2E/DX2                !
 ! A43   A(7,13,12)            105.8506         estimate D2E/DX2                !
 ! A44   A(7,13,14)            111.335          estimate D2E/DX2                !
 ! A45   A(7,13,15)            113.1123         estimate D2E/DX2                !
 ! A46   A(12,13,14)           107.7145         estimate D2E/DX2                !
 ! A47   A(12,13,15)           108.4543         estimate D2E/DX2                !
 ! A48   A(14,13,15)           110.1071         estimate D2E/DX2                !
 ! A49   A(13,15,16)           119.0849         estimate D2E/DX2                !
 ! A50   A(4,16,15)            129.6944         estimate D2E/DX2                !
 ! A51   A(4,16,27)            113.2629         estimate D2E/DX2                !
 ! A52   A(15,16,27)           117.0238         estimate D2E/DX2                !
 ! D1    D(1,2,4,5)           -173.95           estimate D2E/DX2                !
 ! D2    D(1,2,4,16)             8.2583         Frozen                          !
 ! D3    D(3,2,4,5)              5.4692         estimate D2E/DX2                !
 ! D4    D(3,2,4,16)          -172.3225         estimate D2E/DX2                !
 ! D5    D(2,4,5,6)            176.3695         estimate D2E/DX2                !
 ! D6    D(2,4,5,17)            -0.983          estimate D2E/DX2                !
 ! D7    D(16,4,5,6)            -6.0666         estimate D2E/DX2                !
 ! D8    D(16,4,5,17)          176.581          estimate D2E/DX2                !
 ! D9    D(2,4,16,15)         -150.0268         estimate D2E/DX2                !
 ! D10   D(2,4,16,27)           28.3225         estimate D2E/DX2                !
 ! D11   D(5,4,16,15)           32.2326         estimate D2E/DX2                !
 ! D12   D(5,4,16,27)         -149.418          estimate D2E/DX2                !
 ! D13   D(4,5,6,7)            -11.4263         estimate D2E/DX2                !
 ! D14   D(4,5,6,18)           150.58           estimate D2E/DX2                !
 ! D15   D(17,5,6,7)           165.9609         estimate D2E/DX2                !
 ! D16   D(17,5,6,18)          -32.0328         estimate D2E/DX2                !
 ! D17   D(5,6,7,8)           -138.9758         estimate D2E/DX2                !
 ! D18   D(5,6,7,9)            104.5124         estimate D2E/DX2                !
 ! D19   D(5,6,7,13)           -24.0497         estimate D2E/DX2                !
 ! D20   D(18,6,7,8)            57.069          estimate D2E/DX2                !
 ! D21   D(18,6,7,9)           -59.4429         estimate D2E/DX2                !
 ! D22   D(18,6,7,13)          171.995          estimate D2E/DX2                !
 ! D23   D(6,7,9,10)           169.0169         estimate D2E/DX2                !
 ! D24   D(6,7,9,19)           -69.9439         estimate D2E/DX2                !
 ! D25   D(6,7,9,20)            49.0685         estimate D2E/DX2                !
 ! D26   D(8,7,9,10)            52.9081         estimate D2E/DX2                !
 ! D27   D(8,7,9,19)           173.9472         estimate D2E/DX2                !
 ! D28   D(8,7,9,20)           -67.0404         estimate D2E/DX2                !
 ! D29   D(13,7,9,10)          -61.8479         estimate D2E/DX2                !
 ! D30   D(13,7,9,19)           59.1912         estimate D2E/DX2                !
 ! D31   D(13,7,9,20)          178.2036         estimate D2E/DX2                !
 ! D32   D(6,7,13,12)         -166.3614         estimate D2E/DX2                !
 ! D33   D(6,7,13,14)          -49.5876         estimate D2E/DX2                !
 ! D34   D(6,7,13,15)           75.0216         Frozen                          !
 ! D35   D(8,7,13,12)          -51.8091         estimate D2E/DX2                !
 ! D36   D(8,7,13,14)           64.9647         estimate D2E/DX2                !
 ! D37   D(8,7,13,15)         -170.4262         estimate D2E/DX2                !
 ! D38   D(9,7,13,12)           63.0054         estimate D2E/DX2                !
 ! D39   D(9,7,13,14)          179.7792         estimate D2E/DX2                !
 ! D40   D(9,7,13,15)          -55.6116         estimate D2E/DX2                !
 ! D41   D(7,9,10,11)           54.8119         Frozen                          !
 ! D42   D(7,9,10,21)          176.5999         estimate D2E/DX2                !
 ! D43   D(7,9,10,22)          -65.1706         estimate D2E/DX2                !
 ! D44   D(19,9,10,11)         -66.3728         estimate D2E/DX2                !
 ! D45   D(19,9,10,21)          55.4153         estimate D2E/DX2                !
 ! D46   D(19,9,10,22)         173.6448         estimate D2E/DX2                !
 ! D47   D(20,9,10,11)         175.4011         estimate D2E/DX2                !
 ! D48   D(20,9,10,21)         -62.8108         estimate D2E/DX2                !
 ! D49   D(20,9,10,22)          55.4187         estimate D2E/DX2                !
 ! D50   D(9,10,11,12)         -52.8221         Frozen                          !
 ! D51   D(9,10,11,23)          67.7634         estimate D2E/DX2                !
 ! D52   D(9,10,11,24)        -174.6884         estimate D2E/DX2                !
 ! D53   D(21,10,11,12)       -174.706          estimate D2E/DX2                !
 ! D54   D(21,10,11,23)        -54.1205         estimate D2E/DX2                !
 ! D55   D(21,10,11,24)         63.4278         estimate D2E/DX2                !
 ! D56   D(22,10,11,12)         67.384          estimate D2E/DX2                !
 ! D57   D(22,10,11,23)       -172.0305         estimate D2E/DX2                !
 ! D58   D(22,10,11,24)        -54.4822         estimate D2E/DX2                !
 ! D59   D(10,11,12,13)         56.4517         estimate D2E/DX2                !
 ! D60   D(10,11,12,25)        177.3366         estimate D2E/DX2                !
 ! D61   D(10,11,12,26)        -64.9462         estimate D2E/DX2                !
 ! D62   D(23,11,12,13)        -64.0039         estimate D2E/DX2                !
 ! D63   D(23,11,12,25)         56.881          estimate D2E/DX2                !
 ! D64   D(23,11,12,26)        174.5982         estimate D2E/DX2                !
 ! D65   D(24,11,12,13)        178.3939         estimate D2E/DX2                !
 ! D66   D(24,11,12,25)        -60.7213         estimate D2E/DX2                !
 ! D67   D(24,11,12,26)         56.996          estimate D2E/DX2                !
 ! D68   D(11,12,13,7)         -60.0152         estimate D2E/DX2                !
 ! D69   D(11,12,13,14)       -179.2058         estimate D2E/DX2                !
 ! D70   D(11,12,13,15)         61.6476         estimate D2E/DX2                !
 ! D71   D(25,12,13,7)         179.1039         estimate D2E/DX2                !
 ! D72   D(25,12,13,14)         59.9133         estimate D2E/DX2                !
 ! D73   D(25,12,13,15)        -59.2332         estimate D2E/DX2                !
 ! D74   D(26,12,13,7)          61.3675         estimate D2E/DX2                !
 ! D75   D(26,12,13,14)        -57.8231         estimate D2E/DX2                !
 ! D76   D(26,12,13,15)       -176.9697         estimate D2E/DX2                !
 ! D77   D(7,13,15,16)         -67.1598         Frozen                          !
 ! D78   D(12,13,15,16)        175.7439         estimate D2E/DX2                !
 ! D79   D(14,13,15,16)         58.1142         estimate D2E/DX2                !
 ! D80   D(13,15,16,4)           3.7333         estimate D2E/DX2                !
 ! D81   D(13,15,16,27)       -174.5644         estimate D2E/DX2                !
 --------------------------------------------------------------------------------
 Trust Radius=3.00D-01 FncErr=1.00D-07 GrdErr=1.00D-07 EigMax=2.50D+02 EigMin=1.00D-04
 Number of steps in this run=     20 maximum allowed number of steps=    162.
 GradGradGradGradGradGradGradGradGradGradGradGradGradGradGradGradGradGrad

                          Input orientation:                          
 ---------------------------------------------------------------------
 Center     Atomic      Atomic             Coordinates (Angstroms)
 Number     Number       Type             X           Y           Z
 ---------------------------------------------------------------------
      1          8           0       -3.572030   -1.530850   -0.165720
      2          7           0       -3.256940   -0.354480    0.011130
      3          8           0       -4.061720    0.548370    0.234400
      4          6           0       -1.789390    0.040000   -0.028710
      5          6           0       -1.360300    1.333680    0.286910
      6          7           0       -0.068140    1.789960    0.354060
      7          6           0        1.204760    1.009620    0.342030
      8          1           0        1.862840    1.502720    1.104130
      9          6           0        1.989370    1.050350   -0.992980
     10          6           0        3.390780    0.446160   -0.782330
     11          6           0        3.301350   -0.968490   -0.188280
     12          6           0        2.433310   -0.990490    1.088660
     13          6           0        1.007720   -0.433090    0.824250
     14          1           0        0.446460   -0.465890    1.787500
     15          7           0        0.353770   -1.285940   -0.168090
     16          6           0       -0.880240   -1.055080   -0.480260
     17          1           0       -2.137830    2.068810    0.552670
     18          1           0        0.165050    2.765340    0.152820
     19          1           0        1.444560    0.480870   -1.775710
     20          1           0        2.094480    2.099100   -1.343300
     21          1           0        3.939690    0.414640   -1.748890
     22          1           0        3.965790    1.092860   -0.082480
     23          1           0        2.855760   -1.652030   -0.945930
     24          1           0        4.320940   -1.346120    0.044030
     25          1           0        2.354190   -2.036160    1.458860
     26          1           0        2.925380   -0.387490    1.880390
     27          1           0       -1.366610   -1.771370   -1.160170
 ---------------------------------------------------------------------
                    Distance matrix (angstroms):
                    1          2          3          4          5
     1  O    0.000000
     2  N    1.230611   0.000000
     3  O    2.173257   1.229902   0.000000
     4  C    2.379947   1.520166   2.343320   0.000000
     5  C    3.647212   2.554052   2.813741   1.399050   0.000000
     6  N    4.855429   3.858065   4.183843   2.484265   1.371998
     7  C    5.434107   4.677289   5.287736   3.168998   2.586037
     8  H    6.352392   5.554817   6.063631   4.094101   3.329423
     9  C    6.186770   5.523183   6.194686   4.028604   3.597038
    10  C    7.264262   6.742610   7.522230   5.250435   4.950124
    11  C    6.896384   6.589988   7.529563   5.192124   5.220802
    12  C    6.158698   5.826193   6.729284   4.487942   4.520625
    13  C    4.812404   4.342196   5.197154   2.962293   3.002953
    14  H    4.593198   4.108902   4.874888   2.924648   2.958818
    15  N    3.933433   3.733224   4.798254   2.524020   3.163459
    16  C    2.751550   2.526066   3.633677   1.493202   2.554444
    17  H    3.940884   2.723602   2.472729   2.139038   1.102541
    18  H    5.703024   4.632857   4.773594   3.358611   2.096264
    19  H    5.639615   5.098501   5.862100   3.702001   3.584540
    20  H    6.831732   6.040880   6.541613   4.588299   3.896018
    21  H    7.919425   7.448537   8.244628   5.993474   5.751435
    22  H    7.981824   7.366911   8.052192   5.850940   5.344313
    23  H    6.476102   6.321764   7.354350   5.028089   5.311264
    24  H    7.897917   7.642558   8.596181   6.266000   6.286239
    25  H    6.165605   6.033966   7.024457   4.867500   5.150410
    26  H    6.907255   6.458816   7.239108   5.104554   4.885556
    27  H    2.431184   2.636829   3.819638   2.177155   3.425699
                    6          7          8          9         10
     6  N    0.000000
     7  C    1.493101   0.000000
     8  H    2.091362   1.121166   0.000000
     9  C    2.568051   1.549040   2.149074   0.000000
    10  C    3.880890   2.521975   2.647575   1.540574   0.000000
    11  C    4.388239   2.930842   3.137915   2.538612   1.536922
    12  C    3.811534   2.463175   2.557689   2.948785   2.545843
    13  C    2.514061   1.533875   2.134695   2.542942   3.005521
    14  H    2.721842   2.200348   2.519633   3.522872   4.013089
    15  N    3.148303   2.500800   3.416498   2.968818   3.549773
    16  C    3.074061   3.047355   4.071501   3.595884   4.537244
    17  H    2.097813   3.512714   4.077981   4.523281   5.914452
    18  H    1.022859   2.049232   2.319847   2.753578   4.081475
    19  H    2.921968   2.195883   3.084253   1.110762   2.185356
    20  H    2.766500   2.195201   2.529672   1.110697   2.174234
    21  H    4.730392   3.493679   3.692824   2.186155   1.111995
    22  H    4.116929   2.794714   2.449169   2.176477   1.112945
    23  H    4.699623   3.386595   3.891155   2.838257   2.171500
    24  H    5.403253   3.917766   3.909214   3.500668   2.181819
    25  H    4.661272   3.441696   3.590394   3.958681   3.501337
    26  H    4.004015   2.697962   2.303142   3.346603   2.828718
    27  H    4.081910   4.074611   5.126019   4.387785   5.262410
                   11         12         13         14         15
    11  C    0.000000
    12  C    1.544200   0.000000
    13  C    2.563710   1.553356   0.000000
    14  H    3.508092   2.170520   1.115320   0.000000
    15  N    2.964694   2.447692   1.462786   2.122594   0.000000
    16  C    4.192666   3.666783   2.377606   2.692585   1.293649
    17  H    6.273665   5.526475   4.028367   3.824665   4.240509
    18  H    4.888171   4.486319   3.375036   3.632109   4.068350
    19  H    2.840466   3.368552   2.790330   3.819558   2.626001
    20  H    3.492952   3.946492   3.505896   4.370017   3.983677
    21  H    2.180832   3.506460   3.992010   5.048172   4.271969
    22  H    2.168372   2.839086   3.449762   4.279277   4.325819
    23  H    1.113468   2.180747   2.834538   3.831879   2.645564
    24  H    1.111817   2.186520   3.524173   4.338904   3.973293
    25  H    2.179473   1.112085   2.187589   2.492626   2.685419
    26  H    2.181355   1.110215   2.189733   2.481898   3.408322
    27  H    4.835187   4.484016   3.371403   3.698683   2.044400
                   16         17         18         19         20
    16  C    0.000000
    17  H    3.522381   0.000000
    18  H    4.011113   2.438912   0.000000
    19  H    3.072788   4.558116   3.251950   0.000000
    20  H    4.420707   4.637679   2.530800   1.796675   0.000000
    21  H    5.196270   6.705946   4.836341   2.496153   2.531148
    22  H    5.315626   6.213700   4.159108   3.098090   2.470625
    23  H    3.811941   6.405185   5.287753   2.688733   3.848172
    24  H    5.235633   7.323672   5.846996   3.863018   4.330283
    25  H    3.896696   6.152252   5.436219   4.198251   5.001992
    26  H    4.527813   5.782071   4.532577   4.039052   4.155202
    27  H    1.100865   4.274995   4.965044   3.654333   5.195500
                   21         22         23         24         25
    21  H    0.000000
    22  H    1.799329   0.000000
    23  H    2.467949   3.084175   0.000000
    24  H    2.541690   2.467946   1.794535   0.000000
    25  H    4.337037   3.842363   2.486392   2.519128   0.000000
    26  H    3.852780   2.669597   3.097094   2.497754   1.795009
    27  H    5.769060   6.148148   4.229486   5.829165   4.557827
                   26         27
    26  H    0.000000
    27  H    5.438870   0.000000
 Symmetry turned off by external request.
 Stoichiometry    C9H13N3O2
 Framework group  C1[X(C9H13N3O2)]
 Deg. of freedom    75
 Full point group                 C1      NOp   1
 Rotational constants (GHZ):           1.6715291           0.4003074           0.3550874
 Standard basis: 6-31G(d) (6D, 7F)
   236 basis functions,   444 primitive gaussians,   236 cartesian basis functions
    52 alpha electrons       52 beta electrons
       nuclear repulsion energy       917.5120079437 Hartrees.
 NAtoms=   27 NActive=   27 NUniq=   27 SFac= 1.00D+00 NAtFMM=   60 NAOKFM=F Big=F
 Integral buffers will be    131072 words long.
 Raffenetti 1 integral format.
 Two-electron integral symmetry is turned off.
 One-electron integrals computed using PRISM.
 NBasis=   236 RedAO= T EigKep=  1.29D-03  NBF=   236
 NBsUse=   236 1.00D-06 EigRej= -1.00D+00 NBFU=   236
 ExpMin= 1.61D-01 ExpMax= 5.48D+03 ExpMxC= 8.25D+02 IAcc=3 IRadAn=         5 AccDes= 0.00D+00
 Harris functional with IExCor=  205 and IRadAn=       5 diagonalized for initial guess.
 HarFok:  IExCor=  205 AccDes= 0.00D+00 IRadAn=         5 IDoV= 1 UseB2=F ITyADJ=14
 ICtDFT=  3500011 ScaDFX=  1.000000  1.000000  1.000000  1.000000
 FoFCou: FMM=F IPFlag=           0 FMFlag=      100000 FMFlg1=           0
         NFxFlg=           0 DoJE=T BraDBF=F KetDBF=T FulRan=T
         wScrn=  0.000000 ICntrl=       500 IOpCl=  0 I1Cent=   200000004 NGrid=           0
         NMat0=    1 NMatS0=      1 NMatT0=    0 NMatD0=    1 NMtDS0=    0 NMtDT0=    0
 Symmetry not used in FoFCou.
 Keep R1 ints in memory in canonical form, NReq=397720213.
 Requested convergence on RMS density matrix=1.00D-08 within 128 cycles.
 Requested convergence on MAX density matrix=1.00D-06.
 Requested convergence on             energy=1.00D-06.
 No special actions if energy rises.
 SCF Done:  E(RHF) =  -661.277046376     A.U. after   16 cycles
            NFock= 16  Conv=0.92D-08     -V/T= 2.0037
 ExpMin= 1.61D-01 ExpMax= 5.48D+03 ExpMxC= 8.25D+02 IAcc=3 IRadAn=         5 AccDes= 0.00D+00
 HarFok:  IExCor=  205 AccDes= 0.00D+00 IRadAn=         5 IDoV=-2 UseB2=F ITyADJ=14
 ICtDFT= 12500011 ScaDFX=  1.000000  1.000000  1.000000  1.000000
 Range of M.O.s used for correlation:    15   236
 NBasis=   236 NAE=    52 NBE=    52 NFC=    14 NFV=     0
 NROrb=    222 NOA=    38 NOB=    38 NVA=   184 NVB=   184
 Fully direct method using O(ONN) memory.
 JobTyp=1 Pass  1:  I=  15 to  52 NPSUse=  4 ParTrn=T ParDer=T DoDerP=T.
 Spin components of T(2) and E(2):
     alpha-alpha T2 =       0.9194904857D-01 E2=     -0.2717598770D+00
     alpha-beta  T2 =       0.5000942641D+00 E2=     -0.1494251957D+01
     beta-beta   T2 =       0.9194904857D-01 E2=     -0.2717598770D+00
 ANorm=    0.1297687313D+01
 E2 =    -0.2037771711D+01 EUMP2 =    -0.66331481808623D+03
          IDoAtm=111111111111111111111111111
          Differentiating once with respect to electric field.
                with respect to dipole field.
          Differentiating once with respect to nuclear coordinates.
 Keep R1 ints in memory in canonical form, NReq=397723379.
          There are     1 degrees of freedom in the 1st order CPHF.  IDoFFX=0 NUNeed=     1.
 LinEq1:  Iter=  0 NonCon=     1 RMS=4.59D-03 Max=1.12D-01 NDo=     1
 AX will form     1 AO Fock derivatives at one time.
 LinEq1:  Iter=  1 NonCon=     1 RMS=1.56D-03 Max=3.14D-02 NDo=     1
 LinEq1:  Iter=  2 NonCon=     1 RMS=6.36D-04 Max=1.76D-02 NDo=     1
 LinEq1:  Iter=  3 NonCon=     1 RMS=2.96D-04 Max=9.40D-03 NDo=     1
 LinEq1:  Iter=  4 NonCon=     1 RMS=9.09D-05 Max=2.00D-03 NDo=     1
 LinEq1:  Iter=  5 NonCon=     1 RMS=3.80D-05 Max=1.97D-03 NDo=     1
 LinEq1:  Iter=  6 NonCon=     1 RMS=1.52D-05 Max=5.64D-04 NDo=     1
 LinEq1:  Iter=  7 NonCon=     1 RMS=5.82D-06 Max=9.40D-05 NDo=     1
 LinEq1:  Iter=  8 NonCon=     1 RMS=2.27D-06 Max=4.93D-05 NDo=     1
 LinEq1:  Iter=  9 NonCon=     1 RMS=7.82D-07 Max=1.98D-05 NDo=     1
 LinEq1:  Iter= 10 NonCon=     1 RMS=3.92D-07 Max=1.60D-05 NDo=     1
 LinEq1:  Iter= 11 NonCon=     1 RMS=1.47D-07 Max=5.36D-06 NDo=     1
 LinEq1:  Iter= 12 NonCon=     1 RMS=5.36D-08 Max=8.47D-07 NDo=     1
 LinEq1:  Iter= 13 NonCon=     1 RMS=1.67D-08 Max=2.93D-07 NDo=     1
 LinEq1:  Iter= 14 NonCon=     1 RMS=5.42D-09 Max=1.38D-07 NDo=     1
 LinEq1:  Iter= 15 NonCon=     1 RMS=2.08D-09 Max=4.70D-08 NDo=     1
 LinEq1:  Iter= 16 NonCon=     1 RMS=8.27D-10 Max=1.60D-08 NDo=     1
 LinEq1:  Iter= 17 NonCon=     1 RMS=2.67D-10 Max=4.41D-09 NDo=     1
 LinEq1:  Iter= 18 NonCon=     1 RMS=9.05D-11 Max=1.30D-09 NDo=     1
 LinEq1:  Iter= 19 NonCon=     0 RMS=2.93D-11 Max=5.81D-10 NDo=     1
 Linear equations converged to 1.000D-10 1.000D-09 after    19 iterations.
 End of Minotr F.D. properties file   721 does not exist.
 End of Minotr F.D. properties file   722 does not exist.
 End of Minotr F.D. properties file   788 does not exist.

 **********************************************************************

            Population analysis using the SCF Density.

 **********************************************************************

 Alpha  occ. eigenvalues --  -20.60123 -20.59549 -15.85562 -15.63308 -15.56807
 Alpha  occ. eigenvalues --  -11.36033 -11.30225 -11.30144 -11.30013 -11.27566
 Alpha  occ. eigenvalues --  -11.24587 -11.23841 -11.23342 -11.22807  -1.58730
 Alpha  occ. eigenvalues --   -1.38268  -1.28581  -1.22634  -1.13248  -1.08376
 Alpha  occ. eigenvalues --   -1.01767  -1.00675  -0.93964  -0.88867  -0.84926
 Alpha  occ. eigenvalues --   -0.81438  -0.78146  -0.76781  -0.74377  -0.71349
 Alpha  occ. eigenvalues --   -0.70557  -0.69935  -0.67408  -0.64374  -0.63170
 Alpha  occ. eigenvalues --   -0.61496  -0.60163  -0.57420  -0.56404  -0.54840
 Alpha  occ. eigenvalues --   -0.53381  -0.50724  -0.49171  -0.48731  -0.47920
 Alpha  occ. eigenvalues --   -0.47646  -0.46025  -0.45656  -0.44135  -0.41962
 Alpha  occ. eigenvalues --   -0.39871  -0.33937
 Alpha virt. eigenvalues --    0.06972   0.12125   0.18267   0.21331   0.23278
 Alpha virt. eigenvalues --    0.24226   0.26276   0.27697   0.28525   0.28879
 Alpha virt. eigenvalues --    0.29996   0.31212   0.31811   0.32290   0.33422
 Alpha virt. eigenvalues --    0.33557   0.33928   0.35512   0.37679   0.38818
 Alpha virt. eigenvalues --    0.40783   0.41993   0.44646   0.45257   0.45713
 Alpha virt. eigenvalues --    0.45956   0.49543   0.52884   0.57273   0.59090
 Alpha virt. eigenvalues --    0.63106   0.69248   0.69783   0.72167   0.74132
 Alpha virt. eigenvalues --    0.75353   0.75831   0.75884   0.77879   0.79458
 Alpha virt. eigenvalues --    0.80217   0.83755   0.85167   0.85413   0.88009
 Alpha virt. eigenvalues --    0.88928   0.90028   0.91085   0.91894   0.93711
 Alpha virt. eigenvalues --    0.95444   0.97249   0.98734   1.00315   1.01930
 Alpha virt. eigenvalues --    1.02741   1.05097   1.06247   1.06633   1.08762
 Alpha virt. eigenvalues --    1.09503   1.10501   1.11122   1.11908   1.13280
 Alpha virt. eigenvalues --    1.13701   1.14198   1.15347   1.16472   1.17379
 Alpha virt. eigenvalues --    1.17846   1.19959   1.20923   1.22202   1.22855
 Alpha virt. eigenvalues --    1.23576   1.23963   1.25933   1.26863   1.27854
 Alpha virt. eigenvalues --    1.29651   1.31149   1.32807   1.35126   1.40024
 Alpha virt. eigenvalues --    1.42719   1.45812   1.47498   1.48526   1.52269
 Alpha virt. eigenvalues --    1.54285   1.55699   1.60861   1.61296   1.65577
 Alpha virt. eigenvalues --    1.68887   1.69856   1.72909   1.73280   1.77336
 Alpha virt. eigenvalues --    1.78276   1.80244   1.84296   1.89148   1.92557
 Alpha virt. eigenvalues --    1.94183   1.96757   1.97746   1.98792   2.01380
 Alpha virt. eigenvalues --    2.02374   2.03312   2.05959   2.08811   2.11805
 Alpha virt. eigenvalues --    2.13167   2.13823   2.17757   2.18397   2.19083
 Alpha virt. eigenvalues --    2.21282   2.21958   2.24352   2.25345   2.26785
 Alpha virt. eigenvalues --    2.28848   2.32646   2.34084   2.35398   2.35929
 Alpha virt. eigenvalues --    2.38308   2.39436   2.41746   2.41847   2.46108
 Alpha virt. eigenvalues --    2.48868   2.50233   2.51135   2.56951   2.58038
 Alpha virt. eigenvalues --    2.60999   2.62888   2.66258   2.67795   2.68818
 Alpha virt. eigenvalues --    2.69981   2.70823   2.74301   2.77399   2.80850
 Alpha virt. eigenvalues --    2.85181   2.87420   2.89717   2.91638   2.95170
 Alpha virt. eigenvalues --    2.97594   2.99119   3.01100   3.03165   3.05841
 Alpha virt. eigenvalues --    3.06859   3.12576   3.19963   3.22500   3.27355
 Alpha virt. eigenvalues --    3.30917   3.32568   3.37110   3.45184   3.58799
 Alpha virt. eigenvalues --    4.10592   4.23991   4.31459   4.35683   4.43534
 Alpha virt. eigenvalues --    4.53150   4.59907   4.60323   4.70847   4.77752
 Alpha virt. eigenvalues --    4.95866   4.99309   5.02536   5.10167
          Condensed to atoms (all electrons):
               1          2          3          4          5          6
     1  O    8.296460   0.317090  -0.088721  -0.076273   0.002820  -0.000009
     2  N    0.317090   5.688873   0.307113   0.260065  -0.036107   0.000817
     3  O   -0.088721   0.307113   8.327781  -0.091848   0.007954   0.000371
     4  C   -0.076273   0.260065  -0.091848   5.232003   0.571941  -0.044875
     5  C    0.002820  -0.036107   0.007954   0.571941   4.651783   0.310892
     6  N   -0.000009   0.000817   0.000371  -0.044875   0.310892   7.193079
     7  C    0.000003  -0.000078   0.000002   0.004350  -0.030248   0.196600
     8  H   -0.000000   0.000002  -0.000000  -0.000203   0.002333  -0.050910
     9  C   -0.000000  -0.000002   0.000000   0.000519   0.001647  -0.055208
    10  C   -0.000000   0.000000  -0.000000  -0.000020  -0.000060   0.003308
    11  C   -0.000000  -0.000000  -0.000000  -0.000011   0.000014  -0.000157
    12  C   -0.000000   0.000002  -0.000000  -0.000107  -0.000086   0.003640
    13  C   -0.000024  -0.000044  -0.000003  -0.010843   0.000518  -0.044555
    14  H   -0.000003  -0.000053   0.000000   0.003260   0.005087  -0.005748
    15  N    0.000075   0.001739  -0.000017  -0.060780  -0.002737   0.001446
    16  C    0.003259  -0.034538   0.002351   0.315353  -0.043076  -0.002517
    17  H    0.000077  -0.003547   0.010214  -0.029552   0.378453  -0.035894
    18  H    0.000000  -0.000028   0.000006   0.000798  -0.024060   0.328084
    19  H    0.000000   0.000000   0.000000  -0.000686   0.000581   0.000745
    20  H    0.000000  -0.000000   0.000000  -0.000021   0.000020  -0.001880
    21  H   -0.000000  -0.000000   0.000000   0.000000   0.000001  -0.000058
    22  H   -0.000000   0.000000  -0.000000  -0.000000  -0.000002  -0.000098
    23  H    0.000000  -0.000000   0.000000   0.000024  -0.000001  -0.000024
    24  H    0.000000   0.000000   0.000000   0.000000  -0.000000   0.000004
    25  H    0.000000  -0.000000   0.000000   0.000018  -0.000001  -0.000072
    26  H    0.000000  -0.000000   0.000000   0.000007  -0.000003  -0.000068
    27  H    0.004720  -0.000516  -0.000015  -0.066061   0.002346   0.000066
               7          8          9         10         11         12
     1  O    0.000003  -0.000000  -0.000000  -0.000000  -0.000000  -0.000000
     2  N   -0.000078   0.000002  -0.000002   0.000000  -0.000000   0.000002
     3  O    0.000002  -0.000000   0.000000  -0.000000  -0.000000  -0.000000
     4  C    0.004350  -0.000203   0.000519  -0.000020  -0.000011  -0.000107
     5  C   -0.030248   0.002333   0.001647  -0.000060   0.000014  -0.000086
     6  N    0.196600  -0.050910  -0.055208   0.003308  -0.000157   0.003640
     7  C    4.997968   0.417309   0.340818  -0.049314  -0.007690  -0.064178
     8  H    0.417309   0.549120  -0.061090   0.001634  -0.000363  -0.002691
     9  C    0.340818  -0.061090   5.181859   0.317709  -0.052983  -0.006444
    10  C   -0.049314   0.001634   0.317709   5.126543   0.332798  -0.059946
    11  C   -0.007690  -0.000363  -0.052983   0.332798   5.123266   0.330848
    12  C   -0.064178  -0.002691  -0.006444  -0.059946   0.330848   5.136478
    13  C    0.335064  -0.041303  -0.049339  -0.001898  -0.047751   0.368322
    14  H   -0.039886  -0.000967   0.003876  -0.000394   0.003950  -0.040758
    15  N   -0.057848   0.004112  -0.013099   0.001437  -0.007654  -0.074380
    16  C   -0.002969   0.000091  -0.001296   0.000000  -0.000019   0.002707
    17  H    0.001521  -0.000009  -0.000072   0.000001   0.000000   0.000001
    18  H   -0.028248  -0.002416   0.000818  -0.000120   0.000012  -0.000136
    19  H   -0.034864   0.004115   0.385629  -0.032327  -0.002297   0.000649
    20  H   -0.041673  -0.001910   0.397144  -0.037425   0.004152  -0.000361
    21  H    0.004037  -0.000082  -0.035826   0.400150  -0.035826   0.004201
    22  H   -0.004151   0.003506  -0.045726   0.395991  -0.045661  -0.001212
    23  H    0.000417   0.000033  -0.002008  -0.040057   0.396673  -0.036615
    24  H   -0.000140  -0.000097   0.004400  -0.038512   0.400301  -0.037867
    25  H    0.004978  -0.000005  -0.000365   0.004096  -0.033989   0.395461
    26  H   -0.004436   0.001642   0.001027  -0.002377  -0.042397   0.394687
    27  H   -0.000431   0.000010  -0.000066   0.000006   0.000004  -0.000016
              13         14         15         16         17         18
     1  O   -0.000024  -0.000003   0.000075   0.003259   0.000077   0.000000
     2  N   -0.000044  -0.000053   0.001739  -0.034538  -0.003547  -0.000028
     3  O   -0.000003   0.000000  -0.000017   0.002351   0.010214   0.000006
     4  C   -0.010843   0.003260  -0.060780   0.315353  -0.029552   0.000798
     5  C    0.000518   0.005087  -0.002737  -0.043076   0.378453  -0.024060
     6  N   -0.044555  -0.005748   0.001446  -0.002517  -0.035894   0.328084
     7  C    0.335064  -0.039886  -0.057848  -0.002969   0.001521  -0.028248
     8  H   -0.041303  -0.000967   0.004112   0.000091  -0.000009  -0.002416
     9  C   -0.049339   0.003876  -0.013099  -0.001296  -0.000072   0.000818
    10  C   -0.001898  -0.000394   0.001437   0.000000   0.000001  -0.000120
    11  C   -0.047751   0.003950  -0.007654  -0.000019   0.000000   0.000012
    12  C    0.368322  -0.040758  -0.074380   0.002707   0.000001  -0.000136
    13  C    5.028695   0.401304   0.237808  -0.071122  -0.000046   0.003715
    14  H    0.401304   0.520911  -0.035890  -0.004719   0.000080   0.000015
    15  N    0.237808  -0.035890   6.933465   0.586433  -0.000070  -0.000123
    16  C   -0.071122  -0.004719   0.586433   4.722411   0.002179  -0.000224
    17  H   -0.000046   0.000080  -0.000070   0.002179   0.400280  -0.001922
    18  H    0.003715   0.000015  -0.000123  -0.000224  -0.001922   0.322537
    19  H   -0.006338   0.000065   0.007000   0.002719   0.000011  -0.000125
    20  H    0.003860  -0.000048   0.000082  -0.000029  -0.000001   0.002990
    21  H   -0.000368   0.000009  -0.000028   0.000002  -0.000000  -0.000000
    22  H    0.000310  -0.000045   0.000000  -0.000001   0.000000   0.000002
    23  H   -0.005804   0.000008   0.006750   0.000048   0.000000   0.000000
    24  H    0.004125  -0.000057   0.000050   0.000006   0.000000  -0.000000
    25  H   -0.034516  -0.002636   0.000642  -0.000063  -0.000000   0.000002
    26  H   -0.044842  -0.000913   0.004197  -0.000063   0.000000  -0.000001
    27  H    0.005134  -0.000194  -0.040681   0.402521  -0.000063   0.000003
              19         20         21         22         23         24
     1  O    0.000000   0.000000  -0.000000  -0.000000   0.000000   0.000000
     2  N    0.000000  -0.000000  -0.000000   0.000000  -0.000000   0.000000
     3  O    0.000000   0.000000   0.000000  -0.000000   0.000000   0.000000
     4  C   -0.000686  -0.000021   0.000000  -0.000000   0.000024   0.000000
     5  C    0.000581   0.000020   0.000001  -0.000002  -0.000001  -0.000000
     6  N    0.000745  -0.001880  -0.000058  -0.000098  -0.000024   0.000004
     7  C   -0.034864  -0.041673   0.004037  -0.004151   0.000417  -0.000140
     8  H    0.004115  -0.001910  -0.000082   0.003506   0.000033  -0.000097
     9  C    0.385629   0.397144  -0.035826  -0.045726  -0.002008   0.004400
    10  C   -0.032327  -0.037425   0.400150   0.395991  -0.040057  -0.038512
    11  C   -0.002297   0.004152  -0.035826  -0.045661   0.396673   0.400301
    12  C    0.000649  -0.000361   0.004201  -0.001212  -0.036615  -0.037867
    13  C   -0.006338   0.003860  -0.000368   0.000310  -0.005804   0.004125
    14  H    0.000065  -0.000048   0.000009  -0.000045   0.000008  -0.000057
    15  N    0.007000   0.000082  -0.000028   0.000000   0.006750   0.000050
    16  C    0.002719  -0.000029   0.000002  -0.000001   0.000048   0.000006
    17  H    0.000011  -0.000001  -0.000000   0.000000   0.000000   0.000000
    18  H   -0.000125   0.002990  -0.000000   0.000002   0.000000  -0.000000
    19  H    0.506275  -0.024166  -0.002599   0.003752   0.001634  -0.000069
    20  H   -0.024166   0.551340  -0.002595  -0.002991  -0.000049  -0.000090
    21  H   -0.002599  -0.002595   0.526252  -0.024717  -0.002811  -0.002049
    22  H    0.003752  -0.002991  -0.024717   0.568907   0.004063  -0.003602
    23  H    0.001634  -0.000049  -0.002811   0.004063   0.509711  -0.025040
    24  H   -0.000069  -0.000090  -0.002049  -0.003602  -0.025040   0.541326
    25  H   -0.000027   0.000011  -0.000086  -0.000082  -0.002108  -0.002367
    26  H    0.000023  -0.000035  -0.000075   0.002468   0.003828  -0.002790
    27  H    0.000077  -0.000000  -0.000000   0.000000  -0.000023  -0.000000
              25         26         27
     1  O    0.000000   0.000000   0.004720
     2  N   -0.000000  -0.000000  -0.000516
     3  O    0.000000   0.000000  -0.000015
     4  C    0.000018   0.000007  -0.066061
     5  C   -0.000001  -0.000003   0.002346
     6  N   -0.000072  -0.000068   0.000066
     7  C    0.004978  -0.004436  -0.000431
     8  H   -0.000005   0.001642   0.000010
     9  C   -0.000365   0.001027  -0.000066
    10  C    0.004096  -0.002377   0.000006
    11  C   -0.033989  -0.042397   0.000004
    12  C    0.395461   0.394687  -0.000016
    13  C   -0.034516  -0.044842   0.005134
    14  H   -0.002636  -0.000913  -0.000194
    15  N    0.000642   0.004197  -0.040681
    16  C   -0.000063  -0.000063   0.402521
    17  H   -0.000000   0.000000  -0.000063
    18  H    0.000002  -0.000001   0.000003
    19  H   -0.000027   0.000023   0.000077
    20  H    0.000011  -0.000035  -0.000000
    21  H   -0.000086  -0.000075  -0.000000
    22  H   -0.000082   0.002468   0.000000
    23  H   -0.002108   0.003828  -0.000023
    24  H   -0.002367  -0.002790  -0.000000
    25  H    0.511094  -0.023100  -0.000009
    26  H   -0.023100   0.561277   0.000001
    27  H   -0.000009   0.000001   0.458003
 Mulliken charges:
               1
     1  O   -0.459474
     2  N    0.499214
     3  O   -0.475189
     4  C   -0.007059
     5  C    0.199992
     6  N   -0.796978
     7  C    0.063087
     8  H    0.178141
     9  C   -0.311923
    10  C   -0.321221
    11  C   -0.315219
    12  C   -0.312198
    13  C   -0.030058
    14  H    0.193747
    15  N   -0.491929
    16  C    0.120556
    17  H    0.278358
    18  H    0.398422
    19  H    0.190223
    20  H    0.153674
    21  H    0.172466
    22  H    0.149290
    23  H    0.191352
    24  H    0.162468
    25  H    0.183126
    26  H    0.151943
    27  H    0.235187
 Sum of Mulliken charges =  -0.00000
 Mulliken charges with hydrogens summed into heavy atoms:
               1
     1  O   -0.459474
     2  N    0.499214
     3  O   -0.475189
     4  C   -0.007059
     5  C    0.478350
     6  N   -0.398556
     7  C    0.241227
     9  C    0.031974
    10  C    0.000536
    11  C    0.038602
    12  C    0.022872
    13  C    0.163688
    15  N   -0.491929
    16  C    0.355743
 Electronic spatial extent (au):  <R**2>=           3126.3070
 Charge=             -0.0000 electrons
 Dipole moment (field-independent basis, Debye):
    X=              5.2349    Y=              4.6625    Z=              0.3664  Tot=              7.0198
 Quadrupole moment (field-independent basis, Debye-Ang):
   XX=           -104.8790   YY=            -80.4733   ZZ=            -82.2390
   XY=             -2.4998   XZ=              1.4456   YZ=             -0.2036
 Traceless Quadrupole moment (field-independent basis, Debye-Ang):
   XX=            -15.6819   YY=              8.7238   ZZ=              6.9581
   XY=             -2.4998   XZ=              1.4456   YZ=             -0.2036
 Octapole moment (field-independent basis, Debye-Ang**2):
  XXX=             98.6793  YYY=             39.1371  ZZZ=             -6.3163  XYY=             -0.5018
  XXY=             14.1174  XXZ=             -3.6883  XZZ=             -8.3793  YZZ=             -2.5656
  YYZ=              0.2171  XYZ=             -1.3265
 Hexadecapole moment (field-independent basis, Debye-Ang**3):
 XXXX=          -3548.3006 YYYY=           -623.7033 ZZZZ=           -300.0579 XXXY=            -62.5300
 XXXZ=             49.1246 YYYX=            -38.9222 YYYZ=              8.2329 ZZZX=             31.5422
 ZZZY=              8.8343 XXYY=           -656.7423 XXZZ=           -543.8751 YYZZ=           -165.1595
 XXYZ=              1.4302 YYXZ=             12.6426 ZZXY=             -2.0421
 N-N= 9.175120079437D+02 E-N=-3.381015878949D+03  KE= 6.588569919308D+02
 Calling FoFJK, ICntrl=  10002127 FMM=F ISym2X=0 I1Cent= 0 IOpClX= 0 NMat=1 NMatS=1 NMatT=0.
 -------------------------------------------------------------------
 Center     Atomic                   Forces (Hartrees/Bohr)
 Number     Number              X              Y              Z
 -------------------------------------------------------------------
      1        8           0.006624844   -0.014764191   -0.004395339
      2        7           0.037529779    0.024553274    0.003768679
      3        8          -0.012528674    0.017509945    0.003920710
      4        6           0.016385493   -0.008705479    0.002618124
      5        6          -0.011939978   -0.013388646   -0.004184026
      6        7           0.014255070   -0.013373506   -0.006314345
      7        6          -0.003996491    0.005166544    0.003382940
      8        1          -0.009707123   -0.001661500   -0.007765998
      9        6          -0.004089633    0.000075099   -0.002182216
     10        6           0.002832502   -0.000867527    0.001106876
     11        6          -0.001360604   -0.004674128   -0.002515972
     12        6           0.000853976   -0.008713505   -0.002533638
     13        6           0.009801949   -0.003632558    0.006293982
     14        1           0.001069373    0.004950667   -0.009565469
     15        7          -0.001642801    0.003876927   -0.001964006
     16        6          -0.019265426    0.003784941    0.004441016
     17        1           0.006954111   -0.003635569   -0.006713218
     18        1          -0.018127519   -0.001376681    0.006809392
     19        1           0.003103979    0.005892467    0.007808766
     20        1          -0.003351904   -0.007196868    0.002589755
     21        1          -0.004455738    0.002476908    0.009556181
     22        1          -0.003918872   -0.003949023   -0.007452921
     23        1           0.004012534    0.006144120    0.009325183
     24        1          -0.009308996    0.002754188   -0.002219438
     25        1          -0.000516625    0.010555294   -0.002374969
     26        1          -0.004776910   -0.004776799   -0.004394642
     27        1           0.005563686    0.002975602    0.002954594
 -------------------------------------------------------------------
 Cartesian Forces:  Max     0.037529779 RMS     0.008805211

 GradGradGradGradGradGradGradGradGradGradGradGradGradGradGradGradGradGrad
 Berny optimization.
 FormGI is forming the generalized inverse of G from B-inverse, IUseBI=4.
 Internal  Forces:  Max     0.037529025 RMS     0.007415420
 Search for a local minimum.
 Step number   1 out of a maximum of   20
 All quantities printed in internal units (Hartrees-Bohrs-Radians)
 Mixed Optimization -- RFO/linear search
 Second derivative matrix not updated -- first step.
 ITU=  0
     Eigenvalues ---    0.00230   0.00770   0.01033   0.01144   0.01197
     Eigenvalues ---    0.01485   0.01530   0.01617   0.01958   0.02012
     Eigenvalues ---    0.02084   0.02706   0.03676   0.04503   0.04692
     Eigenvalues ---    0.04839   0.05093   0.05137   0.05308   0.05918
     Eigenvalues ---    0.06254   0.07239   0.07699   0.07734   0.07883
     Eigenvalues ---    0.07989   0.08052   0.08074   0.10457   0.11739
     Eigenvalues ---    0.12264   0.13577   0.15328   0.15876   0.15991
     Eigenvalues ---    0.16003   0.20079   0.21889   0.23211   0.25000
     Eigenvalues ---    0.25000   0.25410   0.26245   0.26647   0.27970
     Eigenvalues ---    0.28086   0.28506   0.30351   0.31246   0.31446
     Eigenvalues ---    0.32043   0.32236   0.32290   0.32380   0.32390
     Eigenvalues ---    0.32408   0.32520   0.32526   0.32577   0.32988
     Eigenvalues ---    0.33403   0.33587   0.35529   0.43885   0.44237
     Eigenvalues ---    0.48857   0.66549   0.90832   0.911271000.00000
     Eigenvalues --- 1000.000001000.000001000.000001000.000001000.00000
     Eigenvalues --- 1000.000001000.000001000.000001000.000001000.00000
     Eigenvalues --- 1000.000001000.000001000.000001000.000001000.00000
     Eigenvalues --- 1000.000001000.000001000.000001000.000001000.00000
     Eigenvalues --- 1000.000001000.000001000.000001000.000001000.00000
     Eigenvalues --- 1000.000001000.000001000.000001000.000001000.00000
     Eigenvalues --- 1000.000001000.000001000.000001000.000001000.00000
     Eigenvalues --- 1000.000001000.000001000.000001000.000001000.00000
     Eigenvalues --- 1000.000001000.000001000.000001000.000001000.00000
     Eigenvalues --- 1000.000001000.000001000.000001000.000001000.00000
     Eigenvalues --- 1000.000001000.000001000.000001000.000001000.00000
     Eigenvalues --- 1000.000001000.000001000.000001000.000001000.00000
     Eigenvalues --- 1000.000001000.000001000.000001000.000001000.00000
     Eigenvalues --- 1000.000001000.000001000.000001000.000001000.00000
     Eigenvalues --- 1000.000001000.000001000.000001000.000001000.00000
     Eigenvalues --- 1000.000001000.000001000.000001000.000001000.00000
     Eigenvalues --- 1000.000001000.000001000.000001000.000001000.00000
     Eigenvalues --- 1000.000001000.000001000.000001000.000001000.00000
     Eigenvalues --- 1000.00000
 RFO step:  Lambda=-2.40367891D-02 EMin= 2.30375674D-03
 Linear search not attempted -- first point.
 Iteration  1 RMS(Cart)=  0.05562900 RMS(Int)=  0.00105393
 Iteration  2 RMS(Cart)=  0.00117042 RMS(Int)=  0.00021797
 Iteration  3 RMS(Cart)=  0.00000071 RMS(Int)=  0.00021797
 Iteration  1 RMS(Cart)=  0.00008770 RMS(Int)=  0.00002770
 Iteration  2 RMS(Cart)=  0.00003687 RMS(Int)=  0.00003083
 Iteration  3 RMS(Cart)=  0.00001610 RMS(Int)=  0.00003390
 Iteration  4 RMS(Cart)=  0.00000751 RMS(Int)=  0.00003561
 Iteration  5 RMS(Cart)=  0.00000390 RMS(Int)=  0.00003653
 Iteration  6 RMS(Cart)=  0.00000234 RMS(Int)=  0.00003705
 Iteration  7 RMS(Cart)=  0.00000162 RMS(Int)=  0.00003738
 Iteration  8 RMS(Cart)=  0.00000125 RMS(Int)=  0.00003760
 Iteration  9 RMS(Cart)=  0.00000102 RMS(Int)=  0.00003776
 Iteration 10 RMS(Cart)=  0.00000086 RMS(Int)=  0.00003789
 Variable       Old X    -DE/DX   Delta X   Delta X   Delta X     New X
                                 (Linear)    (Quad)   (Total)
    R1        2.32552   0.01305   0.00000   0.01400   0.01400   2.33951
    R2        2.32418   0.02176   0.00000   0.02327   0.02327   2.34745
    R3        2.87270  -0.03753   0.00000  -0.11458  -0.11458   2.75812
    R4        2.64382  -0.03730   0.00000  -0.07671  -0.07648   2.56735
    R5        2.82174  -0.02110   0.00000  -0.05605  -0.05581   2.76593
    R6        2.59270  -0.02512   0.00000  -0.04878  -0.04871   2.54399
    R7        2.08350  -0.00895   0.00000  -0.02499  -0.02499   2.05852
    R8        2.82155  -0.01746   0.00000  -0.05238  -0.05250   2.76905
    R9        1.93292  -0.00679   0.00000  -0.01466  -0.01466   1.91827
   R10        2.11870  -0.01171   0.00000  -0.03459  -0.03459   2.08411
   R11        2.92726  -0.01318   0.00000  -0.04506  -0.04509   2.88217
   R12        2.89860  -0.00376   0.00000  -0.01087  -0.01090   2.88770
   R13        2.91126  -0.00456   0.00000  -0.01414  -0.01417   2.89709
   R14        2.09904  -0.01005   0.00000  -0.02877  -0.02877   2.07027
   R15        2.09891  -0.00793   0.00000  -0.02270  -0.02270   2.07621
   R16        2.90436  -0.00176   0.00000  -0.00704  -0.00710   2.89726
   R17        2.10137  -0.01058   0.00000  -0.03040  -0.03040   2.07097
   R18        2.10316  -0.00901   0.00000  -0.02596  -0.02596   2.07720
   R19        2.91811  -0.00914   0.00000  -0.02875  -0.02872   2.88939
   R20        2.10415  -0.01172   0.00000  -0.03384  -0.03384   2.07031
   R21        2.10103  -0.00994   0.00000  -0.02854  -0.02854   2.07249
   R22        2.93542  -0.01053   0.00000  -0.03622  -0.03619   2.89923
   R23        2.10154  -0.01068   0.00000  -0.03070  -0.03070   2.07084
   R24        2.09800  -0.00785   0.00000  -0.02243  -0.02243   2.07557
   R25        2.10765  -0.00894   0.00000  -0.02597  -0.02597   2.08168
   R26        2.76426  -0.00371   0.00000  -0.01025  -0.01054   2.75372
   R27        2.44464  -0.00798   0.00000  -0.00991  -0.00993   2.43472
   R28        2.08033  -0.00622   0.00000  -0.01728  -0.01728   2.06305
    A1        2.16551   0.00987   0.00000   0.03609   0.03600   2.20151
    A2        2.08458  -0.01441   0.00000  -0.05251  -0.05260   2.03198
    A3        2.03304   0.00455   0.00000   0.01665   0.01656   2.04960
    A4        2.12955  -0.02592   0.00000   0.00000  -0.00000   2.12955
    A5        1.98821   0.00844   0.00000  -0.02978  -0.03044   1.95778
    A6        2.16473   0.01742   0.00000   0.02838   0.02832   2.19305
    A7        2.22360   0.00050   0.00000   0.01250   0.01276   2.23636
    A8        2.04275   0.00119   0.00000   0.00175   0.00153   2.04429
    A9        2.01600  -0.00166   0.00000  -0.01347  -0.01370   2.00230
   A10        2.25069  -0.00406   0.00000  -0.01066  -0.01073   2.23996
   A11        2.12024  -0.01381   0.00000  -0.07969  -0.08001   2.04023
   A12        1.87804   0.01815   0.00000   0.09636   0.09652   1.97456
   A13        1.83906  -0.00165   0.00000  -0.01726  -0.01706   1.82200
   A14        2.00978  -0.00141   0.00000  -0.01272  -0.01276   1.99702
   A15        1.96008   0.00169   0.00000   0.00353   0.00309   1.96316
   A16        1.85142   0.00275   0.00000   0.02280   0.02265   1.87406
   A17        1.84978   0.00068   0.00000   0.01641   0.01624   1.86601
   A18        1.93986  -0.00177   0.00000  -0.00899  -0.00864   1.93122
   A19        1.90986   0.00017   0.00000  -0.00469  -0.00485   1.90501
   A20        1.92346  -0.00074   0.00000  -0.01293  -0.01290   1.91056
   A21        1.92260  -0.00168   0.00000  -0.00733  -0.00731   1.91528
   A22        1.91927  -0.00039   0.00000   0.00592   0.00589   1.92516
   A23        1.90430   0.00304   0.00000   0.02419   0.02419   1.92849
   A24        1.88416  -0.00036   0.00000  -0.00471  -0.00497   1.87919
   A25        1.94003  -0.00072   0.00000   0.00580   0.00569   1.94572
   A26        1.91910  -0.00076   0.00000  -0.00684  -0.00686   1.91224
   A27        1.90507   0.00029   0.00000  -0.00291  -0.00298   1.90209
   A28        1.91622   0.00074   0.00000   0.00706   0.00711   1.92333
   A29        1.89848   0.00167   0.00000   0.01096   0.01099   1.90947
   A30        1.88391  -0.00120   0.00000  -0.01455  -0.01463   1.86927
   A31        1.94491   0.00070   0.00000   0.00541   0.00552   1.95043
   A32        1.90215   0.00058   0.00000   0.00519   0.00516   1.90732
   A33        1.91775   0.00036   0.00000   0.00549   0.00545   1.92320
   A34        1.90601  -0.00107   0.00000  -0.01371  -0.01376   1.89226
   A35        1.91546  -0.00054   0.00000  -0.00017  -0.00025   1.91520
   A36        1.87618  -0.00006   0.00000  -0.00260  -0.00263   1.87354
   A37        1.94983  -0.00326   0.00000  -0.01853  -0.01853   1.93130
   A38        1.90568   0.00261   0.00000   0.01673   0.01659   1.92228
   A39        1.91009   0.00147   0.00000   0.01334   0.01330   1.92339
   A40        1.90580   0.00032   0.00000  -0.00187  -0.00173   1.90407
   A41        1.91055  -0.00011   0.00000  -0.00495  -0.00489   1.90566
   A42        1.88057  -0.00094   0.00000  -0.00423  -0.00441   1.87616
   A43        1.84744   0.00480   0.00000   0.02561   0.02563   1.87307
   A44        1.94316  -0.00475   0.00000  -0.03245  -0.03294   1.91022
   A45        1.97418   0.00078   0.00000   0.00279   0.00298   1.97716
   A46        1.87997   0.00220   0.00000   0.03048   0.03084   1.91081
   A47        1.89289  -0.00384   0.00000  -0.02505  -0.02502   1.86786
   A48        1.92173   0.00101   0.00000   0.00119   0.00115   1.92288
   A49        2.07842  -0.00641   0.00000  -0.01283  -0.01318   2.06524
   A50        2.26360  -0.00738   0.00000  -0.01577  -0.01564   2.24795
   A51        1.97681   0.00687   0.00000   0.02526   0.02494   2.00175
   A52        2.04245   0.00058   0.00000  -0.00867  -0.00899   2.03346
    D1       -3.03600  -0.00191   0.00000  -0.03824  -0.03769  -3.07369
    D2        0.14414  -0.00079   0.00000   0.00000  -0.00000   0.14413
    D3        0.09546  -0.00042   0.00000  -0.01405  -0.01378   0.08167
    D4       -3.00759   0.00069   0.00000   0.02418   0.02391  -2.98369
    D5        3.07823  -0.00025   0.00000   0.01267   0.01302   3.09124
    D6       -0.01716  -0.00103   0.00000  -0.00854  -0.00841  -0.02556
    D7       -0.10588  -0.00182   0.00000  -0.03089  -0.03137  -0.13725
    D8        3.08192  -0.00260   0.00000  -0.05210  -0.05279   3.02913
    D9       -2.61846  -0.00302   0.00000  -0.04195  -0.04216  -2.66062
   D10        0.49432   0.00022   0.00000  -0.00624  -0.00625   0.48807
   D11        0.56257  -0.00077   0.00000  -0.00207  -0.00204   0.56053
   D12       -2.60784   0.00247   0.00000   0.03364   0.03387  -2.57397
   D13       -0.19943  -0.00002   0.00000   0.03190   0.03217  -0.16725
   D14        2.62812   0.00405   0.00000   0.07372   0.07278   2.70089
   D15        2.89656   0.00081   0.00000   0.05316   0.05349   2.95006
   D16       -0.55908   0.00487   0.00000   0.09499   0.09409  -0.46498
   D17       -2.42558  -0.00075   0.00000  -0.02504  -0.02469  -2.45028
   D18        1.82408  -0.00228   0.00000  -0.03478  -0.03449   1.78959
   D19       -0.41975  -0.00006   0.00000  -0.01381  -0.01383  -0.43358
   D20        0.99604  -0.00026   0.00000  -0.03924  -0.03974   0.95630
   D21       -1.03747  -0.00179   0.00000  -0.04898  -0.04954  -1.08701
   D22        3.00188   0.00043   0.00000  -0.02801  -0.02887   2.97301
   D23        2.94990   0.00213   0.00000   0.02375   0.02364   2.97354
   D24       -1.22075   0.00128   0.00000   0.01988   0.01980  -1.20096
   D25        0.85641  -0.00068   0.00000   0.00143   0.00142   0.85783
   D26        0.92342   0.00311   0.00000   0.03692   0.03690   0.96032
   D27        3.03595   0.00226   0.00000   0.03306   0.03306   3.06901
   D28       -1.17008   0.00030   0.00000   0.01460   0.01468  -1.15539
   D29       -1.07945   0.00164   0.00000   0.00926   0.00922  -1.07023
   D30        1.03308   0.00080   0.00000   0.00539   0.00538   1.03846
   D31        3.11024  -0.00116   0.00000  -0.01307  -0.01299   3.09725
   D32       -2.90355  -0.00099   0.00000  -0.01261  -0.01245  -2.91601
   D33       -0.86547   0.00198   0.00000   0.02184   0.02157  -0.84390
   D34        1.30937   0.00019   0.00000   0.00000  -0.00001   1.30937
   D35       -0.90424  -0.00171   0.00000  -0.02186  -0.02178  -0.92602
   D36        1.13385   0.00126   0.00000   0.01259   0.01225   1.14609
   D37       -2.97450  -0.00053   0.00000  -0.00925  -0.00933  -2.98383
   D38        1.09965   0.00105   0.00000   0.00978   0.00986   1.10951
   D39        3.13774   0.00402   0.00000   0.04423   0.04388  -3.10156
   D40       -0.97061   0.00223   0.00000   0.02239   0.02231  -0.94830
   D41        0.95665   0.00069   0.00000   0.00000   0.00001   0.95665
   D42        3.08225   0.00062   0.00000   0.00813   0.00810   3.09035
   D43       -1.13744  -0.00112   0.00000  -0.01533  -0.01530  -1.15274
   D44       -1.15842   0.00174   0.00000   0.01526   0.01533  -1.14309
   D45        0.96718   0.00168   0.00000   0.02339   0.02342   0.99060
   D46        3.03067  -0.00006   0.00000  -0.00008   0.00002   3.03069
   D47        3.06133   0.00060   0.00000   0.00303   0.00299   3.06431
   D48       -1.09626   0.00053   0.00000   0.01116   0.01108  -1.08518
   D49        0.96724  -0.00121   0.00000  -0.01230  -0.01232   0.95492
   D50       -0.92192  -0.00088   0.00000   0.00000   0.00001  -0.92191
   D51        1.18269  -0.00139   0.00000  -0.01025  -0.01026   1.17244
   D52       -3.04889  -0.00091   0.00000  -0.00718  -0.00721  -3.05610
   D53       -3.04919   0.00006   0.00000  -0.00002  -0.00001  -3.04920
   D54       -0.94458  -0.00046   0.00000  -0.01027  -0.01027  -0.95485
   D55        1.10702   0.00003   0.00000  -0.00720  -0.00722   1.09980
   D56        1.17607   0.00011   0.00000   0.00706   0.00709   1.18316
   D57       -3.00250  -0.00040   0.00000  -0.00319  -0.00317  -3.00567
   D58       -0.95089   0.00008   0.00000  -0.00012  -0.00013  -0.95102
   D59        0.98527  -0.00081   0.00000  -0.01362  -0.01364   0.97163
   D60        3.09511  -0.00076   0.00000  -0.01665  -0.01678   3.07833
   D61       -1.13352   0.00047   0.00000  -0.00431  -0.00427  -1.13780
   D62       -1.11708  -0.00127   0.00000  -0.01448  -0.01446  -1.13154
   D63        0.99276  -0.00122   0.00000  -0.01751  -0.01760   0.97516
   D64        3.04731   0.00001   0.00000  -0.00517  -0.00509   3.04222
   D65        3.11356  -0.00026   0.00000  -0.00318  -0.00318   3.11038
   D66       -1.05979  -0.00021   0.00000  -0.00621  -0.00632  -1.06610
   D67        0.99477   0.00102   0.00000   0.00613   0.00619   1.00096
   D68       -1.04746  -0.00010   0.00000   0.00178   0.00186  -1.04561
   D69       -3.12773   0.00180   0.00000   0.01077   0.01039  -3.11734
   D70        1.07595   0.00148   0.00000   0.00610   0.00604   1.08199
   D71        3.12595  -0.00148   0.00000  -0.00602  -0.00587   3.12009
   D72        1.04568   0.00042   0.00000   0.00297   0.00266   1.04835
   D73       -1.03382   0.00010   0.00000  -0.00170  -0.00169  -1.03550
   D74        1.07106  -0.00046   0.00000   0.00305   0.00325   1.07431
   D75       -1.00920   0.00144   0.00000   0.01205   0.01178  -0.99742
   D76       -3.08870   0.00112   0.00000   0.00738   0.00743  -3.08127
   D77       -1.17216   0.00427   0.00000   0.00000  -0.00001  -1.17216
   D78        3.06731   0.00035   0.00000  -0.01710  -0.01713   3.05018
   D79        1.01428  -0.00062   0.00000  -0.03984  -0.04016   0.97413
   D80        0.06516   0.00440   0.00000   0.02253   0.02238   0.08754
   D81       -3.04672   0.00098   0.00000  -0.01475  -0.01453  -3.06126
         Item               Value     Threshold  Converged?
 Maximum Force            0.037529     0.000450     NO 
 RMS     Force            0.007038     0.000300     NO 
 Maximum Displacement     0.360958     0.001800     NO 
 RMS     Displacement     0.055837     0.001200     NO 
 Predicted change in Energy=-1.344082D-02
 GradGradGradGradGradGradGradGradGradGradGradGradGradGradGradGradGradGrad

                          Input orientation:                          
 ---------------------------------------------------------------------
 Center     Atomic      Atomic             Coordinates (Angstroms)
 Number     Number       Type             X           Y           Z
 ---------------------------------------------------------------------
      1          8           0       -3.381019   -1.525963   -0.209813
      2          7           0       -3.129479   -0.331432   -0.003632
      3          8           0       -3.962221    0.569635    0.190577
      4          6           0       -1.719530    0.045735   -0.008976
      5          6           0       -1.310669    1.308468    0.280989
      6          7           0       -0.050934    1.775850    0.364271
      7          6           0        1.202617    1.017122    0.354180
      8          1           0        1.836437    1.524936    1.100307
      9          6           0        1.948950    1.050095   -0.975506
     10          6           0        3.339433    0.432510   -0.787195
     11          6           0        3.251517   -0.977646   -0.191941
     12          6           0        2.415995   -1.001153    1.088368
     13          6           0        1.018318   -0.422217    0.833188
     14          1           0        0.442321   -0.425360    1.772173
     15          7           0        0.375065   -1.279844   -0.153807
     16          6           0       -0.856463   -1.049383   -0.454122
     17          1           0       -2.084694    2.044020    0.496548
     18          1           0        0.082397    2.768557    0.199380
     19          1           0        1.382154    0.488677   -1.726344
     20          1           0        2.033240    2.087256   -1.328067
     21          1           0        3.862158    0.404903   -1.750011
     22          1           0        3.928517    1.075365   -0.117884
     23          1           0        2.786253   -1.649827   -0.921292
     24          1           0        4.256662   -1.364646    0.014684
     25          1           0        2.316782   -2.028950    1.455320
     26          1           0        2.910963   -0.415981    1.875100
     27          1           0       -1.331769   -1.755730   -1.137505
 ---------------------------------------------------------------------
                    Distance matrix (angstroms):
                    1          2          3          4          5
     1  O    0.000000
     2  N    1.238017   0.000000
     3  O    2.211253   1.242215   0.000000
     4  C    2.295891   1.459534   2.311700   0.000000
     5  C    3.544184   2.465432   2.754048   1.358581   0.000000
     6  N    4.724512   3.748791   4.096741   2.432453   1.346222
     7  C    5.272105   4.551229   5.186768   3.100713   2.531175
     8  H    6.184355   5.415266   5.946818   4.007923   3.259204
     9  C    5.969165   5.351972   6.044215   3.924368   3.502949
    10  C    7.023778   6.560823   7.368106   5.133062   4.850955
    11  C    6.655187   6.416399   7.387721   5.078592   5.124795
    12  C    5.963730   5.691509   6.629860   4.404851   4.458053
    13  C    4.654060   4.232343   5.118836   2.902418   2.953705
    14  H    4.444944   3.989995   4.784501   2.840427   2.881451
    15  N    3.764556   3.633713   4.727709   2.483036   3.119312
    16  C    2.580736   2.425902   3.561262   1.463667   2.511205
    17  H    3.863183   2.642826   2.406769   2.093333   1.089320
    18  H    5.532233   4.468479   4.603724   3.271715   2.019691
    19  H    5.389476   4.898485   5.678335   3.572953   3.457273
    20  H    6.604547   5.853021   6.368281   4.471140   3.791741
    21  H    7.652716   7.243965   8.063122   5.857939   5.630233
    22  H    7.759167   7.197738   7.912942   5.742163   5.259515
    23  H    6.209412   6.129939   7.190561   4.899932   5.194397
    24  H    7.642682   7.458080   8.445260   6.140408   6.181556
    25  H    5.957399   5.888282   6.912170   4.768679   5.067130
    26  H    6.720712   6.326431   7.144909   5.020398   4.830848
    27  H    2.261157   2.558526   3.753718   2.160835   3.376667
                    6          7          8          9         10
     6  N    0.000000
     7  C    1.465320   0.000000
     8  H    2.041293   1.102864   0.000000
     9  C    2.514211   1.525177   2.132400   0.000000
    10  C    3.824268   2.492085   2.648595   1.533073   0.000000
    11  C    4.335585   2.911243   3.152027   2.534243   1.533165
    12  C    3.784416   2.466729   2.591747   2.947087   2.534929
    13  C    2.488912   1.528106   2.128867   2.511006   2.956987
    14  H    2.659100   2.160904   2.489702   3.463616   3.959743
    15  N    3.128442   2.493781   3.402235   2.929321   3.481495
    16  C    3.049686   3.027144   4.036716   3.542597   4.462341
    17  H    2.055624   3.446912   4.001154   4.407393   5.802250
    18  H    1.015102   2.084798   2.331291   2.795977   4.127799
    19  H    2.842750   2.154081   3.044694   1.095539   2.171657
    20  H    2.702733   2.159879   2.500387   1.098685   2.176434
    21  H    4.654243   3.446098   3.671830   2.162521   1.095910
    22  H    4.069297   2.767086   2.462296   2.157507   1.099209
    23  H    4.630072   3.353706   3.881769   2.827294   2.158730
    24  H    5.342314   3.887835   3.922468   3.483818   2.171196
    25  H    4.612263   3.425263   3.603730   3.940144   3.483314
    26  H    3.982407   2.699153   2.349909   3.346760   2.826895
    27  H    4.045730   4.041899   5.080168   4.319956   5.170226
                   11         12         13         14         15
    11  C    0.000000
    12  C    1.529001   0.000000
    13  C    2.519240   1.534206   0.000000
    14  H    3.471938   2.166683   1.101579   0.000000
    15  N    2.892534   2.405423   1.457208   2.108095   0.000000
    16  C    4.116963   3.618091   2.359090   2.651911   1.288396
    17  H    6.170870   5.466217   3.977981   3.756442   4.185863
    18  H    4.922447   4.521802   3.385070   3.578313   4.074304
    19  H    2.828252   3.348286   2.741041   3.736090   2.571919
    20  H    3.488353   3.940042   3.463892   4.296016   3.932658
    21  H    2.170692   3.482065   3.929946   4.978997   4.188801
    22  H    2.163022   2.838079   3.408305   4.240053   4.263252
    23  H    1.095559   2.143969   2.776837   3.774665   2.557293
    24  H    1.096713   2.161708   3.470590   4.303513   3.886177
    25  H    2.166204   1.095839   2.157464   2.487067   2.630724
    26  H    2.168894   1.098347   2.160493   2.470805   3.360580
    27  H    4.744051   4.423759   3.344368   3.658348   2.026676
                   16         17         18         19         20
    16  C    0.000000
    17  H    3.461425   0.000000
    18  H    3.985623   2.304245   0.000000
    19  H    2.999263   4.402201   3.255094   0.000000
    20  H    4.353466   4.504272   2.569641   1.771438   0.000000
    21  H    5.104866   6.564966   4.865550   2.481531   2.520573
    22  H    5.246297   6.121643   4.214284   3.068438   2.465875
    23  H    3.721312   6.275420   5.299892   2.681939   3.833834
    24  H    5.144241   7.215538   5.877241   3.837809   4.319979
    25  H    3.830796   6.072999   5.439295   4.163527   4.977027
    26  H    4.474368   5.736602   4.577128   4.015726   4.158951
    27  H    1.091721   4.204179   4.925069   3.570640   5.111569
                   21         22         23         24         25
    21  H    0.000000
    22  H    1.765719   0.000000
    23  H    2.462978   3.062172   0.000000
    24  H    2.530037   2.465544   1.766205   0.000000
    25  H    4.311146   3.835287   2.452024   2.505967   0.000000
    26  H    3.836672   2.689147   3.059041   2.484355   1.769445
    27  H    5.658655   6.060143   4.125055   5.719358   4.484342
                   26         27
    26  H    0.000000
    27  H    5.373221   0.000000
 Symmetry turned off by external request.
 Stoichiometry    C9H13N3O2
 Framework group  C1[X(C9H13N3O2)]
 Deg. of freedom    75
 Full point group                 C1      NOp   1
 Rotational constants (GHZ):           1.6821226           0.4214982           0.3718779
 Standard basis: 6-31G(d) (6D, 7F)
   236 basis functions,   444 primitive gaussians,   236 cartesian basis functions
    52 alpha electrons       52 beta electrons
       nuclear repulsion energy       931.9511443382 Hartrees.
 NAtoms=   27 NActive=   27 NUniq=   27 SFac= 1.00D+00 NAtFMM=   60 NAOKFM=F Big=F
 Integral buffers will be    131072 words long.
 Raffenetti 1 integral format.
 Two-electron integral symmetry is turned off.
 One-electron integrals computed using PRISM.
 NBasis=   236 RedAO= T EigKep=  1.04D-03  NBF=   236
 NBsUse=   236 1.00D-06 EigRej= -1.00D+00 NBFU=   236
 Initial guess from the checkpoint file:  "/home/alexey/tmp/Gau-1338267.chk"
 B after Tr=     0.054521    0.002394   -0.003556
         Rot=    0.999998   -0.000728    0.001670   -0.000132 Ang=  -0.21 deg.
 ExpMin= 1.61D-01 ExpMax= 5.48D+03 ExpMxC= 8.25D+02 IAcc=3 IRadAn=         5 AccDes= 0.00D+00
 Harris functional with IExCor=  205 and IRadAn=       5 diagonalized for initial guess.
 HarFok:  IExCor=  205 AccDes= 0.00D+00 IRadAn=         5 IDoV= 1 UseB2=F ITyADJ=14
 ICtDFT=  3500011 ScaDFX=  1.000000  1.000000  1.000000  1.000000
 FoFCou: FMM=F IPFlag=           0 FMFlag=      100000 FMFlg1=           0
         NFxFlg=           0 DoJE=T BraDBF=F KetDBF=T FulRan=T
         wScrn=  0.000000 ICntrl=       500 IOpCl=  0 I1Cent=   200000004 NGrid=           0
         NMat0=    1 NMatS0=      1 NMatT0=    0 NMatD0=    1 NMtDS0=    0 NMtDT0=    0
 Symmetry not used in FoFCou.
 Keep R1 ints in memory in canonical form, NReq=397720213.
 Requested convergence on RMS density matrix=1.00D-08 within 128 cycles.
 Requested convergence on MAX density matrix=1.00D-06.
 Requested convergence on             energy=1.00D-06.
 No special actions if energy rises.
 SCF Done:  E(RHF) =  -661.294496731     A.U. after   15 cycles
            NFock= 15  Conv=0.44D-08     -V/T= 2.0025
 ExpMin= 1.61D-01 ExpMax= 5.48D+03 ExpMxC= 8.25D+02 IAcc=3 IRadAn=         5 AccDes= 0.00D+00
 HarFok:  IExCor=  205 AccDes= 0.00D+00 IRadAn=         5 IDoV=-2 UseB2=F ITyADJ=14
 ICtDFT= 12500011 ScaDFX=  1.000000  1.000000  1.000000  1.000000
 Range of M.O.s used for correlation:    15   236
 NBasis=   236 NAE=    52 NBE=    52 NFC=    14 NFV=     0
 NROrb=    222 NOA=    38 NOB=    38 NVA=   184 NVB=   184
 Fully direct method using O(ONN) memory.
 JobTyp=1 Pass  1:  I=  15 to  52 NPSUse=  4 ParTrn=T ParDer=T DoDerP=T.
 Spin components of T(2) and E(2):
     alpha-alpha T2 =       0.9123265182D-01 E2=     -0.2723120509D+00
     alpha-beta  T2 =       0.4918370897D+00 E2=     -0.1488636862D+01
     beta-beta   T2 =       0.9123265182D-01 E2=     -0.2723120509D+00
 ANorm=    0.1293948374D+01
 E2 =    -0.2033260964D+01 EUMP2 =    -0.66332775769477D+03
          IDoAtm=111111111111111111111111111
          Differentiating once with respect to electric field.
                with respect to dipole field.
          Differentiating once with respect to nuclear coordinates.
 Keep R1 ints in memory in canonical form, NReq=397723379.
          There are     1 degrees of freedom in the 1st order CPHF.  IDoFFX=0 NUNeed=     1.
 LinEq1:  Iter=  0 NonCon=     1 RMS=4.56D-03 Max=1.05D-01 NDo=     1
 AX will form     1 AO Fock derivatives at one time.
 LinEq1:  Iter=  1 NonCon=     1 RMS=1.53D-03 Max=2.57D-02 NDo=     1
 LinEq1:  Iter=  2 NonCon=     1 RMS=6.38D-04 Max=1.74D-02 NDo=     1
 LinEq1:  Iter=  3 NonCon=     1 RMS=2.83D-04 Max=8.41D-03 NDo=     1
 LinEq1:  Iter=  4 NonCon=     1 RMS=8.82D-05 Max=1.76D-03 NDo=     1
 LinEq1:  Iter=  5 NonCon=     1 RMS=3.72D-05 Max=1.88D-03 NDo=     1
 LinEq1:  Iter=  6 NonCon=     1 RMS=1.46D-05 Max=4.96D-04 NDo=     1
 LinEq1:  Iter=  7 NonCon=     1 RMS=5.70D-06 Max=9.82D-05 NDo=     1
 LinEq1:  Iter=  8 NonCon=     1 RMS=2.35D-06 Max=7.80D-05 NDo=     1
[...]
                   16         17         18         19         20
    16  C    0.000000
    17  H    3.449808   0.000000
    18  H    4.048835   2.216642   0.000000
    19  H    2.972666   4.337053   3.511910   0.000000
    20  H    4.350810   4.476171   2.888196   1.768452   0.000000
    21  H    5.085258   6.532488   5.090232   2.498955   2.521619
    22  H    5.234890   6.103158   4.317033   3.070176   2.460714
    23  H    3.699927   6.246612   5.418807   2.706192   3.843710
    24  H    5.136074   7.200393   5.935667   3.851108   4.317183
    25  H    3.829037   6.069329   5.364026   4.172663   4.985850
    26  H    4.495551   5.763026   4.488745   4.042423   4.188342
    27  H    1.089429   4.209272   5.031433   3.530113   5.094963
                   21         22         23         24         25
    21  H    0.000000
    22  H    1.758782   0.000000
    23  H    2.468719   3.061893   0.000000
    24  H    2.516948   2.459503   1.764622   0.000000
    25  H    4.312203   3.841612   2.442756   2.521159   0.000000
    26  H    3.849458   2.708580   3.060327   2.489359   1.767803
    27  H    5.609874   6.024365   4.071232   5.679017   4.459300
                   26         27
    26  H    0.000000
    27  H    5.372815   0.000000
 Symmetry turned off by external request.
 Stoichiometry    C9H13N3O2
 Framework group  C1[X(C9H13N3O2)]
 Deg. of freedom    75
 Full point group                 C1      NOp   1
 Rotational constants (GHZ):           1.6773805           0.4185608           0.3711482

 **********************************************************************

            Population analysis using the SCF Density.

 **********************************************************************

 Alpha  occ. eigenvalues --  -20.59496 -20.58918 -15.84891 -15.64204 -15.56013
 Alpha  occ. eigenvalues --  -11.35315 -11.29596 -11.29243 -11.28693 -11.27035
 Alpha  occ. eigenvalues --  -11.23682 -11.23187 -11.22667 -11.22066  -1.57231
 Alpha  occ. eigenvalues --   -1.36830  -1.31051  -1.22969  -1.14701  -1.09803
 Alpha  occ. eigenvalues --   -1.02848  -1.01343  -0.94949  -0.89584  -0.85599
 Alpha  occ. eigenvalues --   -0.82316  -0.78391  -0.77465  -0.75227  -0.72228
 Alpha  occ. eigenvalues --   -0.69931  -0.69495  -0.67824  -0.64937  -0.63646
 Alpha  occ. eigenvalues --   -0.62240  -0.60041  -0.57741  -0.56949  -0.54953
 Alpha  occ. eigenvalues --   -0.54492  -0.50812  -0.50053  -0.48918  -0.48001
 Alpha  occ. eigenvalues --   -0.47453  -0.46081  -0.46016  -0.43684  -0.41535
 Alpha  occ. eigenvalues --   -0.39631  -0.34020
 Alpha virt. eigenvalues --    0.07074   0.12328   0.17175   0.21804   0.24039
 Alpha virt. eigenvalues --    0.25680   0.27098   0.28636   0.29063   0.29529
 Alpha virt. eigenvalues --    0.30663   0.31917   0.31981   0.32774   0.33978
 Alpha virt. eigenvalues --    0.34378   0.35752   0.36828   0.38648   0.40471
 Alpha virt. eigenvalues --    0.41500   0.42570   0.45222   0.45938   0.46495
 Alpha virt. eigenvalues --    0.47098   0.48822   0.53498   0.57333   0.59728
 Alpha virt. eigenvalues --    0.63650   0.69626   0.70343   0.72826   0.74245
 Alpha virt. eigenvalues --    0.75513   0.75737   0.76843   0.78912   0.79492
 Alpha virt. eigenvalues --    0.81114   0.84828   0.85595   0.85952   0.88487
 Alpha virt. eigenvalues --    0.89462   0.90786   0.92350   0.92791   0.94505
 Alpha virt. eigenvalues --    0.95611   0.98129   0.99578   1.01751   1.02464
 Alpha virt. eigenvalues --    1.03103   1.05731   1.06750   1.07273   1.09071
 Alpha virt. eigenvalues --    1.10254   1.11076   1.11843   1.12468   1.13945
 Alpha virt. eigenvalues --    1.14704   1.15035   1.15868   1.16940   1.18747
 Alpha virt. eigenvalues --    1.19217   1.21363   1.22008   1.23520   1.24002
 Alpha virt. eigenvalues --    1.24871   1.25992   1.26845   1.27714   1.29797
 Alpha virt. eigenvalues --    1.30385   1.32958   1.35547   1.36686   1.41148
 Alpha virt. eigenvalues --    1.42692   1.47356   1.49117   1.50689   1.54835
 Alpha virt. eigenvalues --    1.55688   1.58582   1.60080   1.63251   1.65284
 Alpha virt. eigenvalues --    1.67803   1.69193   1.72352   1.75247   1.77345
 Alpha virt. eigenvalues --    1.81563   1.84244   1.87523   1.90757   1.93411
 Alpha virt. eigenvalues --    1.95866   1.97072   1.99417   2.01211   2.03147
 Alpha virt. eigenvalues --    2.04139   2.06471   2.07793   2.10115   2.12609
 Alpha virt. eigenvalues --    2.13532   2.15505   2.18720   2.20304   2.21800
 Alpha virt. eigenvalues --    2.22872   2.24456   2.25611   2.28144   2.29542
 Alpha virt. eigenvalues --    2.31715   2.34161   2.35133   2.35990   2.38418
 Alpha virt. eigenvalues --    2.40023   2.41139   2.42796   2.45101   2.47249
 Alpha virt. eigenvalues --    2.51250   2.52110   2.53140   2.55507   2.62159
 Alpha virt. eigenvalues --    2.63075   2.65233   2.67411   2.70350   2.70789
 Alpha virt. eigenvalues --    2.72446   2.72999   2.76966   2.78778   2.83675
 Alpha virt. eigenvalues --    2.88962   2.89461   2.92710   2.92993   2.96372
 Alpha virt. eigenvalues --    2.99352   3.01508   3.03381   3.05297   3.07597
 Alpha virt. eigenvalues --    3.09288   3.15177   3.21848   3.24333   3.27820
 Alpha virt. eigenvalues --    3.33800   3.37216   3.39251   3.53298   3.64890
 Alpha virt. eigenvalues --    4.13321   4.29370   4.34427   4.37718   4.46500
 Alpha virt. eigenvalues --    4.56807   4.61954   4.62476   4.73369   4.79866
 Alpha virt. eigenvalues --    4.99233   5.00973   5.04668   5.11130
          Condensed to atoms (all electrons):
               1          2          3          4          5          6
     1  O    8.316356   0.307835  -0.081987  -0.082857   0.004095  -0.000011
     2  N    0.307835   5.735654   0.303075   0.255488  -0.044739   0.000925
     3  O   -0.081987   0.303075   8.346840  -0.096209   0.007996   0.000554
     4  C   -0.082857   0.255488  -0.096209   5.214872   0.564706  -0.043287
     5  C    0.004095  -0.044739   0.007996   0.564706   4.682772   0.322914
     6  N   -0.000011   0.000925   0.000554  -0.043287   0.322914   7.193433
     7  C    0.000004  -0.000115   0.000004   0.004786  -0.030931   0.166695
     8  H   -0.000000   0.000002  -0.000000  -0.000299   0.003230  -0.051129
     9  C   -0.000000  -0.000003  -0.000000   0.000948   0.000561  -0.060422
    10  C    0.000000   0.000000   0.000000  -0.000041  -0.000045   0.003714
    11  C   -0.000000  -0.000000  -0.000000  -0.000022   0.000025  -0.000194
    12  C   -0.000000   0.000003  -0.000000  -0.000169  -0.000131   0.003915
    13  C   -0.000036  -0.000062  -0.000004  -0.011331  -0.000395  -0.048728
    14  H   -0.000003  -0.000096   0.000001   0.003009   0.006169  -0.007216
    15  N    0.000271   0.002551  -0.000020  -0.063273  -0.005010   0.001088
    16  C   -0.001893  -0.034473   0.002740   0.324447  -0.050880  -0.003787
    17  H    0.000133  -0.005662   0.013938  -0.024138   0.375381  -0.036508
    18  H    0.000001  -0.000040   0.000006   0.001540  -0.031803   0.339222
    19  H    0.000001  -0.000003   0.000000  -0.001109   0.001158  -0.000328
    20  H    0.000000  -0.000000   0.000000  -0.000069   0.000124  -0.000447
    21  H   -0.000000   0.000000  -0.000000   0.000001   0.000001  -0.000076
    22  H   -0.000000   0.000000  -0.000000  -0.000000  -0.000004  -0.000116
    23  H    0.000000  -0.000000   0.000000   0.000039  -0.000002  -0.000030
    24  H    0.000000   0.000000   0.000000   0.000000  -0.000000   0.000006
    25  H    0.000000  -0.000000   0.000000   0.000025  -0.000002  -0.000092
    26  H   -0.000000  -0.000000   0.000000   0.000007  -0.000005  -0.000062
    27  H    0.004934  -0.001629  -0.000019  -0.063524   0.002529   0.000026
               7          8          9         10         11         12
     1  O    0.000004  -0.000000  -0.000000   0.000000  -0.000000  -0.000000
     2  N   -0.000115   0.000002  -0.000003   0.000000  -0.000000   0.000003
     3  O    0.000004  -0.000000  -0.000000   0.000000  -0.000000  -0.000000
     4  C    0.004786  -0.000299   0.000948  -0.000041  -0.000022  -0.000169
     5  C   -0.030931   0.003230   0.000561  -0.000045   0.000025  -0.000131
     6  N    0.166695  -0.051129  -0.060422   0.003714  -0.000194   0.003915
     7  C    5.015423   0.418525   0.350750  -0.054937  -0.009004  -0.061126
     8  H    0.418525   0.539757  -0.055524   0.000893  -0.000347  -0.001978
     9  C    0.350750  -0.055524   5.158077   0.324510  -0.050205  -0.005468
    10  C   -0.054937   0.000893   0.324510   5.119776   0.337048  -0.060722
    11  C   -0.009004  -0.000347  -0.050205   0.337048   5.119148   0.335939
    12  C   -0.061126  -0.001978  -0.005468  -0.060722   0.335939   5.117908
    13  C    0.341569  -0.038595  -0.059446  -0.000319  -0.050474   0.372286
    14  H   -0.046031  -0.000786   0.004418  -0.000407   0.004200  -0.036662
    15  N   -0.058458   0.004071  -0.015623   0.001524  -0.012816  -0.081896
    16  C   -0.001827   0.000067  -0.001838  -0.000000   0.000001   0.002626
    17  H    0.001783  -0.000044  -0.000080   0.000001   0.000000   0.000001
    18  H   -0.021271  -0.004477   0.001300  -0.000083   0.000004  -0.000117
    19  H   -0.036560   0.004371   0.390075  -0.031843  -0.002209   0.000711
    20  H   -0.042477  -0.002184   0.399430  -0.035403   0.003935  -0.000417
    21  H    0.004604  -0.000078  -0.036307   0.402432  -0.034849   0.004330
    22  H   -0.004781   0.003558  -0.046997   0.397712  -0.045539  -0.000952
    23  H    0.000579   0.000033  -0.001944  -0.038987   0.399065  -0.037683
    24  H   -0.000128  -0.000101   0.004384  -0.038483   0.402342  -0.038769
    25  H    0.005139  -0.000031  -0.000419   0.004175  -0.033450   0.398141
    26  H   -0.003841   0.001700   0.000948  -0.002166  -0.041559   0.396778
    27  H   -0.000452   0.000010  -0.000069   0.000008   0.000012  -0.000030
              13         14         15         16         17         18
     1  O   -0.000036  -0.000003   0.000271  -0.001893   0.000133   0.000001
     2  N   -0.000062  -0.000096   0.002551  -0.034473  -0.005662  -0.000040
     3  O   -0.000004   0.000001  -0.000020   0.002740   0.013938   0.000006
     4  C   -0.011331   0.003009  -0.063273   0.324447  -0.024138   0.001540
     5  C   -0.000395   0.006169  -0.005010  -0.050880   0.375381  -0.031803
     6  N   -0.048728  -0.007216   0.001088  -0.003787  -0.036508   0.339222
     7  C    0.341569  -0.046031  -0.058458  -0.001827   0.001783  -0.021271
     8  H   -0.038595  -0.000786   0.004071   0.000067  -0.000044  -0.004477
     9  C   -0.059446   0.004418  -0.015623  -0.001838  -0.000080   0.001300
    10  C   -0.000319  -0.000407   0.001524  -0.000000   0.000001  -0.000083
    11  C   -0.050474   0.004200  -0.012816   0.000001   0.000000   0.000004
    12  C    0.372286  -0.036662  -0.081896   0.002626   0.000001  -0.000117
    13  C    5.041199   0.402287   0.241640  -0.071671  -0.000019   0.003076
    14  H    0.402287   0.527623  -0.036720  -0.004456   0.000106  -0.000091
    15  N    0.241640  -0.036720   6.964253   0.586209  -0.000083  -0.000134
    16  C   -0.071671  -0.004456   0.586209   4.727369   0.002644  -0.000190
    17  H   -0.000019   0.000106  -0.000083   0.002644   0.394983  -0.003337
    18  H    0.003076  -0.000091  -0.000134  -0.000190  -0.003337   0.310247
    19  H   -0.007605   0.000100   0.007844   0.003146   0.000016  -0.000145
    20  H    0.004331  -0.000064   0.000138  -0.000034   0.000002   0.000806
    21  H   -0.000424   0.000010  -0.000041   0.000003  -0.000000   0.000001
    22  H    0.000007  -0.000057   0.000018  -0.000002   0.000000   0.000001
    23  H   -0.007477   0.000001   0.008540   0.000101   0.000000   0.000000
    24  H    0.004690  -0.000056   0.000145   0.000007   0.000000  -0.000000
    25  H   -0.035477  -0.002769   0.000301  -0.000025  -0.000000   0.000002
    26  H   -0.047480  -0.001051   0.004899  -0.000063   0.000000  -0.000000
    27  H    0.005355  -0.000194  -0.041807   0.404296  -0.000082   0.000001
              19         20         21         22         23         24
     1  O    0.000001   0.000000  -0.000000  -0.000000   0.000000   0.000000
     2  N   -0.000003  -0.000000   0.000000   0.000000  -0.000000   0.000000
     3  O    0.000000   0.000000  -0.000000  -0.000000   0.000000   0.000000
     4  C   -0.001109  -0.000069   0.000001  -0.000000   0.000039   0.000000
     5  C    0.001158   0.000124   0.000001  -0.000004  -0.000002  -0.000000
     6  N   -0.000328  -0.000447  -0.000076  -0.000116  -0.000030   0.000006
     7  C   -0.036560  -0.042477   0.004604  -0.004781   0.000579  -0.000128
     8  H    0.004371  -0.002184  -0.000078   0.003558   0.000033  -0.000101
     9  C    0.390075   0.399430  -0.036307  -0.046997  -0.001944   0.004384
    10  C   -0.031843  -0.035403   0.402432   0.397712  -0.038987  -0.038483
    11  C   -0.002209   0.003935  -0.034849  -0.045539   0.399065   0.402342
    12  C    0.000711  -0.000417   0.004330  -0.000952  -0.037683  -0.038769
    13  C   -0.007605   0.004331  -0.000424   0.000007  -0.007477   0.004690
    14  H    0.000100  -0.000064   0.000010  -0.000057   0.000001  -0.000056
    15  N    0.007844   0.000138  -0.000041   0.000018   0.008540   0.000145
    16  C    0.003146  -0.000034   0.000003  -0.000002   0.000101   0.000007
    17  H    0.000016   0.000002  -0.000000   0.000000   0.000000   0.000000
    18  H   -0.000145   0.000806   0.000001   0.000001   0.000000  -0.000000
    19  H    0.503492  -0.024757  -0.002795   0.003949   0.001497  -0.000066
    20  H   -0.024757   0.542117  -0.002669  -0.003020  -0.000045  -0.000083
    21  H   -0.002795  -0.002669   0.523955  -0.027430  -0.002906  -0.002232
    22  H    0.003949  -0.003020  -0.027430   0.571750   0.004146  -0.003676
    23  H    0.001497  -0.000045  -0.002906   0.004146   0.499009  -0.025501
    24  H   -0.000066  -0.000083  -0.002232  -0.003676  -0.025501   0.538512
    25  H   -0.000028   0.000013  -0.000087  -0.000080  -0.002347  -0.002250
    26  H    0.000019  -0.000030  -0.000082   0.002376   0.004069  -0.003081
    27  H    0.000083   0.000000  -0.000000   0.000000  -0.000038  -0.000000
              25         26         27
     1  O    0.000000  -0.000000   0.004934
     2  N   -0.000000  -0.000000  -0.001629
     3  O    0.000000   0.000000  -0.000019
     4  C    0.000025   0.000007  -0.063524
     5  C   -0.000002  -0.000005   0.002529
     6  N   -0.000092  -0.000062   0.000026
     7  C    0.005139  -0.003841  -0.000452
     8  H   -0.000031   0.001700   0.000010
     9  C   -0.000419   0.000948  -0.000069
    10  C    0.004175  -0.002166   0.000008
    11  C   -0.033450  -0.041559   0.000012
    12  C    0.398141   0.396778  -0.000030
    13  C   -0.035477  -0.047480   0.005355
    14  H   -0.002769  -0.001051  -0.000194
    15  N    0.000301   0.004899  -0.041807
    16  C   -0.000025  -0.000063   0.404296
    17  H   -0.000000   0.000000  -0.000082
    18  H    0.000002  -0.000000   0.000001
    19  H   -0.000028   0.000019   0.000083
    20  H    0.000013  -0.000030   0.000000
    21  H   -0.000087  -0.000082  -0.000000
    22  H   -0.000080   0.002376   0.000000
    23  H   -0.002347   0.004069  -0.000038
    24  H   -0.002250  -0.003081  -0.000000
    25  H    0.506698  -0.024133  -0.000013
    26  H   -0.024133   0.562594   0.000001
    27  H   -0.000013   0.000001   0.446097
 Mulliken charges:
               1
     1  O   -0.466841
     2  N    0.481291
     3  O   -0.496913
     4  C    0.016460
     5  C    0.192284
     6  N   -0.780057
     7  C    0.062081
     8  H    0.179357
     9  C   -0.301055
    10  C   -0.328356
    11  C   -0.321051
    12  C   -0.306517
    13  C   -0.036897
    14  H    0.188735
    15  N   -0.507612
    16  C    0.117481
    17  H    0.280965
    18  H    0.405481
    19  H    0.190985
    20  H    0.160804
    21  H    0.174639
    22  H    0.149138
    23  H    0.199880
    24  H    0.164341
    25  H    0.186710
    26  H    0.150163
    27  H    0.244506
 Sum of Mulliken charges =  -0.00000
 Mulliken charges with hydrogens summed into heavy atoms:
               1
     1  O   -0.466841
     2  N    0.481291
     3  O   -0.496913
     4  C    0.016460
     5  C    0.473250
     6  N   -0.374576
     7  C    0.241437
     9  C    0.050733
    10  C   -0.004579
    11  C    0.043169
    12  C    0.030355
    13  C    0.151838
    15  N   -0.507612
    16  C    0.361987
 Electronic spatial extent (au):  <R**2>=           3011.2261
 Charge=             -0.0000 electrons
 Dipole moment (field-independent basis, Debye):
    X=              5.3828    Y=              5.0138    Z=              1.1974  Tot=              7.4530
 Quadrupole moment (field-independent basis, Debye-Ang):
   XX=           -105.8951   YY=            -79.2798   ZZ=            -81.4229
   XY=             -2.4676   XZ=              0.3766   YZ=              1.8757
 Traceless Quadrupole moment (field-independent basis, Debye-Ang):
   XX=            -17.0292   YY=              9.5861   ZZ=              7.4430
   XY=             -2.4676   XZ=              0.3766   YZ=              1.8757
 Octapole moment (field-independent basis, Debye-Ang**2):
  XXX=             92.5121  YYY=             39.4259  ZZZ=             -2.2241  XYY=             -3.5552
  XXY=             11.6775  XXZ=              2.2714  XZZ=             -9.9181  YZZ=             -0.2440
  YYZ=              8.0198  XYZ=             -0.0023
 Hexadecapole moment (field-independent basis, Debye-Ang**3):
 XXXX=          -3390.8199 YYYY=           -603.1584 ZZZZ=           -303.1644 XXXY=            -38.6740
 XXXZ=              4.1925 YYYX=            -27.0357 YYYZ=             24.3453 ZZZX=              9.4363
 ZZZY=              7.4054 XXYY=           -628.6561 XXZZ=           -523.6685 YYZZ=           -157.7500
 XXYZ=             -3.2094 YYXZ=              3.9772 ZZXY=              1.0704
 N-N= 9.308413972762D+02 E-N=-3.408383063353D+03  KE= 6.596256700365D+02
 Unable to Open any file for archive entry.
 1\1\GINC-LOTUS\FOpt\RMP2-FC\6-31G(d)\C9H13N3O2\ALEXEY\01-Jul-2023\0\\#
 MP2/6-31G* SCF=Tight Opt=(ModRedun, MaxCycle=20 ) NoSymm\\MolName:\\0,
 1\O,-3.4362297399,-1.4913572306,-0.3177295877\N,-3.1296873165,-0.30722
 50383,-0.0872806492\O,-3.9618751412,0.6047310468,0.0977515074\C,-1.726
 3008258,0.0262650838,-0.0152955958\C,-1.2958982637,1.2906629917,0.2759
 155117\N,-0.0434210688,1.7662525417,0.3655630546\C,1.2158264552,1.0351
 652705,0.3454721742\H,1.8625422595,1.564726174,1.061900475\C,1.9302960
 895,1.0347965337,-1.0040582754\C,3.3196356963,0.4114955259,-0.82514087
 53\C,3.2497186713,-0.982453092,-0.1953090388\C,2.4428264494,-0.9818139
 335,1.1052196252\C,1.0447217131,-0.4050068133,0.8595175933\H,0.4619684
 224,-0.3724240134,1.793884586\N,0.3908251544,-1.2748441927,-0.11075780
 31\C,-0.8485738011,-1.0714256831,-0.4191021682\H,-2.0717415024,2.03529
 39187,0.4488452653\H,0.0211496728,2.7512930058,0.5925651736\H,1.336244
 5548,0.4639506847,-1.7252151832\H,2.0127394726,2.0614684282,-1.3821220
 017\H,3.8323144679,0.3646673058,-1.7927016857\H,3.9215318549,1.0722546
 34,-0.1850092574\H,2.7707182089,-1.6750557995,-0.8943052075\H,4.263044
 8792,-1.3569767191,-0.0079209108\H,2.338747705,-2.0027124343,1.4875212
 64\H,2.9555684194,-0.3927492711,1.878260753\H,-1.2936924871,-1.8039789
 246,-1.0914787436\\Version=ES64L-G16RevC.02\HF=-661.2972649\MP2=-663.3
 317612\RMSD=4.300e-09\RMSF=4.504e-03\Dipole=1.9691044,1.7537202,0.4431
 644\PG=C01 [X(C9H13N3O2)]\\@
 The archive entry for this job was punched.


 THERE IS SOMETHING FASCINATING ABOUT SCIENCE.
 ONE GETS SUCH WHOLESALE CONJECTURE OUT OF SUCH TRIFLING INVESTMENTS.

                                                       -- MARK TWAIN
 Job cpu time:       0 days  1 hours 17 minutes 18.5 seconds.
 Elapsed time:       0 days  0 hours 23 minutes 18.0 seconds.
 File lengths (MBytes):  RWF=     36 Int=      0 D2E=      0 Chk=      7 Scr=      1
 Normal termination of Gaussian 16 at Sat Jul  1 14:48:52 2023.
