 Entering Gaussian System, Link 0=g16
 Initial command:
 /home/alexey/programs//g16/l1.exe "/home/alexey/tmp/Gau-1209430.inp" -scrdir="/home/alexey/tmp/"
 Entering Link 1 = /home/alexey/programs//g16/l1.exe PID=   1209432.
  
 Copyright (c) 1988-2021, Gaussian, Inc.  All Rights Reserved.
  
 This is part of the Gaussian(R) 16 program.  It is based on
 the Gaussian(R) 09 system (copyright 2009, Gaussian, Inc.),
 the Gaussian(R) 03 system (copyright 2003, Gaussian, Inc.),
 the Gaussian(R) 98 system (copyright 1998, Gaussian, Inc.),
 the Gaussian(R) 94 system (copyright 1995, Gaussian, Inc.),
 the Gaussian 92(TM) system (copyright 1992, Gaussian, Inc.),
 the Gaussian 90(TM) system (copyright 1990, Gaussian, Inc.),
 the Gaussian 88(TM) system (copyright 1988, Gaussian, Inc.),
 the Gaussian 86(TM) system (copyright 1986, Carnegie Mellon
 University), and the Gaussian 82(TM) system (copyright 1983,
 Carnegie Mellon University). Gaussian is a federally registered
 trademark of Gaussian, Inc.
  
 This software contains proprietary and confidential information,
 including trade secrets, belonging to Gaussian, Inc.
  
 This software is provided under written license and may be
 used, copied, transmitted, or stored only in accord with that
 written license.
  
 The following legend is applicable only to US Government
 contracts under FAR:
  
                    RESTRICTED RIGHTS LEGEND
  
 Use, reproduction and disclosure by the US Government is
 subject to restrictions as set forth in subparagraphs (a)
 and (c) of the Commercial Computer Software - Restricted
 Rights clause in FAR 52.227-19.
  
 Gaussian, Inc.
 340 Quinnipiac St., Bldg. 40, Wallingford CT 06492
  
  
 ---------------------------------------------------------------
 Warning -- This program may not be used in any manner that
 competes with the business of Gaussian, Inc. or will provide
 assistance to any competitor of Gaussian, Inc.  The licensee
 of this program is prohibited from giving any competitor of
 Gaussian, Inc. access to this program.  By using this program,
 the user acknowledges that Gaussian, Inc. is engaged in the
 business of creating and licensing software in the field of
 computational chemistry and represents and warrants to the
 licensee that it is not a competitor of Gaussian, Inc. and that
 it will not use this program in any manner prohibited above.
 ---------------------------------------------------------------
  

 Cite this work as:
 Gaussian 16, Revision C.02,
 M. J. Frisch, G. W. Trucks, H. B. Schlegel, G. E. Scuseria, 
 M. A. Robb, J. R. Cheeseman, G. Scalmani, V. Barone, 
 G. A. Petersson, H. Nakatsuji, X. Li, M. Caricato, A. V. Marenich, 
 J. Bloino, B. G. Janesko, R. Gomperts, B. Mennucci, H. P. Hratchian, 
 J. V. Ortiz, A. F. Izmaylov, J. L. Sonnenberg, D. Williams-Young, 
 F. Ding, F. Lipparini, F. Egidi, J. Goings, B. Peng, A. Petrone, 
 T. Henderson, D. Ranasinghe, V. G. Zakrzewski, J. Gao, N. Rega, 
 G. Zheng, W. Liang, M. Hada, M. Ehara, K. Toyota, R. Fukuda, 
 J. Hasegawa, M. Ishida, T. Nakajima, Y. Honda, O. Kitao, H. Nakai, 
 T. Vreven, K. Throssell, J. A. Montgomery, Jr., J. E. Peralta, 
 F. Ogliaro, M. J. Bearpark, J. J. Heyd, E. N. Brothers, K. N. Kudin, 
 V. N. Staroverov, T. A. Keith, R. Kobayashi, J. Normand, 
 K. Raghavachari, A. P. Rendell, J. C. Burant, S. S. Iyengar, 
 J. Tomasi, M. Cossi, J. M. Millam, M. Klene, C. Adamo, R. Cammi, 
 J. W. Ochterski, R. L. Martin, K. Morokuma, O. Farkas, 
 J. B. Foresman, and D. J. Fox, Gaussian, Inc., Wallingford CT, 2019.
 
 ******************************************
 Gaussian 16:  ES64L-G16RevC.02  7-Dec-2021
                30-Jun-2023 
 ******************************************
 %mem=8GB
 %NPROCS=4
 Will use up to    4 processors via shared memory.
 %NoSave
 ---------------------------------------------------------
 #MP2/6-31G* SCF=Tight Opt=(ModRedun, MaxCycle=20 ) NoSymm
 ---------------------------------------------------------
 1/6=20,18=120,19=15,38=1/1,3;
 2/9=110,12=2,15=1,17=6,18=5,40=1/2;
 3/5=1,6=6,7=1,11=9,25=1,30=1,71=1/1,2,3;
 4//1;
 5/5=2,32=2,38=5/2;
 8/6=4,10=2/1;
 9/15=2,16=-3/6;
 10/5=1,31=1/2;
 6/7=2,8=2,9=2,10=2/1;
 7/12=2,30=1/1,2,3,16;
 1/6=20,18=20,19=15/3(2);
 2/9=110,15=1/2;
 99//99;
 2/9=110,15=1/2;
 3/5=1,6=6,7=1,11=9,25=1,30=1,71=1/1,2,3;
 4/5=5,16=3,69=1/1;
 5/5=2,32=2,38=5/2;
 8/6=4,10=2/1;
 9/15=2,16=-3/6;
 10/5=1,31=1/2;
 7/12=2,30=1/1,2,3,16;
 1/6=20,18=20,19=15/3(-8);
 2/9=110,15=1/2;
 6/7=2,8=2,9=2,10=2/1;
 99/9=10/99;
 --------
 MolName:
 --------
 Symbolic Z-matrix:
 Charge =  0 Multiplicity = 1
 8                    0    -3.65205  -1.36573  -0.1963 
 7                    0    -3.2542   -0.21151  -0.05333 
 8                    0    -4.01251   0.75956   0.008 
 6                    0    -1.72784  -0.02311  -0.05304 
 6                    0    -1.37794   1.29616   0.26422 
 7                    0    -0.09414   1.74774   0.42237 
 6                    0     1.19042   0.98218   0.378 
 1                    0     1.85805   1.48261   1.12651 
 6                    0     1.93928   1.04547  -0.97666 
 6                    0     3.35951   0.47339  -0.8052 
 6                    0     3.31972  -0.945    -0.21481 
 6                    0     2.48676  -0.99164   1.08414 
 6                    0     1.04104  -0.47302   0.8527 
 1                    0     0.50243  -0.51931   1.82818 
 7                    0     0.38418  -1.35415  -0.11831 
 6                    0    -0.86286  -1.17353  -0.40314 
 1                    0    -2.16797   2.04217   0.45176 
 1                    0     0.13649   2.73532   0.28878 
 1                    0     1.38694   0.46495  -1.74599 
 1                    0     2.01036   2.09728  -1.32643 
 1                    0     3.88323   0.45821  -1.78606 
 1                    0     3.93752   1.13125  -0.11834 
 1                    0     2.87185  -1.63694  -0.96338 
 1                    0     4.35407  -1.29806  -0.0105 
 1                    0     2.4451   -2.0393    1.45481 
 1                    0     2.98184  -0.37612   1.86419 
 1                    0    -1.37827  -1.94586  -0.99418 
 
 The following ModRedundant input section has been read:
 A       2       4       5 F                                                   
 D       1       2       4      16 F                                           
 D       7      13      15      16 F                                           
 D       7       9      10      11 F                                           
 D       9      10      11      12 F                                           
 D       6       7      13      15 F                                           
 

 GradGradGradGradGradGradGradGradGradGradGradGradGradGradGradGradGradGrad
 Berny optimization.
 Initialization pass.
                           ----------------------------
                           !    Initial Parameters    !
                           ! (Angstroms and Degrees)  !
 --------------------------                            --------------------------
 ! Name  Definition              Value          Derivative Info.                !
 --------------------------------------------------------------------------------
 ! R1    R(1,2)                  1.2292         estimate D2E/DX2                !
 ! R2    R(2,3)                  1.2336         estimate D2E/DX2                !
 ! R3    R(2,4)                  1.5379         estimate D2E/DX2                !
 ! R4    R(4,5)                  1.4013         estimate D2E/DX2                !
 ! R5    R(4,16)                 1.4813         estimate D2E/DX2                !
 ! R6    R(5,6)                  1.3701         estimate D2E/DX2                !
 ! R7    R(5,17)                 1.1027         estimate D2E/DX2                !
 ! R8    R(6,7)                  1.496          estimate D2E/DX2                !
 ! R9    R(6,18)                 1.0229         estimate D2E/DX2                !
 ! R10   R(7,8)                  1.1209         estimate D2E/DX2                !
 ! R11   R(7,9)                  1.5492         estimate D2E/DX2                !
 ! R12   R(7,13)                 1.5379         estimate D2E/DX2                !
 ! R13   R(9,10)                 1.5407         estimate D2E/DX2                !
 ! R14   R(9,19)                 1.1108         estimate D2E/DX2                !
 ! R15   R(9,20)                 1.1107         estimate D2E/DX2                !
 ! R16   R(10,11)                1.5369         estimate D2E/DX2                !
 ! R17   R(10,21)                1.112          estimate D2E/DX2                !
 ! R18   R(10,22)                1.1129         estimate D2E/DX2                !
 ! R19   R(11,12)                1.5438         estimate D2E/DX2                !
 ! R20   R(11,23)                1.1134         estimate D2E/DX2                !
 ! R21   R(11,24)                1.1119         estimate D2E/DX2                !
 ! R22   R(12,13)                1.5533         estimate D2E/DX2                !
 ! R23   R(12,25)                1.1121         estimate D2E/DX2                !
 ! R24   R(12,26)                1.1102         estimate D2E/DX2                !
 ! R25   R(13,14)                1.1153         estimate D2E/DX2                !
 ! R26   R(13,15)                1.4665         estimate D2E/DX2                !
 ! R27   R(15,16)                1.2918         estimate D2E/DX2                !
 ! R28   R(16,27)                1.1007         estimate D2E/DX2                !
 ! A1    A(1,2,3)              123.0919         estimate D2E/DX2                !
 ! A2    A(1,2,4)              115.8665         estimate D2E/DX2                !
 ! A3    A(3,2,4)              120.9067         estimate D2E/DX2                !
 ! A4    A(2,4,5)              111.2967         Frozen                          !
 ! A5    A(2,4,16)             118.9702         estimate D2E/DX2                !
 ! A6    A(5,4,16)             129.7089         estimate D2E/DX2                !
 ! A7    A(4,5,6)              124.7803         estimate D2E/DX2                !
 ! A8    A(4,5,17)             119.7732         estimate D2E/DX2                !
 ! A9    A(6,5,17)             115.3875         estimate D2E/DX2                !
 ! A10   A(5,6,7)              129.2337         estimate D2E/DX2                !
 ! A11   A(5,6,18)             120.9582         estimate D2E/DX2                !
 ! A12   A(7,6,18)             107.2524         estimate D2E/DX2                !
 ! A13   A(6,7,8)              105.2573         estimate D2E/DX2                !
 ! A14   A(6,7,9)              114.8404         estimate D2E/DX2                !
 ! A15   A(6,7,13)             113.0565         estimate D2E/DX2                !
 ! A16   A(8,7,9)              106.1274         estimate D2E/DX2                !
 ! A17   A(8,7,13)             105.9126         estimate D2E/DX2                !
 ! A18   A(9,7,13)             110.825          estimate D2E/DX2                !
 ! A19   A(7,9,10)             109.4581         estimate D2E/DX2                !
 ! A20   A(7,9,19)             110.115          estimate D2E/DX2                !
 ! A21   A(7,9,20)             110.1812         estimate D2E/DX2                !
 ! A22   A(10,9,19)            109.961          estimate D2E/DX2                !
 ! A23   A(10,9,20)            109.1277         estimate D2E/DX2                !
 ! A24   A(19,9,20)            107.9754         estimate D2E/DX2                !
 ! A25   A(9,10,11)            111.1969         estimate D2E/DX2                !
 ! A26   A(9,10,21)            109.9406         estimate D2E/DX2                !
 ! A27   A(9,10,22)            109.144          estimate D2E/DX2                !
 ! A28   A(11,10,21)           109.7815         estimate D2E/DX2                !
 ! A29   A(11,10,22)           108.7775         estimate D2E/DX2                !
 ! A30   A(21,10,22)           107.9288         estimate D2E/DX2                !
 ! A31   A(10,11,12)           111.4124         estimate D2E/DX2                !
 ! A32   A(10,11,23)           109.0071         estimate D2E/DX2                !
 ! A33   A(10,11,24)           109.85           estimate D2E/DX2                !
 ! A34   A(12,11,23)           109.2614         estimate D2E/DX2                !
 ! A35   A(12,11,24)           109.7388         estimate D2E/DX2                !
 ! A36   A(23,11,24)           107.4818         estimate D2E/DX2                !
 ! A37   A(11,12,13)           111.5147         estimate D2E/DX2                !
 ! A38   A(11,12,25)           109.2157         estimate D2E/DX2                !
 ! A39   A(11,12,26)           109.5023         estimate D2E/DX2                !
 ! A40   A(13,12,25)           109.229          estimate D2E/DX2                !
 ! A41   A(13,12,26)           109.5513         estimate D2E/DX2                !
 ! A42   A(25,12,26)           107.748          estimate D2E/DX2                !
 ! A43   A(7,13,12)            105.7543         estimate D2E/DX2                !
 ! A44   A(7,13,14)            110.8643         estimate D2E/DX2                !
 ! A45   A(7,13,15)            114.0566         estimate D2E/DX2                !
 ! A46   A(12,13,14)           107.7775         estimate D2E/DX2                !
 ! A47   A(12,13,15)           108.3569         estimate D2E/DX2                !
 ! A48   A(14,13,15)           109.7477         estimate D2E/DX2                !
 ! A49   A(13,15,16)           119.6266         estimate D2E/DX2                !
 ! A50   A(4,16,15)            128.3277         estimate D2E/DX2                !
 ! A51   A(4,16,27)            113.4802         estimate D2E/DX2                !
 ! A52   A(15,16,27)           118.1849         estimate D2E/DX2                !
 ! D1    D(1,2,4,5)           -173.3621         estimate D2E/DX2                !
 ! D2    D(1,2,4,16)             8.2579         Frozen                          !
 ! D3    D(3,2,4,5)             10.7312         estimate D2E/DX2                !
 ! D4    D(3,2,4,16)          -167.6488         estimate D2E/DX2                !
 ! D5    D(2,4,5,6)            175.7957         estimate D2E/DX2                !
 ! D6    D(2,4,5,17)            -1.2767         estimate D2E/DX2                !
 ! D7    D(16,4,5,6)            -6.0466         estimate D2E/DX2                !
 ! D8    D(16,4,5,17)          176.881          estimate D2E/DX2                !
 ! D9    D(2,4,16,15)         -158.9658         estimate D2E/DX2                !
 ! D10   D(2,4,16,27)           22.0409         estimate D2E/DX2                !
 ! D11   D(5,4,16,15)           22.9963         estimate D2E/DX2                !
 ! D12   D(5,4,16,27)         -155.997          estimate D2E/DX2                !
 ! D13   D(4,5,6,7)             -3.6817         estimate D2E/DX2                !
 ! D14   D(4,5,6,18)           155.763          estimate D2E/DX2                !
 ! D15   D(17,5,6,7)           173.5056         estimate D2E/DX2                !
 ! D16   D(17,5,6,18)          -27.0497         estimate D2E/DX2                !
 ! D17   D(5,6,7,8)           -145.5084         estimate D2E/DX2                !
 ! D18   D(5,6,7,9)             98.1613         estimate D2E/DX2                !
 ! D19   D(5,6,7,13)           -30.3603         estimate D2E/DX2                !
 ! D20   D(18,6,7,8)            52.8692         estimate D2E/DX2                !
 ! D21   D(18,6,7,9)           -63.4611         estimate D2E/DX2                !
 ! D22   D(18,6,7,13)          168.0174         estimate D2E/DX2                !
 ! D23   D(6,7,9,10)           168.4332         estimate D2E/DX2                !
 ! D24   D(6,7,9,19)           -70.5713         estimate D2E/DX2                !
 ! D25   D(6,7,9,20)            48.4259         estimate D2E/DX2                !
 ! D26   D(8,7,9,10)            52.6023         estimate D2E/DX2                !
 ! D27   D(8,7,9,19)           173.5977         estimate D2E/DX2                !
 ! D28   D(8,7,9,20)           -67.405          estimate D2E/DX2                !
 ! D29   D(13,7,9,10)          -61.9381         estimate D2E/DX2                !
 ! D30   D(13,7,9,19)           59.0574         estimate D2E/DX2                !
 ! D31   D(13,7,9,20)          178.0546         estimate D2E/DX2                !
 ! D32   D(6,7,13,12)         -166.0113         estimate D2E/DX2                !
 ! D33   D(6,7,13,14)          -49.4582         estimate D2E/DX2                !
 ! D34   D(6,7,13,15)           75.0227         Frozen                          !
 ! D35   D(8,7,13,12)          -51.2559         estimate D2E/DX2                !
 ! D36   D(8,7,13,14)           65.2971         estimate D2E/DX2                !
 ! D37   D(8,7,13,15)         -170.2219         estimate D2E/DX2                !
 ! D38   D(9,7,13,12)           63.419          estimate D2E/DX2                !
 ! D39   D(9,7,13,14)          179.9721         estimate D2E/DX2                !
 ! D40   D(9,7,13,15)          -55.5469         estimate D2E/DX2                !
 ! D41   D(7,9,10,11)           54.8121         Frozen                          !
 ! D42   D(7,9,10,21)          176.6043         estimate D2E/DX2                !
 ! D43   D(7,9,10,22)          -65.1938         estimate D2E/DX2                !
 ! D44   D(19,9,10,11)         -66.2767         estimate D2E/DX2                !
 ! D45   D(19,9,10,21)          55.5155         estimate D2E/DX2                !
 ! D46   D(19,9,10,22)         173.7174         estimate D2E/DX2                !
 ! D47   D(20,9,10,11)         175.4625         estimate D2E/DX2                !
 ! D48   D(20,9,10,21)         -62.7452         estimate D2E/DX2                !
 ! D49   D(20,9,10,22)          55.4566         estimate D2E/DX2                !
 ! D50   D(9,10,11,12)         -52.8222         Frozen                          !
 ! D51   D(9,10,11,23)          67.8316         estimate D2E/DX2                !
 ! D52   D(9,10,11,24)        -174.6424         estimate D2E/DX2                !
 ! D53   D(21,10,11,12)       -174.707          estimate D2E/DX2                !
 ! D54   D(21,10,11,23)        -54.0532         estimate D2E/DX2                !
 ! D55   D(21,10,11,24)         63.4729         estimate D2E/DX2                !
 ! D56   D(22,10,11,12)         67.4008         estimate D2E/DX2                !
 ! D57   D(22,10,11,23)       -171.9454         estimate D2E/DX2                !
 ! D58   D(22,10,11,24)        -54.4194         estimate D2E/DX2                !
 ! D59   D(10,11,12,13)         56.7264         estimate D2E/DX2                !
 ! D60   D(10,11,12,25)        177.5433         estimate D2E/DX2                !
 ! D61   D(10,11,12,26)        -64.6878         estimate D2E/DX2                !
 ! D62   D(23,11,12,13)        -63.7781         estimate D2E/DX2                !
 ! D63   D(23,11,12,25)         57.0388         estimate D2E/DX2                !
 ! D64   D(23,11,12,26)        174.8077         estimate D2E/DX2                !
 ! D65   D(24,11,12,13)        178.611          estimate D2E/DX2                !
 ! D66   D(24,11,12,25)        -60.572          estimate D2E/DX2                !
 ! D67   D(24,11,12,26)         57.1968         estimate D2E/DX2                !
 ! D68   D(11,12,13,7)         -60.5462         estimate D2E/DX2                !
 ! D69   D(11,12,13,14)       -179.1706         estimate D2E/DX2                !
 ! D70   D(11,12,13,15)         62.1285         estimate D2E/DX2                !
 ! D71   D(25,12,13,7)         178.6447         estimate D2E/DX2                !
 ! D72   D(25,12,13,14)         60.0202         estimate D2E/DX2                !
 ! D73   D(25,12,13,15)        -58.6807         estimate D2E/DX2                !
 ! D74   D(26,12,13,7)          60.8396         estimate D2E/DX2                !
 ! D75   D(26,12,13,14)        -57.7849         estimate D2E/DX2                !
 ! D76   D(26,12,13,15)       -176.4858         estimate D2E/DX2                !
 ! D77   D(7,13,15,16)         -67.1604         Frozen                          !
 ! D78   D(12,13,15,16)        175.3615         estimate D2E/DX2                !
 ! D79   D(14,13,15,16)         57.9155         estimate D2E/DX2                !
 ! D80   D(13,15,16,4)          11.5381         estimate D2E/DX2                !
 ! D81   D(13,15,16,27)       -169.5096         estimate D2E/DX2                !
 --------------------------------------------------------------------------------
 Trust Radius=3.00D-01 FncErr=1.00D-07 GrdErr=1.00D-07 EigMax=2.50D+02 EigMin=1.00D-04
 Number of steps in this run=     20 maximum allowed number of steps=    162.
 GradGradGradGradGradGradGradGradGradGradGradGradGradGradGradGradGradGrad

                          Input orientation:                          
 ---------------------------------------------------------------------
 Center     Atomic      Atomic             Coordinates (Angstroms)
 Number     Number       Type             X           Y           Z
 ---------------------------------------------------------------------
      1          8           0       -3.652050   -1.365730   -0.196300
      2          7           0       -3.254200   -0.211510   -0.053330
      3          8           0       -4.012510    0.759560    0.008000
      4          6           0       -1.727840   -0.023110   -0.053040
      5          6           0       -1.377940    1.296160    0.264220
      6          7           0       -0.094140    1.747740    0.422370
      7          6           0        1.190420    0.982180    0.378000
      8          1           0        1.858050    1.482610    1.126510
      9          6           0        1.939280    1.045470   -0.976660
     10          6           0        3.359510    0.473390   -0.805200
     11          6           0        3.319720   -0.945000   -0.214810
     12          6           0        2.486760   -0.991640    1.084140
     13          6           0        1.041040   -0.473020    0.852700
     14          1           0        0.502430   -0.519310    1.828180
     15          7           0        0.384180   -1.354150   -0.118310
     16          6           0       -0.862860   -1.173530   -0.403140
     17          1           0       -2.167970    2.042170    0.451760
     18          1           0        0.136490    2.735320    0.288780
     19          1           0        1.386940    0.464950   -1.745990
     20          1           0        2.010360    2.097280   -1.326430
     21          1           0        3.883230    0.458210   -1.786060
     22          1           0        3.937520    1.131250   -0.118340
     23          1           0        2.871850   -1.636940   -0.963380
     24          1           0        4.354070   -1.298060   -0.010500
     25          1           0        2.445100   -2.039300    1.454810
     26          1           0        2.981840   -0.376120    1.864190
     27          1           0       -1.378270   -1.945860   -0.994180
 ---------------------------------------------------------------------
                    Distance matrix (angstroms):
                    1          2          3          4          5
     1  O    0.000000
     2  N    1.229207   0.000000
     3  O    2.165301   1.233601   0.000000
     4  C    2.350688   1.537943   2.415785   0.000000
     5  C    3.531191   2.427809   2.700842   1.401270   0.000000
     6  N    4.768141   3.748457   4.062244   2.455789   1.370065
     7  C    5.412210   4.622293   5.220818   3.116512   2.589981
     8  H    6.342245   5.513362   6.019746   4.064128   3.354093
     9  C    6.138878   5.422617   6.039462   3.929721   3.550574
    10  C    7.274276   6.691454   7.422255   5.166564   4.925854
    11  C    6.984478   6.616684   7.531053   5.133606   5.226880
    12  C    6.282074   5.904326   6.816545   4.471474   4.565326
    13  C    4.891056   4.397541   5.269833   2.947792   3.054140
    14  H    4.698367   4.212729   5.033214   2.959613   3.045931
    15  N    4.037000   3.814139   4.880021   2.497310   3.205548
    16  C    2.803445   2.601222   3.718356   1.481292   2.609606
    17  H    3.773097   2.552271   2.290052   2.171156   1.102656
    18  H    5.604190   4.505289   4.603984   3.346865   2.089326
    19  H    5.580712   4.986269   5.684834   3.578566   3.518013
    20  H    6.732943   5.887859   6.312302   4.482378   3.827863
    21  H    7.914199   7.375214   8.102603   5.892294   5.708390
    22  H    7.990154   7.316288   7.959717   5.782138   5.331760
    23  H    6.574438   6.355197   7.353992   4.958862   5.307616
    24  H    8.008562   7.685584   8.615904   6.214253   6.297729
    25  H    6.352566   6.172303   7.185235   4.873609   5.211375
    26  H    7.016655   6.526268   7.325035   5.097202   4.936001
    27  H    2.478556   2.722551   3.906774   2.169081   3.477681
                    6          7          8          9         10
     6  N    0.000000
     7  C    1.496043   0.000000
     8  H    2.092165   1.120905   0.000000
     9  C    2.566177   1.549161   2.149654   0.000000
    10  C    3.880540   2.522654   2.646585   1.540691   0.000000
    11  C    4.394461   2.932467   3.135109   2.539291   1.536871
    12  C    3.821412   2.464771   2.553230   2.948974   2.545115
    13  C    2.530927   1.537941   2.137046   2.541497   3.003269
    14  H    2.733443   2.197914   2.517485   3.518551   4.010368
    15  N    3.184784   2.520870   3.430609   2.985511   3.558695
    16  C    3.131488   3.077860   4.098568   3.620066   4.549990
    17  H    2.094833   3.522471   4.120344   4.461311   5.881671
    18  H    1.022913   2.047493   2.287978   2.776145   4.086683
    19  H    2.922488   2.194876   3.083640   1.110834   2.185449
    20  H    2.758514   2.195639   2.533364   1.110719   2.174605
    21  H    4.728586   3.494127   3.692399   2.186080   1.112025
    22  H    4.114208   2.795556   2.448939   2.176473   1.112947
    23  H    4.708870   3.389144   3.889347   2.839927   2.171710
    24  H    5.408405   3.919070   3.905769   3.500973   2.181452
    25  H    4.674970   3.444283   3.585563   3.960266   3.501057
    26  H    4.006405   2.694981   2.293895   3.343393   2.826649
    27  H    4.159121   4.129705   5.169671   4.467046   5.323067
                   11         12         13         14         15
    11  C    0.000000
    12  C    1.543784   0.000000
    13  C    2.560220   1.553267   0.000000
    14  H    3.506015   2.171234   1.115260   0.000000
    15  N    2.965487   2.449110   1.466532   2.121265   0.000000
    16  C    4.193050   3.669474   2.385935   2.696444   1.291844
    17  H    6.283490   5.591996   4.096911   3.948006   4.286425
    18  H    4.891964   4.477343   3.380778   3.618878   4.117139
    19  H    2.840442   3.367624   2.784353   3.811275   2.638938
    20  H    3.493650   3.947054   3.506370   4.367146   4.002048
    21  H    2.180681   3.505744   3.988519   5.044609   4.278947
    22  H    2.168363   2.838543   3.450536   4.279385   4.336293
    23  H    1.113430   2.181065   2.829262   3.828323   2.642464
    24  H    1.111879   2.186087   3.521644   4.338471   3.971750
    25  H    2.179469   1.112081   2.187957   2.494743   2.681703
    26  H    2.181749   1.110156   2.190709   2.483802   3.410966
    27  H    4.866236   4.490925   3.381314   3.679374   2.055115
                   16         17         18         19         20
    16  C    0.000000
    17  H    3.574198   0.000000
    18  H    4.093478   2.411961   0.000000
    19  H    3.090221   4.467115   3.295223   0.000000
    20  H    4.450399   4.541304   2.554875   1.796993   0.000000
    21  H    5.205806   6.643327   4.850593   2.496621   2.530899
    22  H    5.332614   6.199338   4.145674   3.098170   2.471162
    23  H    3.804823   6.398301   5.307236   2.689866   3.849464
    24  H    5.233167   7.342195   5.843433   3.863158   4.330471
    25  H    3.891547   6.240587   5.430129   4.199535   5.003558
    26  H    4.534133   5.862050   4.500999   4.035406   4.152293
    27  H    1.100668   4.314945   5.084676   3.744811   5.285848
                   21         22         23         24         25
    21  H    0.000000
    22  H    1.799228   0.000000
    23  H    2.467660   3.084254   0.000000
    24  H    2.541415   2.467122   1.794379   0.000000
    25  H    4.336936   3.841159   2.488303   2.518082   0.000000
    26  H    3.851355   2.667567   3.097889   2.499490   1.794951
    27  H    5.838665   6.204299   4.261443   5.852093   4.541414
                   26         27
    26  H    0.000000
    27  H    5.444715   0.000000
 Symmetry turned off by external request.
 Stoichiometry    C9H13N3O2
 Framework group  C1[X(C9H13N3O2)]
 Deg. of freedom    75
 Full point group                 C1      NOp   1
 Rotational constants (GHZ):           1.6770419           0.4003521           0.3554672
 Standard basis: 6-31G(d) (6D, 7F)
   236 basis functions,   444 primitive gaussians,   236 cartesian basis functions
    52 alpha electrons       52 beta electrons
       nuclear repulsion energy       917.4389842860 Hartrees.
 NAtoms=   27 NActive=   27 NUniq=   27 SFac= 1.00D+00 NAtFMM=   60 NAOKFM=F Big=F
 Integral buffers will be    131072 words long.
 Raffenetti 1 integral format.
 Two-electron integral symmetry is turned off.
 One-electron integrals computed using PRISM.
 NBasis=   236 RedAO= T EigKep=  1.33D-03  NBF=   236
 NBsUse=   236 1.00D-06 EigRej= -1.00D+00 NBFU=   236
 ExpMin= 1.61D-01 ExpMax= 5.48D+03 ExpMxC= 8.25D+02 IAcc=3 IRadAn=         5 AccDes= 0.00D+00
 Harris functional with IExCor=  205 and IRadAn=       5 diagonalized for initial guess.
 HarFok:  IExCor=  205 AccDes= 0.00D+00 IRadAn=         5 IDoV= 1 UseB2=F ITyADJ=14
 ICtDFT=  3500011 ScaDFX=  1.000000  1.000000  1.000000  1.000000
 FoFCou: FMM=F IPFlag=           0 FMFlag=      100000 FMFlg1=           0
         NFxFlg=           0 DoJE=T BraDBF=F KetDBF=T FulRan=T
         wScrn=  0.000000 ICntrl=       500 IOpCl=  0 I1Cent=   200000004 NGrid=           0
         NMat0=    1 NMatS0=      1 NMatT0=    0 NMatD0=    1 NMtDS0=    0 NMtDT0=    0
 Symmetry not used in FoFCou.
 Keep R1 ints in memory in canonical form, NReq=397720213.
 Requested convergence on RMS density matrix=1.00D-08 within 128 cycles.
 Requested convergence on MAX density matrix=1.00D-06.
 Requested convergence on             energy=1.00D-06.
 No special actions if energy rises.
 SCF Done:  E(RHF) =  -661.279340755     A.U. after   16 cycles
            NFock= 16  Conv=0.80D-08     -V/T= 2.0037
 ExpMin= 1.61D-01 ExpMax= 5.48D+03 ExpMxC= 8.25D+02 IAcc=3 IRadAn=         5 AccDes= 0.00D+00
 HarFok:  IExCor=  205 AccDes= 0.00D+00 IRadAn=         5 IDoV=-2 UseB2=F ITyADJ=14
 ICtDFT= 12500011 ScaDFX=  1.000000  1.000000  1.000000  1.000000
 Range of M.O.s used for correlation:    15   236
 NBasis=   236 NAE=    52 NBE=    52 NFC=    14 NFV=     0
 NROrb=    222 NOA=    38 NOB=    38 NVA=   184 NVB=   184
 Fully direct method using O(ONN) memory.
 JobTyp=1 Pass  1:  I=  15 to  52 NPSUse=  4 ParTrn=T ParDer=T DoDerP=T.
 Spin components of T(2) and E(2):
     alpha-alpha T2 =       0.9207963851D-01 E2=     -0.2718763079D+00
     alpha-beta  T2 =       0.4998483158D+00 E2=     -0.1493921098D+01
     beta-beta   T2 =       0.9207963851D-01 E2=     -0.2718763079D+00
 ANorm=    0.1297693181D+01
 E2 =    -0.2037673714D+01 EUMP2 =    -0.66331701446877D+03
          IDoAtm=111111111111111111111111111
          Differentiating once with respect to electric field.
                with respect to dipole field.
          Differentiating once with respect to nuclear coordinates.
 Keep R1 ints in memory in canonical form, NReq=397723379.
          There are     1 degrees of freedom in the 1st order CPHF.  IDoFFX=0 NUNeed=     1.
 LinEq1:  Iter=  0 NonCon=     1 RMS=4.63D-03 Max=1.20D-01 NDo=     1
 AX will form     1 AO Fock derivatives at one time.
 LinEq1:  Iter=  1 NonCon=     1 RMS=1.58D-03 Max=2.84D-02 NDo=     1
 LinEq1:  Iter=  2 NonCon=     1 RMS=6.47D-04 Max=1.92D-02 NDo=     1
 LinEq1:  Iter=  3 NonCon=     1 RMS=2.93D-04 Max=8.70D-03 NDo=     1
 LinEq1:  Iter=  4 NonCon=     1 RMS=9.02D-05 Max=2.20D-03 NDo=     1
 LinEq1:  Iter=  5 NonCon=     1 RMS=3.72D-05 Max=1.79D-03 NDo=     1
 LinEq1:  Iter=  6 NonCon=     1 RMS=1.57D-05 Max=6.02D-04 NDo=     1
 LinEq1:  Iter=  7 NonCon=     1 RMS=6.10D-06 Max=1.07D-04 NDo=     1
 LinEq1:  Iter=  8 NonCon=     1 RMS=2.47D-06 Max=6.34D-05 NDo=     1
 LinEq1:  Iter=  9 NonCon=     1 RMS=9.63D-07 Max=2.87D-05 NDo=     1
 LinEq1:  Iter= 10 NonCon=     1 RMS=4.62D-07 Max=1.34D-05 NDo=     1
 LinEq1:  Iter= 11 NonCon=     1 RMS=1.63D-07 Max=5.70D-06 NDo=     1
 LinEq1:  Iter= 12 NonCon=     1 RMS=5.79D-08 Max=8.30D-07 NDo=     1
 LinEq1:  Iter= 13 NonCon=     1 RMS=1.93D-08 Max=3.79D-07 NDo=     1
 LinEq1:  Iter= 14 NonCon=     1 RMS=6.34D-09 Max=1.43D-07 NDo=     1
 LinEq1:  Iter= 15 NonCon=     1 RMS=2.26D-09 Max=6.60D-08 NDo=     1
 LinEq1:  Iter= 16 NonCon=     1 RMS=7.32D-10 Max=1.07D-08 NDo=     1
 LinEq1:  Iter= 17 NonCon=     1 RMS=2.28D-10 Max=3.43D-09 NDo=     1
 LinEq1:  Iter= 18 NonCon=     0 RMS=7.38D-11 Max=8.67D-10 NDo=     1
 Linear equations converged to 1.000D-10 1.000D-09 after    18 iterations.
 End of Minotr F.D. properties file   721 does not exist.
 End of Minotr F.D. properties file   722 does not exist.
 End of Minotr F.D. properties file   788 does not exist.

 **********************************************************************

            Population analysis using the SCF Density.

 **********************************************************************

 Alpha  occ. eigenvalues --  -20.59560 -20.59272 -15.84992 -15.63318 -15.56897
 Alpha  occ. eigenvalues --  -11.35732 -11.30790 -11.30132 -11.30097 -11.27816
 Alpha  occ. eigenvalues --  -11.24661 -11.23913 -11.23458 -11.22898  -1.58251
 Alpha  occ. eigenvalues --   -1.37689  -1.28580  -1.22831  -1.13298  -1.08350
 Alpha  occ. eigenvalues --   -1.01857  -1.00657  -0.93237  -0.89038  -0.84938
 Alpha  occ. eigenvalues --   -0.81635  -0.77900  -0.77114  -0.74313  -0.70881
 Alpha  occ. eigenvalues --   -0.70077  -0.69569  -0.67382  -0.64348  -0.63360
 Alpha  occ. eigenvalues --   -0.61808  -0.60540  -0.57424  -0.56535  -0.54932
 Alpha  occ. eigenvalues --   -0.53798  -0.50730  -0.49557  -0.48307  -0.47637
 Alpha  occ. eigenvalues --   -0.47573  -0.46245  -0.45713  -0.43876  -0.42220
 Alpha  occ. eigenvalues --   -0.40015  -0.33647
 Alpha virt. eigenvalues --    0.07711   0.11396   0.18073   0.21409   0.23494
 Alpha virt. eigenvalues --    0.24282   0.26197   0.27835   0.28557   0.28862
 Alpha virt. eigenvalues --    0.29777   0.30941   0.31864   0.32259   0.33216
 Alpha virt. eigenvalues --    0.33760   0.34215   0.35234   0.37505   0.38391
 Alpha virt. eigenvalues --    0.40462   0.41639   0.44475   0.45249   0.45606
 Alpha virt. eigenvalues --    0.46428   0.49843   0.53487   0.57842   0.59085
 Alpha virt. eigenvalues --    0.63323   0.68553   0.69159   0.72215   0.73901
 Alpha virt. eigenvalues --    0.74534   0.75701   0.75820   0.77751   0.79051
 Alpha virt. eigenvalues --    0.80827   0.83368   0.84866   0.85444   0.87973
 Alpha virt. eigenvalues --    0.89077   0.90350   0.90417   0.91890   0.94100
 Alpha virt. eigenvalues --    0.94952   0.97143   0.98940   1.00465   1.01951
 Alpha virt. eigenvalues --    1.02881   1.05057   1.06682   1.07222   1.08678
 Alpha virt. eigenvalues --    1.09571   1.10445   1.11347   1.12009   1.13229
 Alpha virt. eigenvalues --    1.13860   1.14227   1.15434   1.16169   1.16972
 Alpha virt. eigenvalues --    1.18003   1.19986   1.21372   1.22342   1.23164
 Alpha virt. eigenvalues --    1.23511   1.24324   1.25344   1.27250   1.27873
 Alpha virt. eigenvalues --    1.28825   1.31625   1.33262   1.36552   1.39476
 Alpha virt. eigenvalues --    1.42802   1.45761   1.47358   1.49862   1.52685
 Alpha virt. eigenvalues --    1.54479   1.55633   1.60097   1.61822   1.65846
 Alpha virt. eigenvalues --    1.68207   1.71022   1.72523   1.73770   1.76564
 Alpha virt. eigenvalues --    1.77778   1.80117   1.84340   1.89033   1.92138
 Alpha virt. eigenvalues --    1.93100   1.95263   1.97138   1.99160   2.00402
 Alpha virt. eigenvalues --    2.03038   2.04327   2.06010   2.09081   2.12231
 Alpha virt. eigenvalues --    2.12555   2.13864   2.17510   2.18603   2.20032
 Alpha virt. eigenvalues --    2.20453   2.22258   2.23895   2.25151   2.25973
 Alpha virt. eigenvalues --    2.29570   2.31983   2.32684   2.35430   2.36284
 Alpha virt. eigenvalues --    2.39135   2.40094   2.41664   2.44165   2.46184
 Alpha virt. eigenvalues --    2.48427   2.50326   2.50988   2.56288   2.56819
 Alpha virt. eigenvalues --    2.60558   2.63017   2.65519   2.68402   2.68971
 Alpha virt. eigenvalues --    2.69297   2.69667   2.74863   2.77737   2.80752
 Alpha virt. eigenvalues --    2.84334   2.86407   2.90049   2.91234   2.95461
 Alpha virt. eigenvalues --    2.97474   2.97814   3.02484   3.04254   3.05520
 Alpha virt. eigenvalues --    3.07276   3.12750   3.18179   3.22638   3.26946
 Alpha virt. eigenvalues --    3.30179   3.33676   3.36354   3.43544   3.60527
 Alpha virt. eigenvalues --    4.09831   4.22735   4.32138   4.35759   4.42764
 Alpha virt. eigenvalues --    4.52169   4.59437   4.60104   4.70831   4.77446
 Alpha virt. eigenvalues --    4.96800   4.99162   5.03193   5.09637
          Condensed to atoms (all electrons):
               1          2          3          4          5          6
     1  O    8.302504   0.309023  -0.090234  -0.081532   0.004175  -0.000018
     2  N    0.309023   5.689725   0.307760   0.267794  -0.056874   0.000964
     3  O   -0.090234   0.307760   8.333830  -0.082137   0.006984   0.000538
     4  C   -0.081532   0.267794  -0.082137   5.254366   0.560228  -0.051505
     5  C    0.004175  -0.056874   0.006984   0.560228   4.694968   0.303922
     6  N   -0.000018   0.000964   0.000538  -0.051505   0.303922   7.188607
     7  C    0.000003  -0.000109   0.000001   0.003800  -0.028338   0.200579
     8  H   -0.000000   0.000002  -0.000000  -0.000153   0.002245  -0.049026
     9  C   -0.000000  -0.000004   0.000000   0.000406   0.001676  -0.057060
    10  C   -0.000000   0.000000  -0.000000  -0.000016  -0.000065   0.003357
    11  C   -0.000000  -0.000000  -0.000000  -0.000018   0.000015  -0.000151
    12  C   -0.000000   0.000001  -0.000000  -0.000094  -0.000156   0.003566
    13  C   -0.000015  -0.000010  -0.000002  -0.009994   0.000339  -0.044342
    14  H   -0.000002  -0.000051   0.000000   0.002698   0.004508  -0.005390
    15  N    0.000243   0.001561  -0.000010  -0.061975  -0.004538   0.002221
    16  C    0.003481  -0.020076   0.001597   0.322349  -0.040876  -0.000158
    17  H    0.000190  -0.004702   0.013467  -0.025623   0.376727  -0.032503
    18  H    0.000000  -0.000045   0.000011   0.001122  -0.024655   0.328590
    19  H    0.000000   0.000000   0.000000  -0.000825   0.000724   0.000524
    20  H    0.000000  -0.000000   0.000000  -0.000032   0.000038  -0.001534
    21  H   -0.000000  -0.000000   0.000000   0.000000   0.000001  -0.000060
    22  H   -0.000000   0.000000  -0.000000  -0.000000  -0.000002  -0.000097
    23  H    0.000000  -0.000000   0.000000   0.000025   0.000000  -0.000024
    24  H    0.000000   0.000000   0.000000   0.000000  -0.000000   0.000004
    25  H    0.000000  -0.000000   0.000000   0.000020  -0.000000  -0.000070
    26  H    0.000000  -0.000000   0.000000   0.000005   0.000001  -0.000066
    27  H    0.005726  -0.000124   0.000006  -0.065640   0.002045   0.000028
               7          8          9         10         11         12
     1  O    0.000003  -0.000000  -0.000000  -0.000000  -0.000000  -0.000000
     2  N   -0.000109   0.000002  -0.000004   0.000000  -0.000000   0.000001
     3  O    0.000001  -0.000000   0.000000  -0.000000  -0.000000  -0.000000
     4  C    0.003800  -0.000153   0.000406  -0.000016  -0.000018  -0.000094
     5  C   -0.028338   0.002245   0.001676  -0.000065   0.000015  -0.000156
     6  N    0.200579  -0.049026  -0.057060   0.003357  -0.000151   0.003566
     7  C    5.009168   0.416231   0.340670  -0.049323  -0.007739  -0.064056
     8  H    0.416231   0.545884  -0.059989   0.001289  -0.000295  -0.002995
     9  C    0.340670  -0.059989   5.180279   0.318190  -0.053140  -0.005991
    10  C   -0.049323   0.001289   0.318190   5.126961   0.332706  -0.060331
    11  C   -0.007739  -0.000295  -0.053140   0.332706   5.124552   0.330478
    12  C   -0.064056  -0.002995  -0.005991  -0.060331   0.330478   5.137633
    13  C    0.329453  -0.039584  -0.051370  -0.001577  -0.047988   0.367960
    14  H   -0.040610  -0.000913   0.003849  -0.000388   0.003959  -0.040744
    15  N   -0.058798   0.003992  -0.012587   0.001467  -0.007768  -0.073982
    16  C   -0.001719  -0.000044  -0.000511  -0.000050   0.000024   0.002349
    17  H    0.001363  -0.000027  -0.000058   0.000001   0.000000   0.000001
    18  H   -0.028762  -0.002922   0.000860  -0.000121   0.000011  -0.000136
    19  H   -0.035113   0.004079   0.386376  -0.032829  -0.002233   0.000610
    20  H   -0.041614  -0.001804   0.397335  -0.037313   0.004128  -0.000362
    21  H    0.004049  -0.000078  -0.035845   0.400141  -0.035855   0.004221
    22  H   -0.004284   0.003515  -0.045644   0.395947  -0.045583  -0.001249
    23  H    0.000437   0.000034  -0.002002  -0.040125   0.396732  -0.036665
    24  H   -0.000142  -0.000099   0.004391  -0.038452   0.400304  -0.037862
    25  H    0.004987  -0.000004  -0.000374   0.004098  -0.033865   0.395406
    26  H   -0.004468   0.001574   0.001051  -0.002422  -0.042243   0.394663
    27  H   -0.000377   0.000008  -0.000052   0.000004   0.000005  -0.000022
              13         14         15         16         17         18
     1  O   -0.000015  -0.000002   0.000243   0.003481   0.000190   0.000000
     2  N   -0.000010  -0.000051   0.001561  -0.020076  -0.004702  -0.000045
     3  O   -0.000002   0.000000  -0.000010   0.001597   0.013467   0.000011
     4  C   -0.009994   0.002698  -0.061975   0.322349  -0.025623   0.001122
     5  C    0.000339   0.004508  -0.004538  -0.040876   0.376727  -0.024655
     6  N   -0.044342  -0.005390   0.002221  -0.000158  -0.032503   0.328590
     7  C    0.329453  -0.040610  -0.058798  -0.001719   0.001363  -0.028762
     8  H   -0.039584  -0.000913   0.003992  -0.000044  -0.000027  -0.002922
     9  C   -0.051370   0.003849  -0.012587  -0.000511  -0.000058   0.000860
    10  C   -0.001577  -0.000388   0.001467  -0.000050   0.000001  -0.000121
    11  C   -0.047988   0.003959  -0.007768   0.000024   0.000000   0.000011
    12  C    0.367960  -0.040744  -0.073982   0.002349   0.000001  -0.000136
    13  C    5.020538   0.403341   0.242046  -0.068513  -0.000041   0.003668
    14  H    0.403341   0.517931  -0.035707  -0.005049   0.000050   0.000006
    15  N    0.242046  -0.035707   6.939650   0.587003  -0.000054  -0.000116
    16  C   -0.068513  -0.005049   0.587003   4.684556   0.001202  -0.000202
    17  H   -0.000041   0.000050  -0.000054   0.001202   0.374399  -0.001811
    18  H    0.003668   0.000006  -0.000116  -0.000202  -0.001811   0.326624
    19  H   -0.006218   0.000065   0.006891   0.002310   0.000010  -0.000127
    20  H    0.003868  -0.000051   0.000077  -0.000033  -0.000002   0.002744
    21  H   -0.000385   0.000009  -0.000031   0.000003  -0.000000  -0.000000
    22  H    0.000328  -0.000043   0.000005  -0.000001   0.000000   0.000002
    23  H   -0.005898   0.000007   0.006751   0.000075   0.000000   0.000000
    24  H    0.004157  -0.000059   0.000037   0.000005   0.000000  -0.000000
    25  H   -0.034446  -0.002677   0.000883  -0.000060  -0.000000   0.000002
    26  H   -0.044776  -0.000904   0.004175  -0.000048   0.000000  -0.000001
    27  H    0.004655  -0.000154  -0.038934   0.401663  -0.000055   0.000002
              19         20         21         22         23         24
     1  O    0.000000   0.000000  -0.000000  -0.000000   0.000000   0.000000
     2  N    0.000000  -0.000000  -0.000000   0.000000  -0.000000   0.000000
     3  O    0.000000   0.000000   0.000000  -0.000000   0.000000   0.000000
     4  C   -0.000825  -0.000032   0.000000  -0.000000   0.000025   0.000000
     5  C    0.000724   0.000038   0.000001  -0.000002   0.000000  -0.000000
     6  N    0.000524  -0.001534  -0.000060  -0.000097  -0.000024   0.000004
     7  C   -0.035113  -0.041614   0.004049  -0.004284   0.000437  -0.000142
     8  H    0.004079  -0.001804  -0.000078   0.003515   0.000034  -0.000099
     9  C    0.386376   0.397335  -0.035845  -0.045644  -0.002002   0.004391
    10  C   -0.032829  -0.037313   0.400141   0.395947  -0.040125  -0.038452
    11  C   -0.002233   0.004128  -0.035855  -0.045583   0.396732   0.400304
    12  C    0.000610  -0.000362   0.004221  -0.001249  -0.036665  -0.037862
    13  C   -0.006218   0.003868  -0.000385   0.000328  -0.005898   0.004157
    14  H    0.000065  -0.000051   0.000009  -0.000043   0.000007  -0.000059
    15  N    0.006891   0.000077  -0.000031   0.000005   0.006751   0.000037
    16  C    0.002310  -0.000033   0.000003  -0.000001   0.000075   0.000005
    17  H    0.000010  -0.000002  -0.000000   0.000000   0.000000   0.000000
    18  H   -0.000127   0.002744  -0.000000   0.000002   0.000000  -0.000000
    19  H    0.507265  -0.023879  -0.002586   0.003762   0.001650  -0.000071
    20  H   -0.023879   0.548864  -0.002632  -0.002943  -0.000050  -0.000090
    21  H   -0.002586  -0.002632   0.525899  -0.024673  -0.002817  -0.002069
    22  H    0.003762  -0.002943  -0.024673   0.568783   0.004060  -0.003588
    23  H    0.001650  -0.000050  -0.002817   0.004060   0.509646  -0.024943
    24  H   -0.000071  -0.000090  -0.002069  -0.003588  -0.024943   0.540718
    25  H   -0.000027   0.000011  -0.000086  -0.000082  -0.002079  -0.002392
    26  H    0.000023  -0.000035  -0.000073   0.002461   0.003815  -0.002747
    27  H    0.000073   0.000000  -0.000000   0.000000  -0.000020  -0.000000
              25         26         27
     1  O    0.000000   0.000000   0.005726
     2  N   -0.000000  -0.000000  -0.000124
     3  O    0.000000   0.000000   0.000006
     4  C    0.000020   0.000005  -0.065640
     5  C   -0.000000   0.000001   0.002045
     6  N   -0.000070  -0.000066   0.000028
     7  C    0.004987  -0.004468  -0.000377
     8  H   -0.000004   0.001574   0.000008
     9  C   -0.000374   0.001051  -0.000052
    10  C    0.004098  -0.002422   0.000004
    11  C   -0.033865  -0.042243   0.000005
    12  C    0.395406   0.394663  -0.000022
    13  C   -0.034446  -0.044776   0.004655
    14  H   -0.002677  -0.000904  -0.000154
    15  N    0.000883   0.004175  -0.038934
    16  C   -0.000060  -0.000048   0.401663
    17  H   -0.000000   0.000000  -0.000055
    18  H    0.000002  -0.000001   0.000002
    19  H   -0.000027   0.000023   0.000073
    20  H    0.000011  -0.000035   0.000000
    21  H   -0.000086  -0.000073  -0.000000
    22  H   -0.000082   0.002461   0.000000
    23  H   -0.002079   0.003815  -0.000020
    24  H   -0.002392  -0.002747  -0.000000
    25  H    0.509769  -0.023100  -0.000011
    26  H   -0.023100   0.560698   0.000001
    27  H   -0.000011   0.000001   0.447553
 Mulliken charges:
               1
     1  O   -0.453546
     2  N    0.505164
     3  O   -0.491811
     4  C   -0.033268
     5  C    0.196906
     6  N   -0.790898
     7  C    0.054713
     8  H    0.179079
     9  C   -0.310456
    10  C   -0.321149
    11  C   -0.316035
    12  C   -0.312243
    13  C   -0.025193
    14  H    0.196320
    15  N   -0.502500
    16  C    0.130724
    17  H    0.297467
    18  H    0.395257
    19  H    0.189545
    20  H    0.155308
    21  H    0.172868
    22  H    0.149327
    23  H    0.191389
    24  H    0.162899
    25  H    0.184097
    26  H    0.152416
    27  H    0.243621
 Sum of Mulliken charges =  -0.00000
 Mulliken charges with hydrogens summed into heavy atoms:
               1
     1  O   -0.453546
     2  N    0.505164
     3  O   -0.491811
     4  C   -0.033268
     5  C    0.494373
     6  N   -0.395641
     7  C    0.233791
     9  C    0.034396
    10  C    0.001045
    11  C    0.038254
    12  C    0.024271
    13  C    0.171126
    15  N   -0.502500
    16  C    0.374345
 Electronic spatial extent (au):  <R**2>=           3124.2065
 Charge=             -0.0000 electrons
 Dipole moment (field-independent basis, Debye):
    X=              5.4598    Y=              4.3319    Z=              0.7029  Tot=              7.0049
 Quadrupole moment (field-independent basis, Debye-Ang):
   XX=           -105.9094   YY=            -80.0867   ZZ=            -82.2988
   XY=             -1.2397   XZ=              0.1454   YZ=              0.3946
 Traceless Quadrupole moment (field-independent basis, Debye-Ang):
   XX=            -16.4778   YY=              9.3450   ZZ=              7.1328
   XY=             -1.2397   XZ=              0.1454   YZ=              0.3946
 Octapole moment (field-independent basis, Debye-Ang**2):
  XXX=            103.3850  YYY=             34.4147  ZZZ=             -4.0629  XYY=             -2.2416
  XXY=              9.3818  XXZ=              3.6759  XZZ=             -8.1467  YZZ=             -3.1236
  YYZ=              1.4554  XYZ=             -1.9474
 Hexadecapole moment (field-independent basis, Debye-Ang**3):
 XXXX=          -3565.6198 YYYY=           -617.8632 ZZZZ=           -298.9049 XXXY=            -20.4032
 XXXZ=             -0.3667 YYYX=             -3.0463 YYYZ=             15.4947 ZZZX=              9.9847
 ZZZY=              9.8164 XXYY=           -656.7729 XXZZ=           -543.1864 YYZZ=           -164.2808
 XXYZ=              5.2349 YYXZ=              7.0471 ZZXY=              6.6654
 N-N= 9.174389842860D+02 E-N=-3.380903350459D+03  KE= 6.588546256233D+02
 Calling FoFJK, ICntrl=  10002127 FMM=F ISym2X=0 I1Cent= 0 IOpClX= 0 NMat=1 NMatS=1 NMatT=0.
 -------------------------------------------------------------------
 Center     Atomic                   Forces (Hartrees/Bohr)
 Number     Number              X              Y              Z
 -------------------------------------------------------------------
      1        8          -0.001960770   -0.023810297   -0.000140277
      2        7           0.038855069    0.002173057   -0.011213754
      3        8           0.001603638    0.014196637    0.005341636
      4        6          -0.020575226    0.026826931    0.015649235
      5        6           0.018596260   -0.019376327   -0.004944875
      6        7           0.015861825   -0.006845848   -0.006641800
      7        6          -0.005349423    0.005411720    0.002546090
      8        1          -0.010467655   -0.001833539   -0.007523100
      9        6          -0.003834453    0.000268577   -0.002103344
     10        6           0.002837177   -0.000894574    0.000862279
     11        6          -0.000783309   -0.004531075   -0.002317407
     12        6           0.000793397   -0.008810500   -0.003151085
     13        6           0.008315125   -0.000568115    0.003228163
     14        1           0.000730561    0.004039139   -0.010160653
     15        7           0.001543314   -0.001643675    0.004746924
     16        6          -0.022449062    0.010814957    0.002154332
     17        1           0.006890274   -0.008494534   -0.005964216
     18        1          -0.017023105   -0.001971940    0.005550028
     19        1           0.003100063    0.005878530    0.007589557
     20        1          -0.003158613   -0.007494150    0.002632877
     21        1          -0.004264264    0.002336052    0.009674976
     22        1          -0.004051638   -0.004005408   -0.007354349
     23        1           0.003971546    0.006108347    0.009257678
     24        1          -0.009448240    0.002493014   -0.002041563
     25        1          -0.001013053    0.010616330   -0.002434322
     26        1          -0.004789229   -0.004827952   -0.004348964
     27        1           0.006069790    0.003944643    0.001105934
 -------------------------------------------------------------------
 Cartesian Forces:  Max     0.038855069 RMS     0.009613266

 GradGradGradGradGradGradGradGradGradGradGradGradGradGradGradGradGradGrad
 Berny optimization.
 FormGI is forming the generalized inverse of G from B-inverse, IUseBI=4.
 Internal  Forces:  Max     0.037295367 RMS     0.007052645
 Search for a local minimum.
 Step number   1 out of a maximum of   20
 All quantities printed in internal units (Hartrees-Bohrs-Radians)
 Mixed Optimization -- RFO/linear search
 Second derivative matrix not updated -- first step.
 ITU=  0
     Eigenvalues ---    0.00248   0.00769   0.01050   0.01149   0.01199
     Eigenvalues ---    0.01469   0.01534   0.01607   0.01989   0.02026
     Eigenvalues ---    0.02082   0.02673   0.03657   0.04509   0.04698
     Eigenvalues ---    0.04837   0.05070   0.05139   0.05301   0.05872
     Eigenvalues ---    0.06274   0.07229   0.07701   0.07718   0.07862
     Eigenvalues ---    0.07996   0.08041   0.08049   0.10461   0.11740
     Eigenvalues ---    0.12276   0.13457   0.15220   0.15730   0.15990
     Eigenvalues ---    0.16000   0.20112   0.22026   0.23503   0.25000
     Eigenvalues ---    0.25000   0.25327   0.26152   0.26654   0.27988
     Eigenvalues ---    0.28081   0.28431   0.28702   0.31472   0.31662
     Eigenvalues ---    0.32049   0.32240   0.32290   0.32381   0.32387
     Eigenvalues ---    0.32402   0.32512   0.32524   0.32583   0.33390
     Eigenvalues ---    0.33608   0.33705   0.35220   0.43877   0.43984
     Eigenvalues ---    0.49426   0.67322   0.89602   0.914181000.00000
     Eigenvalues --- 1000.000001000.000001000.000001000.000001000.00000
     Eigenvalues --- 1000.000001000.000001000.000001000.000001000.00000
     Eigenvalues --- 1000.000001000.000001000.000001000.000001000.00000
     Eigenvalues --- 1000.000001000.000001000.000001000.000001000.00000
     Eigenvalues --- 1000.000001000.000001000.000001000.000001000.00000
     Eigenvalues --- 1000.000001000.000001000.000001000.000001000.00000
     Eigenvalues --- 1000.000001000.000001000.000001000.000001000.00000
     Eigenvalues --- 1000.000001000.000001000.000001000.000001000.00000
     Eigenvalues --- 1000.000001000.000001000.000001000.000001000.00000
     Eigenvalues --- 1000.000001000.000001000.000001000.000001000.00000
     Eigenvalues --- 1000.000001000.000001000.000001000.000001000.00000
     Eigenvalues --- 1000.000001000.000001000.000001000.000001000.00000
     Eigenvalues --- 1000.000001000.000001000.000001000.000001000.00000
     Eigenvalues --- 1000.000001000.000001000.000001000.000001000.00000
     Eigenvalues --- 1000.000001000.000001000.000001000.000001000.00000
     Eigenvalues --- 1000.000001000.000001000.000001000.000001000.00000
     Eigenvalues --- 1000.000001000.000001000.000001000.000001000.00000
     Eigenvalues --- 1000.000001000.000001000.000001000.000001000.00000
     Eigenvalues --- 1000.00000
 RFO step:  Lambda=-2.50608423D-02 EMin= 2.47876235D-03
 Linear search not attempted -- first point.
 Iteration  1 RMS(Cart)=  0.05770328 RMS(Int)=  0.00184576
 Iteration  2 RMS(Cart)=  0.00190003 RMS(Int)=  0.00046946
 Iteration  3 RMS(Cart)=  0.00000780 RMS(Int)=  0.00046942
 Iteration  4 RMS(Cart)=  0.00000002 RMS(Int)=  0.00046942
 Iteration  1 RMS(Cart)=  0.00005765 RMS(Int)=  0.00002040
 Iteration  2 RMS(Cart)=  0.00002522 RMS(Int)=  0.00002255
 Iteration  3 RMS(Cart)=  0.00001200 RMS(Int)=  0.00002502
 Iteration  4 RMS(Cart)=  0.00000659 RMS(Int)=  0.00002674
 Iteration  5 RMS(Cart)=  0.00000430 RMS(Int)=  0.00002795
 Iteration  6 RMS(Cart)=  0.00000322 RMS(Int)=  0.00002886
 Iteration  7 RMS(Cart)=  0.00000260 RMS(Int)=  0.00002959
 Iteration  8 RMS(Cart)=  0.00000217 RMS(Int)=  0.00003019
 Iteration  9 RMS(Cart)=  0.00000183 RMS(Int)=  0.00003071
 Iteration 10 RMS(Cart)=  0.00000155 RMS(Int)=  0.00003114
 Iteration 11 RMS(Cart)=  0.00000132 RMS(Int)=  0.00003152
 Iteration 12 RMS(Cart)=  0.00000113 RMS(Int)=  0.00003184
 Iteration 13 RMS(Cart)=  0.00000096 RMS(Int)=  0.00003212
 Variable       Old X    -DE/DX   Delta X   Delta X   Delta X     New X
                                 (Linear)    (Quad)   (Total)
    R1        2.32286   0.02301   0.00000   0.02450   0.02450   2.34736
    R2        2.33117   0.01046   0.00000   0.01135   0.01135   2.34252
    R3        2.90629  -0.03730   0.00000  -0.11951  -0.11951   2.78679
    R4        2.64802  -0.03230   0.00000  -0.07191  -0.07166   2.57635
    R5        2.79924  -0.02220   0.00000  -0.06536  -0.06517   2.73407
    R6        2.58905  -0.02318   0.00000  -0.04455  -0.04442   2.54463
    R7        2.08372  -0.01170   0.00000  -0.03259  -0.03259   2.05113
    R8        2.82711  -0.02123   0.00000  -0.05651  -0.05660   2.77052
    R9        1.93303  -0.00647   0.00000  -0.01394  -0.01394   1.91908
   R10        2.11820  -0.01208   0.00000  -0.03554  -0.03554   2.08266
   R11        2.92749  -0.01282   0.00000  -0.04341  -0.04340   2.88409
   R12        2.90629  -0.00509   0.00000  -0.00882  -0.00890   2.89739
   R13        2.91148  -0.00467   0.00000  -0.01448  -0.01450   2.89698
   R14        2.09917  -0.00987   0.00000  -0.02819  -0.02819   2.07099
   R15        2.09895  -0.00813   0.00000  -0.02320  -0.02320   2.07575
   R16        2.90427  -0.00188   0.00000  -0.00714  -0.00720   2.89706
   R17        2.10142  -0.01057   0.00000  -0.03030  -0.03030   2.07112
   R18        2.10317  -0.00901   0.00000  -0.02590  -0.02590   2.07727
   R19        2.91733  -0.00903   0.00000  -0.02856  -0.02856   2.88877
   R20        2.10408  -0.01162   0.00000  -0.03344  -0.03344   2.07064
   R21        2.10115  -0.00996   0.00000  -0.02852  -0.02852   2.07262
   R22        2.93525  -0.01062   0.00000  -0.03635  -0.03633   2.89892
   R23        2.10153  -0.01077   0.00000  -0.03088  -0.03088   2.07064
   R24        2.09789  -0.00787   0.00000  -0.02242  -0.02242   2.07547
   R25        2.10754  -0.00941   0.00000  -0.02722  -0.02722   2.08031
   R26        2.77134  -0.00660   0.00000  -0.01289  -0.01314   2.75820
   R27        2.44123  -0.00372   0.00000  -0.00565  -0.00569   2.43555
   R28        2.07996  -0.00620   0.00000  -0.01718  -0.01718   2.06278
    A1        2.14836   0.01249   0.00000   0.04801   0.04490   2.19326
    A2        2.02225  -0.00090   0.00000  -0.00069  -0.00379   2.01846
    A3        2.11022  -0.01119   0.00000  -0.03808  -0.04119   2.06903
    A4        1.94249   0.01195   0.00000   0.00000  -0.00000   1.94249
    A5        2.07642  -0.01512   0.00000  -0.02041  -0.02082   2.05560
    A6        2.26385   0.00313   0.00000   0.01996   0.02025   2.28409
    A7        2.17783   0.01172   0.00000   0.03351   0.03392   2.21174
    A8        2.09044  -0.00815   0.00000  -0.02878  -0.02909   2.06135
    A9        2.01389  -0.00351   0.00000  -0.00378  -0.00410   2.00979
   A10        2.25555  -0.00694   0.00000  -0.02519  -0.02513   2.23042
   A11        2.11112  -0.01122   0.00000  -0.06428  -0.06471   2.04641
   A12        1.87191   0.01827   0.00000   0.09834   0.09838   1.97029
   A13        1.83709  -0.00155   0.00000  -0.01704  -0.01683   1.82025
   A14        2.00434  -0.00083   0.00000  -0.01137  -0.01147   1.99287
   A15        1.97321   0.00043   0.00000  -0.00243  -0.00284   1.97036
   A16        1.85227   0.00263   0.00000   0.02504   0.02489   1.87716
   A17        1.84852   0.00098   0.00000   0.01942   0.01922   1.86775
   A18        1.93426  -0.00131   0.00000  -0.00886  -0.00861   1.92565
   A19        1.91040   0.00013   0.00000  -0.00491  -0.00502   1.90539
   A20        1.92187  -0.00072   0.00000  -0.01277  -0.01275   1.90912
   A21        1.92302  -0.00164   0.00000  -0.00677  -0.00677   1.91625
   A22        1.91918  -0.00042   0.00000   0.00517   0.00511   1.92429
   A23        1.90464   0.00309   0.00000   0.02477   0.02478   1.92942
   A24        1.88453  -0.00040   0.00000  -0.00509  -0.00533   1.87920
   A25        1.94075  -0.00103   0.00000   0.00498   0.00486   1.94561
   A26        1.91883  -0.00065   0.00000  -0.00672  -0.00673   1.91210
   A27        1.90492   0.00034   0.00000  -0.00281  -0.00286   1.90206
   A28        1.91605   0.00083   0.00000   0.00702   0.00706   1.92311
   A29        1.89853   0.00176   0.00000   0.01125   0.01129   1.90981
   A30        1.88371  -0.00124   0.00000  -0.01418  -0.01426   1.86945
   A31        1.94451   0.00063   0.00000   0.00500   0.00513   1.94964
   A32        1.90253   0.00062   0.00000   0.00613   0.00608   1.90861
   A33        1.91724   0.00042   0.00000   0.00515   0.00512   1.92236
   A34        1.90697  -0.00118   0.00000  -0.01432  -0.01437   1.89260
   A35        1.91530  -0.00044   0.00000   0.00029   0.00020   1.91551
   A36        1.87591  -0.00007   0.00000  -0.00261  -0.00264   1.87327
   A37        1.94630  -0.00277   0.00000  -0.01741  -0.01746   1.92884
   A38        1.90617   0.00247   0.00000   0.01673   0.01659   1.92276
   A39        1.91118   0.00136   0.00000   0.01297   0.01296   1.92414
   A40        1.90641   0.00012   0.00000  -0.00356  -0.00340   1.90300
   A41        1.91203  -0.00030   0.00000  -0.00474  -0.00468   1.90735
   A42        1.88056  -0.00081   0.00000  -0.00351  -0.00370   1.87686
   A43        1.84576   0.00442   0.00000   0.02181   0.02187   1.86763
   A44        1.93495  -0.00398   0.00000  -0.02884  -0.02924   1.90571
   A45        1.99066   0.00072   0.00000   0.01541   0.01567   2.00633
   A46        1.88107   0.00224   0.00000   0.02967   0.02991   1.91099
   A47        1.89118  -0.00388   0.00000  -0.03017  -0.03028   1.86091
   A48        1.91546   0.00070   0.00000  -0.00572  -0.00551   1.90995
   A49        2.08788  -0.00561   0.00000  -0.01291  -0.01332   2.07456
   A50        2.23974  -0.00242   0.00000  -0.01928  -0.01944   2.22030
   A51        1.98060   0.00427   0.00000   0.02588   0.02540   2.00600
   A52        2.06272  -0.00187   0.00000  -0.00734  -0.00779   2.05492
    D1       -3.02574   0.00203   0.00000  -0.01464  -0.01450  -3.04024
    D2        0.14413   0.00318   0.00000   0.00000  -0.00000   0.14413
    D3        0.18730  -0.00469   0.00000  -0.15686  -0.15668   0.03062
    D4       -2.92602  -0.00354   0.00000  -0.14221  -0.14218  -3.06820
    D5        3.06821   0.00129   0.00000   0.01131   0.01144   3.07965
    D6       -0.02228   0.00002   0.00000  -0.01207  -0.01192  -0.03420
    D7       -0.10553  -0.00036   0.00000  -0.00625  -0.00646  -0.11199
    D8        3.08716  -0.00164   0.00000  -0.02962  -0.02981   3.05735
    D9       -2.77448  -0.00096   0.00000  -0.02803  -0.02813  -2.80261
   D10        0.38469   0.00063   0.00000   0.02341   0.02353   0.40822
   D11        0.40136   0.00036   0.00000  -0.00972  -0.00967   0.39169
   D12       -2.72266   0.00195   0.00000   0.04172   0.04199  -2.68067
   D13       -0.06426  -0.00023   0.00000   0.00737   0.00765  -0.05661
   D14        2.71858   0.00358   0.00000   0.05983   0.05888   2.77746
   D15        3.02824   0.00085   0.00000   0.02910   0.02971   3.05795
   D16       -0.47211   0.00465   0.00000   0.08156   0.08094  -0.39117
   D17       -2.53960  -0.00060   0.00000  -0.00882  -0.00848  -2.54809
   D18        1.71324  -0.00237   0.00000  -0.02231  -0.02195   1.69129
   D19       -0.52989  -0.00014   0.00000   0.00301   0.00303  -0.52686
   D20        0.92274   0.00015   0.00000  -0.03234  -0.03281   0.88994
   D21       -1.10761  -0.00161   0.00000  -0.04583  -0.04627  -1.15387
   D22        2.93246   0.00061   0.00000  -0.02052  -0.02129   2.91116
   D23        2.93971   0.00258   0.00000   0.02851   0.02840   2.96811
   D24       -1.23170   0.00168   0.00000   0.02370   0.02360  -1.20810
   D25        0.84519  -0.00029   0.00000   0.00525   0.00522   0.85041
   D26        0.91808   0.00322   0.00000   0.03927   0.03928   0.95737
   D27        3.02985   0.00232   0.00000   0.03447   0.03449   3.06434
   D28       -1.17644   0.00035   0.00000   0.01602   0.01611  -1.16033
   D29       -1.08102   0.00126   0.00000   0.00699   0.00698  -1.07404
   D30        1.03075   0.00036   0.00000   0.00218   0.00219   1.03294
   D31        3.10764  -0.00161   0.00000  -0.01627  -0.01619   3.09145
   D32       -2.89744  -0.00106   0.00000  -0.01393  -0.01369  -2.91113
   D33       -0.86321   0.00209   0.00000   0.01897   0.01887  -0.84434
   D34        1.30939   0.00038   0.00000   0.00000  -0.00001   1.30939
   D35       -0.89459  -0.00211   0.00000  -0.02398  -0.02387  -0.91846
   D36        1.13965   0.00104   0.00000   0.00893   0.00868   1.14833
   D37       -2.97093  -0.00068   0.00000  -0.01004  -0.01019  -2.98113
   D38        1.10687   0.00088   0.00000   0.01182   0.01193   1.11881
   D39        3.14111   0.00403   0.00000   0.04472   0.04449  -3.09759
   D40       -0.96948   0.00232   0.00000   0.02575   0.02561  -0.94386
   D41        0.95665   0.00065   0.00000   0.00000   0.00001   0.95666
   D42        3.08233   0.00057   0.00000   0.00761   0.00757   3.08990
   D43       -1.13785  -0.00112   0.00000  -0.01526  -0.01523  -1.15308
   D44       -1.15675   0.00173   0.00000   0.01566   0.01573  -1.14102
   D45        0.96893   0.00165   0.00000   0.02328   0.02330   0.99223
   D46        3.03194  -0.00004   0.00000   0.00040   0.00050   3.03244
   D47        3.06240   0.00062   0.00000   0.00397   0.00394   3.06634
   D48       -1.09511   0.00055   0.00000   0.01158   0.01151  -1.08360
   D49        0.96790  -0.00115   0.00000  -0.01129  -0.01129   0.95661
   D50       -0.92192  -0.00075   0.00000   0.00000   0.00001  -0.92191
   D51        1.18388  -0.00142   0.00000  -0.01064  -0.01066   1.17323
   D52       -3.04808  -0.00090   0.00000  -0.00724  -0.00727  -3.05536
   D53       -3.04921   0.00019   0.00000   0.00039   0.00042  -3.04880
   D54       -0.94341  -0.00048   0.00000  -0.01025  -0.01025  -0.95365
   D55        1.10781   0.00003   0.00000  -0.00685  -0.00686   1.10095
   D56        1.17637   0.00017   0.00000   0.00689   0.00692   1.18328
   D57       -3.00101  -0.00050   0.00000  -0.00376  -0.00375  -3.00476
   D58       -0.94980   0.00002   0.00000  -0.00035  -0.00036  -0.95016
   D59        0.99006  -0.00089   0.00000  -0.01070  -0.01074   0.97932
   D60        3.09872  -0.00086   0.00000  -0.01516  -0.01531   3.08341
   D61       -1.12902   0.00039   0.00000  -0.00211  -0.00208  -1.13110
   D62       -1.11314  -0.00128   0.00000  -0.01207  -0.01206  -1.12519
   D63        0.99551  -0.00125   0.00000  -0.01653  -0.01662   0.97889
   D64        3.05097  -0.00000   0.00000  -0.00348  -0.00340   3.04757
   D65        3.11735  -0.00024   0.00000  -0.00066  -0.00065   3.11670
   D66       -1.05718  -0.00022   0.00000  -0.00511  -0.00522  -1.06240
   D67        0.99827   0.00104   0.00000   0.00794   0.00800   1.00628
   D68       -1.05673   0.00018   0.00000  -0.00086  -0.00081  -1.05754
   D69       -3.12712   0.00140   0.00000   0.00659   0.00623  -3.12088
   D70        1.08435   0.00145   0.00000   0.01345   0.01337   1.09771
   D71        3.11794  -0.00121   0.00000  -0.00827  -0.00813   3.10980
   D72        1.04755  -0.00000   0.00000  -0.00082  -0.00109   1.04646
   D73       -1.02417   0.00006   0.00000   0.00605   0.00604  -1.01813
   D74        1.06185  -0.00013   0.00000   0.00083   0.00099   1.06284
   D75       -1.00854   0.00108   0.00000   0.00828   0.00803  -1.00051
   D76       -3.08026   0.00114   0.00000   0.01514   0.01516  -3.06509
   D77       -1.17217   0.00350   0.00000   0.00000  -0.00001  -1.17218
   D78        3.06064   0.00016   0.00000  -0.01625  -0.01607   3.04456
   D79        1.01082  -0.00069   0.00000  -0.03129  -0.03152   0.97929
   D80        0.20138  -0.00058   0.00000   0.00953   0.00933   0.21070
   D81       -2.95850  -0.00218   0.00000  -0.04373  -0.04333  -3.00183
         Item               Value     Threshold  Converged?
 Maximum Force            0.037295     0.000450     NO 
 RMS     Force            0.007035     0.000300     NO 
 Maximum Displacement     0.320431     0.001800     NO 
 RMS     Displacement     0.058125     0.001200     NO 
 Predicted change in Energy=-1.445750D-02
 GradGradGradGradGradGradGradGradGradGradGradGradGradGradGradGradGradGrad

                          Input orientation:                          
 ---------------------------------------------------------------------
 Center     Atomic      Atomic             Coordinates (Angstroms)
 Number     Number       Type             X           Y           Z
 ---------------------------------------------------------------------
      1          8           0       -3.525578   -1.368092   -0.241022
      2          7           0       -3.125184   -0.202621   -0.084985
      3          8           0       -3.842945    0.786420    0.122967
      4          6           0       -1.660995   -0.028782   -0.058912
      5          6           0       -1.320230    1.256394    0.242615
      6          7           0       -0.075316    1.740426    0.413265
      7          6           0        1.189126    0.999081    0.381241
      8          1           0        1.824932    1.513527    1.119964
      9          6           0        1.910557    1.051189   -0.962666
     10          6           0        3.316399    0.461173   -0.802567
     11          6           0        3.267831   -0.952283   -0.210912
     12          6           0        2.456973   -0.995497    1.084263
     13          6           0        1.041202   -0.453055    0.850513
     14          1           0        0.479654   -0.471966    1.797182
     15          7           0        0.404203   -1.348712   -0.109903
     16          6           0       -0.840194   -1.171836   -0.395012
     17          1           0       -2.119183    1.976531    0.388195
     18          1           0        0.051835    2.742833    0.311659
     19          1           0        1.341026    0.478834   -1.703668
     20          1           0        1.966289    2.090136   -1.314877
     21          1           0        3.821195    0.446862   -1.775277
     22          1           0        3.904977    1.113826   -0.142296
     23          1           0        2.803378   -1.632645   -0.933426
     24          1           0        4.284585   -1.318654   -0.024036
     25          1           0        2.388823   -2.025040    1.453093
     26          1           0        2.950732   -0.397399    1.861902
     27          1           0       -1.333081   -1.927641   -1.009310
 ---------------------------------------------------------------------
                    Distance matrix (angstroms):
                    1          2          3          4          5
     1  O    0.000000
     2  N    1.242170   0.000000
     3  O    2.207971   1.239608   0.000000
     4  C    2.302952   1.474704   2.336353   0.000000
     5  C    3.461993   2.343908   2.568907   1.363348   0.000000
     6  N    4.689913   3.650394   3.897362   2.422277   1.346558
     7  C    5.312171   4.502747   5.043181   3.061605   2.526321
     8  H    6.227678   5.375938   5.800648   3.990006   3.275348
     9  C    5.993768   5.263179   5.861014   3.839152   3.454388
    10  C    7.104519   6.515331   7.226244   5.056434   4.819036
    11  C    6.806190   6.438051   7.327872   5.016899   5.112167
    12  C    6.138903   5.758148   6.617272   4.381672   4.477349
    13  C    4.783746   4.277458   5.091220   2.882521   2.977939
    14  H    4.582489   4.075531   4.803269   2.867730   2.939981
    15  N    3.932016   3.710892   4.759337   2.451501   3.143965
    16  C    2.696946   2.501335   3.622097   1.446807   2.556033
    17  H    3.682441   2.446353   2.111414   2.105023   1.085410
    18  H    5.477504   4.350457   4.362621   3.279170   2.024063
    19  H    5.406876   4.799119   5.504976   3.460494   3.387462
    20  H    6.578231   5.717733   6.124890   4.384570   3.731235
    21  H    7.721599   7.178517   7.903018   5.764248   5.582248
    22  H    7.834719   7.152586   7.759373   5.682654   5.241305
    23  H    6.372213   6.157326   7.151325   4.823668   5.170470
    24  H    7.813333   7.493592   8.397005   6.083987   6.173810
    25  H    6.187224   6.007592   6.964803   4.761536   5.098053
    26  H    6.878018   6.383186   7.111918   5.009334   4.857802
    27  H    2.389645   2.653621   3.866212   2.148591   3.421338
                    6          7          8          9         10
     6  N    0.000000
     7  C    1.466094   0.000000
     8  H    2.040061   1.102096   0.000000
     9  C    2.512354   1.526193   2.135050   0.000000
    10  C    3.823410   2.493198   2.651047   1.533018   0.000000
    11  C    4.337846   2.911955   3.151731   2.534014   1.533059
    12  C    3.787875   2.465769   2.587654   2.945745   2.533895
    13  C    2.499831   1.533231   2.134077   2.511204   2.957195
    14  H    2.667938   2.161532   2.492103   3.461827   3.959364
    15  N    3.169608   2.523779   3.423953   2.959025   3.498050
    16  C    3.117630   3.071415   4.075442   3.581997   4.484427
    17  H    2.057611   3.449690   4.038056   4.349699   5.767128
    18  H    1.015535   2.083013   2.304001   2.817874   4.135801
    19  H    2.842366   2.154199   3.045924   1.095919   2.171265
    20  H    2.697578   2.161296   2.506175   1.098440   2.176874
    21  H    4.652508   3.447217   3.674952   2.162426   1.095989
    22  H    4.067433   2.768231   2.465695   2.157463   1.099244
    23  H    4.634443   3.355614   3.882290   2.828595   2.159720
    24  H    5.343963   3.888189   3.921719   3.483273   2.170548
    25  H    4.618653   3.425412   3.598668   3.940535   3.482765
    26  H    3.978167   2.691797   2.338704   3.340442   2.823163
    27  H    4.130424   4.106198   5.133078   4.404178   5.231332
                   11         12         13         14         15
    11  C    0.000000
    12  C    1.528671   0.000000
    13  C    2.516690   1.534044   0.000000
    14  H    3.469450   2.166133   1.100853   0.000000
    15  N    2.892702   2.400970   1.459578   2.100322   0.000000
    16  C    4.118005   3.618102   2.368043   2.652835   1.288835
    17  H    6.160909   5.500788   4.013061   3.838532   4.203905
    18  H    4.926418   4.511842   3.388644   3.567175   4.128270
    19  H    2.826481   3.345377   2.735351   3.728529   2.599547
    20  H    3.488419   3.939261   3.465908   4.296436   3.964562
    21  H    2.170497   3.481160   3.928484   4.977209   4.203974
    22  H    2.163208   2.837324   3.412037   4.243719   4.280253
    23  H    1.095736   2.144067   2.771125   3.768699   2.552420
    24  H    1.096786   2.161694   3.468952   4.302466   3.881448
    25  H    2.166190   1.095737   2.156460   2.485028   2.615165
    26  H    2.169102   1.098290   2.161553   2.473050   3.358247
    27  H    4.770446   4.429046   3.357166   3.644365   2.040159
                   16         17         18         19         20
    16  C    0.000000
    17  H    3.487326   0.000000
    18  H    4.076731   2.303561   0.000000
    19  H    3.032328   4.311848   3.293819   0.000000
    20  H    4.400337   4.427690   2.595528   1.771555   0.000000
    21  H    5.123853   6.504506   4.882096   2.481409   2.520515
    22  H    5.273023   6.108697   4.207903   3.068378   2.467112
    23  H    3.711852   6.245353   5.316581   2.681434   3.834752
    24  H    5.140285   7.213627   5.875759   3.836231   4.319794
    25  H    3.817066   6.121167   5.431114   4.163220   4.977436
    26  H    4.479345   5.788902   4.546198   4.009018   4.153177
    27  H    1.091577   4.220608   5.047403   3.663892   5.207854
                   21         22         23         24         25
    21  H    0.000000
    22  H    1.765924   0.000000
    23  H    2.463538   3.063089   0.000000
    24  H    2.529551   2.464761   1.766227   0.000000
    25  H    4.310959   3.833598   2.453835   2.504956   0.000000
    26  H    3.834000   2.685366   3.059641   2.486892   1.769769
    27  H    5.726390   6.118782   4.147659   5.735835   4.463797
                   26         27
    26  H    0.000000
    27  H    5.379271   0.000000
 Symmetry turned off by external request.
 Stoichiometry    C9H13N3O2
 Framework group  C1[X(C9H13N3O2)]
 Deg. of freedom    75
 Full point group                 C1      NOp   1
 Rotational constants (GHZ):           1.6857514           0.4219852           0.3725541
 Standard basis: 6-31G(d) (6D, 7F)
   236 basis functions,   444 primitive gaussians,   236 cartesian basis functions
    52 alpha electrons       52 beta electrons
       nuclear repulsion energy       932.0665031996 Hartrees.
 NAtoms=   27 NActive=   27 NUniq=   27 SFac= 1.00D+00 NAtFMM=   60 NAOKFM=F Big=F
 Integral buffers will be    131072 words long.
 Raffenetti 1 integral format.
 Two-electron integral symmetry is turned off.
 One-electron integrals computed using PRISM.
 NBasis=   236 RedAO= T EigKep=  1.01D-03  NBF=   236
 NBsUse=   236 1.00D-06 EigRej= -1.00D+00 NBFU=   236
 Initial guess from the checkpoint file:  "/home/alexey/tmp/Gau-1209432.chk"
 B after Tr=     0.055248    0.001694    0.005524
         Rot=    0.999997   -0.002154   -0.000767    0.000393 Ang=  -0.27 deg.
 ExpMin= 1.61D-01 ExpMax= 5.48D+03 ExpMxC= 8.25D+02 IAcc=3 IRadAn=         5 AccDes= 0.00D+00
 Harris functional with IExCor=  205 and IRadAn=       5 diagonalized for initial guess.
 HarFok:  IExCor=  205 AccDes= 0.00D+00 IRadAn=         5 IDoV= 1 UseB2=F ITyADJ=14
 ICtDFT=  3500011 ScaDFX=  1.000000  1.000000  1.000000  1.000000
 FoFCou: FMM=F IPFlag=           0 FMFlag=      100000 FMFlg1=           0
         NFxFlg=           0 DoJE=T BraDBF=F KetDBF=T FulRan=T
         wScrn=  0.000000 ICntrl=       500 IOpCl=  0 I1Cent=   200000004 NGrid=           0
         NMat0=    1 NMatS0=      1 NMatT0=    0 NMatD0=    1 NMtDS0=    0 NMtDT0=    0
 Symmetry not used in FoFCou.
 Keep R1 ints in memory in canonical form, NReq=397720213.
 Requested convergence on RMS density matrix=1.00D-08 within 128 cycles.
 Requested convergence on MAX density matrix=1.00D-06.
 Requested convergence on             energy=1.00D-06.
 No special actions if energy rises.
 SCF Done:  E(RHF) =  -661.296356967     A.U. after   15 cycles
            NFock= 15  Conv=0.62D-08     -V/T= 2.0025
 ExpMin= 1.61D-01 ExpMax= 5.48D+03 ExpMxC= 8.25D+02 IAcc=3 IRadAn=         5 AccDes= 0.00D+00
 HarFok:  IExCor=  205 AccDes= 0.00D+00 IRadAn=         5 IDoV=-2 UseB2=F ITyADJ=14
 ICtDFT= 12500011 ScaDFX=  1.000000  1.000000  1.000000  1.000000
 Range of M.O.s used for correlation:    15   236
 NBasis=   236 NAE=    52 NBE=    52 NFC=    14 NFV=     0
 NROrb=    222 NOA=    38 NOB=    38 NVA=   184 NVB=   184
 Fully direct method using O(ONN) memory.
 JobTyp=1 Pass  1:  I=  15 to  52 NPSUse=  4 ParTrn=T ParDer=T DoDerP=T.
 Spin components of T(2) and E(2):
     alpha-alpha T2 =       0.9136520653D-01 E2=     -0.2724694039D+00
     alpha-beta  T2 =       0.4915220719D+00 E2=     -0.1488315048D+01
     beta-beta   T2 =       0.9136520653D-01 E2=     -0.2724694039D+00
 ANorm=    0.1293929088D+01
 E2 =    -0.2033253855D+01 EUMP2 =    -0.66332961082258D+03
          IDoAtm=111111111111111111111111111
          Differentiating once with respect to electric field.
                with respect to dipole field.
          Differentiating once with respect to nuclear coordinates.
 Keep R1 ints in memory in canonical form, NReq=397723379.
          There are     1 degrees of freedom in the 1st order CPHF.  IDoFFX=0 NUNeed=     1.
 LinEq1:  Iter=  0 NonCon=     1 RMS=4.59D-03 Max=1.07D-01 NDo=     1
 AX will form     1 AO Fock derivatives at one time.
 LinEq1:  Iter=  1 NonCon=     1 RMS=1.55D-03 Max=2.94D-02 NDo=     1
 LinEq1:  Iter=  2 NonCon=     1 RMS=6.48D-04 Max=1.83D-02 NDo=     1
 LinEq1:  Iter=  3 NonCon=     1 RMS=2.81D-04 Max=8.06D-03 NDo=     1
 LinEq1:  Iter=  4 NonCon=     1 RMS=8.74D-05 Max=2.08D-03 NDo=     1
 LinEq1:  Iter=  5 NonCon=     1 RMS=3.62D-05 Max=1.73D-03 NDo=     1
 LinEq1:  Iter=  6 NonCon=     1 RMS=1.41D-05 Max=5.62D-04 NDo=     1
[...]
    27  H    4.735894   4.423858   3.359567   3.651319   2.035172
                   16         17         18         19         20
    16  C    0.000000
    17  H    3.472882   0.000000
    18  H    4.108262   2.245249   0.000000
    19  H    3.000178   4.286439   3.508534   0.000000
    20  H    4.387028   4.433833   2.873331   1.768546   0.000000
    21  H    5.102751   6.499634   5.080952   2.499301   2.520690
    22  H    5.255524   6.097712   4.308859   3.070254   2.461658
    23  H    3.693577   6.230070   5.421590   2.703368   3.842487
    24  H    5.133220   7.201077   5.936483   3.848966   4.316928
    25  H    3.818031   6.099083   5.374832   4.171150   4.984516
    26  H    4.494689   5.790193   4.485390   4.032839   4.178975
    27  H    1.089780   4.217998   5.100726   3.607792   5.171525
                   21         22         23         24         25
    21  H    0.000000
    22  H    1.758901   0.000000
    23  H    2.469781   3.062436   0.000000
    24  H    2.517525   2.460011   1.764551   0.000000
    25  H    4.311877   3.838328   2.444887   2.518863   0.000000
    26  H    3.845248   2.702116   3.060506   2.492843   1.768020
    27  H    5.674129   6.077924   4.102274   5.704643   4.455247
                   26         27
    26  H    0.000000
    27  H    5.382614   0.000000
 Symmetry turned off by external request.
 Stoichiometry    C9H13N3O2
 Framework group  C1[X(C9H13N3O2)]
 Deg. of freedom    75
 Full point group                 C1      NOp   1
 Rotational constants (GHZ):           1.6813629           0.4197880           0.3728346

 **********************************************************************

            Population analysis using the SCF Density.

 **********************************************************************

 Alpha  occ. eigenvalues --  -20.59083 -20.58924 -15.84633 -15.64075 -15.56177
 Alpha  occ. eigenvalues --  -11.34847 -11.29760 -11.29630 -11.28659 -11.27190
 Alpha  occ. eigenvalues --  -11.23748 -11.23216 -11.22708 -11.22101  -1.57052
 Alpha  occ. eigenvalues --   -1.36631  -1.30915  -1.23128  -1.14682  -1.09802
 Alpha  occ. eigenvalues --   -1.02780  -1.01276  -0.94187  -0.89726  -0.85544
 Alpha  occ. eigenvalues --   -0.82512  -0.78741  -0.77382  -0.75189  -0.71846
 Alpha  occ. eigenvalues --   -0.69658  -0.69399  -0.67806  -0.64844  -0.63838
 Alpha  occ. eigenvalues --   -0.62458  -0.60419  -0.57665  -0.57040  -0.55141
 Alpha  occ. eigenvalues --   -0.54628  -0.50738  -0.50125  -0.48472  -0.48148
 Alpha  occ. eigenvalues --   -0.47308  -0.46203  -0.46018  -0.43678  -0.41757
 Alpha  occ. eigenvalues --   -0.39987  -0.33722
 Alpha virt. eigenvalues --    0.07725   0.11494   0.17398   0.21866   0.24125
 Alpha virt. eigenvalues --    0.25580   0.27144   0.28656   0.29028   0.29581
 Alpha virt. eigenvalues --    0.30779   0.31716   0.32107   0.32766   0.33921
 Alpha virt. eigenvalues --    0.34367   0.35777   0.37472   0.38543   0.39897
 Alpha virt. eigenvalues --    0.41100   0.42512   0.45078   0.46196   0.47061
 Alpha virt. eigenvalues --    0.47112   0.49151   0.54307   0.57713   0.59252
 Alpha virt. eigenvalues --    0.64008   0.69339   0.69768   0.72881   0.74240
 Alpha virt. eigenvalues --    0.74503   0.75817   0.76611   0.78538   0.79400
 Alpha virt. eigenvalues --    0.81452   0.84558   0.85619   0.86061   0.88505
 Alpha virt. eigenvalues --    0.89449   0.91124   0.91927   0.92886   0.94571
 Alpha virt. eigenvalues --    0.95720   0.97978   0.99601   1.01596   1.02485
 Alpha virt. eigenvalues --    1.03218   1.05935   1.06992   1.08161   1.09007
 Alpha virt. eigenvalues --    1.10329   1.11672   1.11866   1.12401   1.13884
 Alpha virt. eigenvalues --    1.14734   1.15039   1.15825   1.16848   1.18680
 Alpha virt. eigenvalues --    1.19112   1.21327   1.22698   1.24045   1.24373
 Alpha virt. eigenvalues --    1.25270   1.26093   1.26797   1.27513   1.29545
 Alpha virt. eigenvalues --    1.29777   1.33160   1.36294   1.37315   1.40585
 Alpha virt. eigenvalues --    1.41314   1.45365   1.48240   1.52427   1.53579
 Alpha virt. eigenvalues --    1.57539   1.58722   1.59485   1.63404   1.65706
 Alpha virt. eigenvalues --    1.68296   1.68451   1.73026   1.75220   1.77432
 Alpha virt. eigenvalues --    1.81668   1.84744   1.87618   1.90605   1.93405
 Alpha virt. eigenvalues --    1.95790   1.97027   1.99774   2.01466   2.02119
 Alpha virt. eigenvalues --    2.05123   2.05403   2.08744   2.09813   2.12355
 Alpha virt. eigenvalues --    2.13212   2.15106   2.18735   2.19895   2.22304
 Alpha virt. eigenvalues --    2.22979   2.24583   2.25667   2.28280   2.29608
 Alpha virt. eigenvalues --    2.31995   2.33496   2.34525   2.36507   2.38486
 Alpha virt. eigenvalues --    2.40604   2.42209   2.44743   2.45108   2.47617
 Alpha virt. eigenvalues --    2.50284   2.51852   2.53185   2.55549   2.60633
 Alpha virt. eigenvalues --    2.62328   2.65114   2.67768   2.70001   2.70465
 Alpha virt. eigenvalues --    2.72121   2.72584   2.77055   2.78287   2.83760
 Alpha virt. eigenvalues --    2.88543   2.88934   2.92971   2.93313   2.95849
 Alpha virt. eigenvalues --    2.99415   3.01189   3.04750   3.05719   3.07839
 Alpha virt. eigenvalues --    3.09468   3.14887   3.20690   3.25368   3.27498
 Alpha virt. eigenvalues --    3.33213   3.37628   3.38365   3.51452   3.66136
 Alpha virt. eigenvalues --    4.14151   4.27296   4.34680   4.39404   4.46245
 Alpha virt. eigenvalues --    4.56100   4.61897   4.62358   4.73518   4.79730
 Alpha virt. eigenvalues --    4.99466   5.00849   5.05107   5.11224
          Condensed to atoms (all electrons):
               1          2          3          4          5          6
     1  O    8.315912   0.306039  -0.082383  -0.086457   0.004875  -0.000019
     2  N    0.306039   5.722849   0.298167   0.267354  -0.059523   0.001061
     3  O   -0.082383   0.298167   8.358887  -0.089326  -0.000808   0.000945
     4  C   -0.086457   0.267354  -0.089326   5.229187   0.556118  -0.049852
     5  C    0.004875  -0.059523  -0.000808   0.556118   4.730787   0.313188
     6  N   -0.000019   0.001061   0.000945  -0.049852   0.313188   7.198750
     7  C    0.000003  -0.000152   0.000001   0.004620  -0.029668   0.170941
     8  H   -0.000000   0.000002  -0.000000  -0.000247   0.003041  -0.050468
     9  C   -0.000000  -0.000004  -0.000000   0.000814   0.000595  -0.062342
    10  C    0.000000   0.000000   0.000000  -0.000037  -0.000054   0.003770
    11  C   -0.000000  -0.000000  -0.000000  -0.000031   0.000024  -0.000186
    12  C   -0.000000   0.000002  -0.000000  -0.000099  -0.000194   0.003826
    13  C   -0.000020  -0.000029  -0.000004  -0.011789  -0.000713  -0.046896
    14  H   -0.000003  -0.000109   0.000001   0.002457   0.005916  -0.006764
    15  N    0.000412   0.002236  -0.000014  -0.063927  -0.006809   0.001827
    16  C    0.002209  -0.023603   0.002410   0.331680  -0.050484  -0.000970
    17  H    0.000291  -0.008431   0.019242  -0.022648   0.374078  -0.033068
    18  H    0.000001  -0.000059   0.000017   0.001510  -0.031188   0.338256
    19  H    0.000001  -0.000005   0.000000  -0.001294   0.001268  -0.000341
    20  H    0.000000  -0.000000   0.000000  -0.000083   0.000169  -0.000438
    21  H   -0.000000   0.000000   0.000000   0.000001   0.000001  -0.000078
    22  H   -0.000000   0.000000  -0.000000  -0.000000  -0.000003  -0.000117
    23  H    0.000000  -0.000000   0.000000   0.000040   0.000001  -0.000031
    24  H    0.000000   0.000000   0.000000   0.000000  -0.000000   0.000006
    25  H    0.000000  -0.000000   0.000000   0.000023   0.000001  -0.000089
    26  H    0.000000  -0.000000   0.000000   0.000006  -0.000000  -0.000057
    27  H    0.006605  -0.000559   0.000035  -0.062919   0.002063   0.000015
               7          8          9         10         11         12
     1  O    0.000003  -0.000000  -0.000000   0.000000  -0.000000  -0.000000
     2  N   -0.000152   0.000002  -0.000004   0.000000  -0.000000   0.000002
     3  O    0.000001  -0.000000  -0.000000   0.000000  -0.000000  -0.000000
     4  C    0.004620  -0.000247   0.000814  -0.000037  -0.000031  -0.000099
     5  C   -0.029668   0.003041   0.000595  -0.000054   0.000024  -0.000194
     6  N    0.170941  -0.050468  -0.062342   0.003770  -0.000186   0.003826
     7  C    5.018308   0.418413   0.350356  -0.054498  -0.009048  -0.060919
     8  H    0.418413   0.537407  -0.054910   0.000732  -0.000318  -0.002366
     9  C    0.350356  -0.054910   5.158530   0.324868  -0.050516  -0.005294
    10  C   -0.054498   0.000732   0.324868   5.119022   0.336991  -0.061118
    11  C   -0.009048  -0.000318  -0.050516   0.336991   5.120217   0.336002
    12  C   -0.060919  -0.002366  -0.005294  -0.061118   0.336002   5.118797
    13  C    0.337180  -0.037658  -0.060546  -0.000291  -0.050818   0.371646
    14  H   -0.046901  -0.000730   0.004428  -0.000404   0.004191  -0.036080
    15  N   -0.057660   0.003813  -0.014097   0.001576  -0.013137  -0.081992
    16  C   -0.001905  -0.000009  -0.001007  -0.000042   0.000043   0.002632
    17  H    0.001527  -0.000043  -0.000065   0.000001   0.000000  -0.000000
    18  H   -0.021235  -0.004453   0.001329  -0.000084   0.000004  -0.000112
    19  H   -0.037023   0.004359   0.390272  -0.032158  -0.002218   0.000679
    20  H   -0.042425  -0.002026   0.399541  -0.035275   0.003932  -0.000414
    21  H    0.004594  -0.000075  -0.036371   0.402426  -0.034928   0.004359
    22  H   -0.004875   0.003559  -0.046937   0.397791  -0.045340  -0.001060
    23  H    0.000570   0.000036  -0.001964  -0.039034   0.399250  -0.037955
    24  H   -0.000131  -0.000103   0.004392  -0.038421   0.402339  -0.038657
    25  H    0.005156  -0.000021  -0.000425   0.004199  -0.033382   0.398378
    26  H   -0.003948   0.001677   0.000980  -0.002267  -0.041436   0.396733
    27  H   -0.000386   0.000008  -0.000053   0.000006   0.000012  -0.000039
              13         14         15         16         17         18
     1  O   -0.000020  -0.000003   0.000412   0.002209   0.000291   0.000001
     2  N   -0.000029  -0.000109   0.002236  -0.023603  -0.008431  -0.000059
     3  O   -0.000004   0.000001  -0.000014   0.002410   0.019242   0.000017
     4  C   -0.011789   0.002457  -0.063927   0.331680  -0.022648   0.001510
     5  C   -0.000713   0.005916  -0.006809  -0.050484   0.374078  -0.031188
     6  N   -0.046896  -0.006764   0.001827  -0.000970  -0.033068   0.338256
     7  C    0.337180  -0.046901  -0.057660  -0.001905   0.001527  -0.021235
     8  H   -0.037658  -0.000730   0.003813  -0.000009  -0.000043  -0.004453
     9  C   -0.060546   0.004428  -0.014097  -0.001007  -0.000065   0.001329
    10  C   -0.000291  -0.000404   0.001576  -0.000042   0.000001  -0.000084
    11  C   -0.050818   0.004191  -0.013137   0.000043   0.000000   0.000004
    12  C    0.371646  -0.036080  -0.081992   0.002632  -0.000000  -0.000112
    13  C    5.039852   0.403437   0.246640  -0.070895  -0.000003   0.002915
    14  H    0.403437   0.526245  -0.037782  -0.004492   0.000089  -0.000118
    15  N    0.246640  -0.037782   6.965473   0.583582  -0.000080  -0.000131
    16  C   -0.070895  -0.004492   0.583582   4.704885   0.001697  -0.000201
    17  H   -0.000003   0.000089  -0.000080   0.001697   0.365976  -0.002497
    18  H    0.002915  -0.000118  -0.000131  -0.000201  -0.002497   0.311049
    19  H   -0.007492   0.000109   0.007590   0.002943   0.000017  -0.000151
    20  H    0.004344  -0.000067   0.000120  -0.000037   0.000002   0.000825
    21  H   -0.000438   0.000010  -0.000041   0.000004  -0.000000   0.000001
    22  H    0.000069  -0.000054   0.000019  -0.000002   0.000000   0.000001
    23  H   -0.007517   0.000004   0.008585   0.000102   0.000000   0.000000
    24  H    0.004705  -0.000057   0.000130   0.000006   0.000000  -0.000000
    25  H   -0.035628  -0.002843   0.000443  -0.000020  -0.000000   0.000002
    26  H   -0.047342  -0.001047   0.004887  -0.000062   0.000000  -0.000000
    27  H    0.004909  -0.000165  -0.039351   0.402989  -0.000077   0.000001
              19         20         21         22         23         24
     1  O    0.000001   0.000000  -0.000000  -0.000000   0.000000   0.000000
     2  N   -0.000005  -0.000000   0.000000   0.000000  -0.000000   0.000000
     3  O    0.000000   0.000000   0.000000  -0.000000   0.000000   0.000000
     4  C   -0.001294  -0.000083   0.000001  -0.000000   0.000040   0.000000
     5  C    0.001268   0.000169   0.000001  -0.000003   0.000001  -0.000000
     6  N   -0.000341  -0.000438  -0.000078  -0.000117  -0.000031   0.000006
     7  C   -0.037023  -0.042425   0.004594  -0.004875   0.000570  -0.000131
     8  H    0.004359  -0.002026  -0.000075   0.003559   0.000036  -0.000103
     9  C    0.390272   0.399541  -0.036371  -0.046937  -0.001964   0.004392
    10  C   -0.032158  -0.035275   0.402426   0.397791  -0.039034  -0.038421
    11  C   -0.002218   0.003932  -0.034928  -0.045340   0.399250   0.402339
    12  C    0.000679  -0.000414   0.004359  -0.001060  -0.037955  -0.038657
    13  C   -0.007492   0.004344  -0.000438   0.000069  -0.007517   0.004705
    14  H    0.000109  -0.000067   0.000010  -0.000054   0.000004  -0.000057
    15  N    0.007590   0.000120  -0.000041   0.000019   0.008585   0.000130
    16  C    0.002943  -0.000037   0.000004  -0.000002   0.000102   0.000006
    17  H    0.000017   0.000002  -0.000000   0.000000   0.000000   0.000000
    18  H   -0.000151   0.000825   0.000001   0.000001   0.000000  -0.000000
    19  H    0.505696  -0.024743  -0.002784   0.003964   0.001522  -0.000067
    20  H   -0.024743   0.540876  -0.002704  -0.002978  -0.000045  -0.000083
    21  H   -0.002784  -0.002704   0.524102  -0.027392  -0.002895  -0.002246
    22  H    0.003964  -0.002978  -0.027392   0.571096   0.004133  -0.003648
    23  H    0.001522  -0.000045  -0.002895   0.004133   0.498971  -0.025432
    24  H   -0.000067  -0.000083  -0.002246  -0.003648  -0.025432   0.537973
    25  H   -0.000029   0.000012  -0.000087  -0.000081  -0.002305  -0.002314
    26  H    0.000019  -0.000030  -0.000080   0.002382   0.004065  -0.003013
    27  H    0.000083   0.000000  -0.000000   0.000000  -0.000034  -0.000000
              25         26         27
     1  O    0.000000   0.000000   0.006605
     2  N   -0.000000  -0.000000  -0.000559
     3  O    0.000000   0.000000   0.000035
     4  C    0.000023   0.000006  -0.062919
     5  C    0.000001  -0.000000   0.002063
     6  N   -0.000089  -0.000057   0.000015
     7  C    0.005156  -0.003948  -0.000386
     8  H   -0.000021   0.001677   0.000008
     9  C   -0.000425   0.000980  -0.000053
    10  C    0.004199  -0.002267   0.000006
    11  C   -0.033382  -0.041436   0.000012
    12  C    0.398378   0.396733  -0.000039
    13  C   -0.035628  -0.047342   0.004909
    14  H   -0.002843  -0.001047  -0.000165
    15  N    0.000443   0.004887  -0.039351
    16  C   -0.000020  -0.000062   0.402989
    17  H   -0.000000   0.000000  -0.000077
    18  H    0.000002  -0.000000   0.000001
    19  H   -0.000029   0.000019   0.000083
    20  H    0.000012  -0.000030   0.000000
    21  H   -0.000087  -0.000080  -0.000000
    22  H   -0.000081   0.002382   0.000000
    23  H   -0.002305   0.004065  -0.000034
    24  H   -0.002314  -0.003013  -0.000000
    25  H    0.505863  -0.024060  -0.000012
    26  H   -0.024060   0.562064   0.000001
    27  H   -0.000012   0.000001   0.435523
 Mulliken charges:
               1
     1  O   -0.467465
     2  N    0.494766
     3  O   -0.507169
     4  C   -0.005099
     5  C    0.187319
     6  N   -0.780869
     7  C    0.059105
     8  H    0.180378
     9  C   -0.301572
    10  C   -0.327699
    11  C   -0.321646
    12  C   -0.306754
    13  C   -0.037620
    14  H    0.190730
    15  N   -0.512310
    16  C    0.118545
    17  H    0.303991
    18  H    0.404318
    19  H    0.189783
    20  H    0.161527
    21  H    0.174621
    22  H    0.149474
    23  H    0.199933
    24  H    0.164619
    25  H    0.187217
    26  H    0.150530
    27  H    0.251346
 Sum of Mulliken charges =  -0.00000
 Mulliken charges with hydrogens summed into heavy atoms:
               1
     1  O   -0.467465
     2  N    0.494766
     3  O   -0.507169
     4  C   -0.005099
     5  C    0.491311
     6  N   -0.376550
     7  C    0.239483
     9  C    0.049738
    10  C   -0.003605
    11  C    0.042906
    12  C    0.030992
    13  C    0.153110
    15  N   -0.512310
    16  C    0.369891
 Electronic spatial extent (au):  <R**2>=           3001.6202
 Charge=             -0.0000 electrons
 Dipole moment (field-independent basis, Debye):
    X=              5.4235    Y=              4.6686    Z=              1.3145  Tot=              7.2759
 Quadrupole moment (field-independent basis, Debye-Ang):
   XX=           -106.2569   YY=            -79.1560   ZZ=            -81.6075
   XY=             -1.3718   XZ=             -0.4144   YZ=              1.7601
 Traceless Quadrupole moment (field-independent basis, Debye-Ang):
   XX=            -17.2501   YY=              9.8508   ZZ=              7.3993
   XY=             -1.3718   XZ=             -0.4144   YZ=              1.7601
 Octapole moment (field-independent basis, Debye-Ang**2):
  XXX=             92.2349  YYY=             34.4844  ZZZ=             -1.2309  XYY=             -5.3306
  XXY=              8.2970  XXZ=              6.3957  XZZ=             -9.5298  YZZ=             -0.5002
  YYZ=              7.8477  XYZ=              0.5553
 Hexadecapole moment (field-independent basis, Debye-Ang**3):
 XXXX=          -3376.2063 YYYY=           -599.6347 ZZZZ=           -304.8902 XXXY=            -10.2149
 XXXZ=            -23.2163 YYYX=              2.1024 YYYZ=             25.0663 ZZZX=             -2.1828
 ZZZY=              6.8667 XXYY=           -626.4315 XXZZ=           -524.3788 YYZZ=           -157.3584
 XXYZ=             -5.4445 YYXZ=              0.4241 ZZXY=              6.7965
 N-N= 9.314598382426D+02 E-N=-3.409641182475D+03  KE= 6.596277745720D+02
 Unable to Open any file for archive entry.
 1\1\GINC-LOTUS\FOpt\RMP2-FC\6-31G(d)\C9H13N3O2\ALEXEY\30-Jun-2023\0\\#
 MP2/6-31G* SCF=Tight Opt=(ModRedun, MaxCycle=20 ) NoSymm\\MolName:\\0,
 1\O,-3.541546551,-1.3262510585,-0.4152203572\N,-3.1145723407,-0.188043
 0542,-0.1340067624\O,-3.8588316443,0.7941182568,0.0448735187\C,-1.6647
 354857,-0.0549240253,0.0028345748\C,-1.3062268173,1.2434715969,0.27512
 71942\N,-0.066111854,1.7405163545,0.3947652739\C,1.1987048102,1.016845
 0055,0.365565582\H,1.8466699007,1.5464000737,1.0801066761\C,1.89701088
 28,1.03318952,-0.9932540268\C,3.3005352236,0.4368760135,-0.8359857383\
 C,3.2651831528,-0.9596640822,-0.2098516182\C,2.4760809843,-0.975561491
 6,1.1009549455\C,1.0599209073,-0.4357968459,0.8686944163\H,0.486628442
 9,-0.419856989,1.8091962725\N,0.4184223868,-1.3424235545,-0.0800041991
 \C,-0.8329931672,-1.1748219769,-0.3679670026\H,-2.1089060092,1.9621342
 95,0.4017479409\H,-0.0091944355,2.7272636835,0.6183887554\H,1.30360164
 43,0.4511912798,-1.7066641818\H,1.953643783,2.0614458209,-1.3715822665
 \H,3.8002615812,0.40285806,-1.8108604688\H,3.8983044013,1.107252461,-0
 .2021496933\H,2.7892225359,-1.6597757979,-0.9035795758\H,4.2876173145,
 -1.3161590653,-0.0373339103\H,2.4013578262,-1.9975942974,1.4865899446\
 H,2.9837059473,-0.3719089235,1.8659461078\H,-1.3027434202,-1.937771258
 9,-0.988341402\\Version=ES64L-G16RevC.02\HF=-661.2987978\MP2=-663.3335
 22\RMSD=3.699e-09\RMSF=2.973e-03\Dipole=1.9802587,1.6547411,0.4823677\
 PG=C01 [X(C9H13N3O2)]\\@
 The archive entry for this job was punched.


 A COMPLEXITY IS MERELY A DISARRANGEMENT OF SIMPLICITIES.

                                    -- G. O. ABELL IN "EXPLORATION OF THE UNIVERSE"
 Job cpu time:       0 days  1 hours 23 minutes 48.9 seconds.
 Elapsed time:       0 days  0 hours 25 minutes  4.3 seconds.
 File lengths (MBytes):  RWF=     36 Int=      0 D2E=      0 Chk=      7 Scr=      1
 Normal termination of Gaussian 16 at Fri Jun 30 21:45:05 2023.
