 Entering Gaussian System, Link 0=g16
 Initial command:
 /home/alexey/programs//g16/l1.exe "/home/alexey/tmp/Gau-1430029.inp" -scrdir="/home/alexey/tmp/"
 Entering Link 1 = /home/alexey/programs//g16/l1.exe PID=   1430031.
  
 Copyright (c) 1988-2021, Gaussian, Inc.  All Rights Reserved.
  
 This is part of the Gaussian(R) 16 program.  It is based on
 the Gaussian(R) 09 system (copyright 2009, Gaussian, Inc.),
 the Gaussian(R) 03 system (copyright 2003, Gaussian, Inc.),
 the Gaussian(R) 98 system (copyright 1998, Gaussian, Inc.),
 the Gaussian(R) 94 system (copyright 1995, Gaussian, Inc.),
 the Gaussian 92(TM) system (copyright 1992, Gaussian, Inc.),
 the Gaussian 90(TM) system (copyright 1990, Gaussian, Inc.),
 the Gaussian 88(TM) system (copyright 1988, Gaussian, Inc.),
 the Gaussian 86(TM) system (copyright 1986, Carnegie Mellon
 University), and the Gaussian 82(TM) system (copyright 1983,
 Carnegie Mellon University). Gaussian is a federally registered
 trademark of Gaussian, Inc.
  
 This software contains proprietary and confidential information,
 including trade secrets, belonging to Gaussian, Inc.
  
 This software is provided under written license and may be
 used, copied, transmitted, or stored only in accord with that
 written license.
  
 The following legend is applicable only to US Government
 contracts under FAR:
  
                    RESTRICTED RIGHTS LEGEND
  
 Use, reproduction and disclosure by the US Government is
 subject to restrictions as set forth in subparagraphs (a)
 and (c) of the Commercial Computer Software - Restricted
 Rights clause in FAR 52.227-19.
  
 Gaussian, Inc.
 340 Quinnipiac St., Bldg. 40, Wallingford CT 06492
  
  
 ---------------------------------------------------------------
 Warning -- This program may not be used in any manner that
 competes with the business of Gaussian, Inc. or will provide
 assistance to any competitor of Gaussian, Inc.  The licensee
 of this program is prohibited from giving any competitor of
 Gaussian, Inc. access to this program.  By using this program,
 the user acknowledges that Gaussian, Inc. is engaged in the
 business of creating and licensing software in the field of
 computational chemistry and represents and warrants to the
 licensee that it is not a competitor of Gaussian, Inc. and that
 it will not use this program in any manner prohibited above.
 ---------------------------------------------------------------
  

 Cite this work as:
 Gaussian 16, Revision C.02,
 M. J. Frisch, G. W. Trucks, H. B. Schlegel, G. E. Scuseria, 
 M. A. Robb, J. R. Cheeseman, G. Scalmani, V. Barone, 
 G. A. Petersson, H. Nakatsuji, X. Li, M. Caricato, A. V. Marenich, 
 J. Bloino, B. G. Janesko, R. Gomperts, B. Mennucci, H. P. Hratchian, 
 J. V. Ortiz, A. F. Izmaylov, J. L. Sonnenberg, D. Williams-Young, 
 F. Ding, F. Lipparini, F. Egidi, J. Goings, B. Peng, A. Petrone, 
 T. Henderson, D. Ranasinghe, V. G. Zakrzewski, J. Gao, N. Rega, 
 G. Zheng, W. Liang, M. Hada, M. Ehara, K. Toyota, R. Fukuda, 
 J. Hasegawa, M. Ishida, T. Nakajima, Y. Honda, O. Kitao, H. Nakai, 
 T. Vreven, K. Throssell, J. A. Montgomery, Jr., J. E. Peralta, 
 F. Ogliaro, M. J. Bearpark, J. J. Heyd, E. N. Brothers, K. N. Kudin, 
 V. N. Staroverov, T. A. Keith, R. Kobayashi, J. Normand, 
 K. Raghavachari, A. P. Rendell, J. C. Burant, S. S. Iyengar, 
 J. Tomasi, M. Cossi, J. M. Millam, M. Klene, C. Adamo, R. Cammi, 
 J. W. Ochterski, R. L. Martin, K. Morokuma, O. Farkas, 
 J. B. Foresman, and D. J. Fox, Gaussian, Inc., Wallingford CT, 2019.
 
 ******************************************
 Gaussian 16:  ES64L-G16RevC.02  7-Dec-2021
                 2-Jul-2023 
 ******************************************
 %mem=8GB
 %NPROCS=4
 Will use up to    4 processors via shared memory.
 %NoSave
 ---------------------------------------------------------
 #MP2/6-31G* SCF=Tight Opt=(ModRedun, MaxCycle=20 ) NoSymm
 ---------------------------------------------------------
 1/6=20,18=120,19=15,38=1/1,3;
 2/9=110,12=2,15=1,17=6,18=5,40=1/2;
 3/5=1,6=6,7=1,11=9,25=1,30=1,71=1/1,2,3;
 4//1;
 5/5=2,32=2,38=5/2;
 8/6=4,10=2/1;
 9/15=2,16=-3/6;
 10/5=1,31=1/2;
 6/7=2,8=2,9=2,10=2/1;
 7/12=2,30=1/1,2,3,16;
 1/6=20,18=20,19=15/3(2);
 2/9=110,15=1/2;
 99//99;
 2/9=110,15=1/2;
 3/5=1,6=6,7=1,11=9,25=1,30=1,71=1/1,2,3;
 4/5=5,16=3,69=1/1;
 5/5=2,32=2,38=5/2;
 8/6=4,10=2/1;
 9/15=2,16=-3/6;
 10/5=1,31=1/2;
 7/12=2,30=1/1,2,3,16;
 1/6=20,18=20,19=15/3(-8);
 2/9=110,15=1/2;
 6/7=2,8=2,9=2,10=2/1;
 99/9=10/99;
 --------
 MolName:
 --------
 Symbolic Z-matrix:
 Charge =  0 Multiplicity = 1
 8                    0    -3.65218  -1.35095  -0.44206 
 7                    0    -3.24966  -0.20218  -0.26682 
 8                    0    -3.98747   0.78419  -0.27521 
 6                    0    -1.74849   0.00136  -0.03871 
 6                    0    -1.35062   1.30752   0.27048 
 7                    0    -0.07887   1.72671   0.55249 
 6                    0     1.20533   0.97871   0.4377 
 1                    0     1.91005   1.48344   1.14881 
 6                    0     1.88158   1.04083  -0.9547 
 6                    0     3.31051   0.47359  -0.85452 
 6                    0     3.3043   -0.94307  -0.25834 
 6                    0     2.53856  -0.98707   1.08167 
 6                    0     1.08222  -0.4711    0.92128 
 1                    0     0.58995  -0.5148    1.92103 
 7                    0     0.37891  -1.35752  -0.00745 
 6                    0    -0.88237  -1.19487  -0.23884 
 1                    0    -2.1277    2.08729   0.33204 
 1                    0     0.15657   2.72167   0.52306 
 1                    0     1.29219   0.45616  -1.69272 
 1                    0     1.92983   2.092    -1.31016 
 1                    0     3.78315   0.45643  -1.86094 
 1                    0     3.92117   1.13521  -0.20035 
 1                    0     2.82018  -1.63828  -0.98087 
 1                    0     4.34847  -1.29334  -0.106 
 1                    0     2.51748  -2.03361   1.45714 
 1                    0     3.07154  -0.36846   1.83372 
 1                    0    -1.40164  -2.02888  -0.73471 
 
 The following ModRedundant input section has been read:
 D       2       4      16      15 F                                           
 D       1       2       4      16 F                                           
 D       7      13      15      16 F                                           
 D       7       9      10      11 F                                           
 D       9      10      11      12 F                                           
 D       6       7      13      15 F                                           
 

 GradGradGradGradGradGradGradGradGradGradGradGradGradGradGradGradGradGrad
 Berny optimization.
 Initialization pass.
                           ----------------------------
                           !    Initial Parameters    !
                           ! (Angstroms and Degrees)  !
 --------------------------                            --------------------------
 ! Name  Definition              Value          Derivative Info.                !
 --------------------------------------------------------------------------------
 ! R1    R(1,2)                  1.2298         estimate D2E/DX2                !
 ! R2    R(2,3)                  1.2318         estimate D2E/DX2                !
 ! R3    R(2,4)                  1.532          estimate D2E/DX2                !
 ! R4    R(4,5)                  1.4            estimate D2E/DX2                !
 ! R5    R(4,16)                 1.4904         estimate D2E/DX2                !
 ! R6    R(5,6)                  1.3684         estimate D2E/DX2                !
 ! R7    R(5,17)                 1.1026         estimate D2E/DX2                !
 ! R8    R(6,7)                  1.4906         estimate D2E/DX2                !
 ! R9    R(6,18)                 1.0229         estimate D2E/DX2                !
 ! R10   R(7,8)                  1.1212         estimate D2E/DX2                !
 ! R11   R(7,9)                  1.5492         estimate D2E/DX2                !
 ! R12   R(7,13)                 1.5333         estimate D2E/DX2                !
 ! R13   R(9,10)                 1.5407         estimate D2E/DX2                !
 ! R14   R(9,19)                 1.1108         estimate D2E/DX2                !
 ! R15   R(9,20)                 1.1107         estimate D2E/DX2                !
 ! R16   R(10,11)                1.537          estimate D2E/DX2                !
 ! R17   R(10,21)                1.112          estimate D2E/DX2                !
 ! R18   R(10,22)                1.1129         estimate D2E/DX2                !
 ! R19   R(11,12)                1.544          estimate D2E/DX2                !
 ! R20   R(11,23)                1.1134         estimate D2E/DX2                !
 ! R21   R(11,24)                1.1118         estimate D2E/DX2                !
 ! R22   R(12,13)                1.5533         estimate D2E/DX2                !
 ! R23   R(12,25)                1.1121         estimate D2E/DX2                !
 ! R24   R(12,26)                1.1101         estimate D2E/DX2                !
 ! R25   R(13,14)                1.1152         estimate D2E/DX2                !
 ! R26   R(13,15)                1.4639         estimate D2E/DX2                !
 ! R27   R(15,16)                1.2926         estimate D2E/DX2                !
 ! R28   R(16,27)                1.1005         estimate D2E/DX2                !
 ! A1    A(1,2,3)              123.4338         estimate D2E/DX2                !
 ! A2    A(1,2,4)              117.778          estimate D2E/DX2                !
 ! A3    A(3,2,4)              118.7862         estimate D2E/DX2                !
 ! A4    A(2,4,5)              115.8057         estimate D2E/DX2                !
 ! A5    A(2,4,16)             116.2842         estimate D2E/DX2                !
 ! A6    A(5,4,16)             127.8321         estimate D2E/DX2                !
 ! A7    A(4,5,6)              126.5434         estimate D2E/DX2                !
 ! A8    A(4,5,17)             118.1551         estimate D2E/DX2                !
 ! A9    A(6,5,17)             115.2672         estimate D2E/DX2                !
 ! A10   A(5,6,7)              129.1299         estimate D2E/DX2                !
 ! A11   A(5,6,18)             120.3951         estimate D2E/DX2                !
 ! A12   A(7,6,18)             106.7146         estimate D2E/DX2                !
 ! A13   A(6,7,8)              105.4722         estimate D2E/DX2                !
 ! A14   A(6,7,9)              115.1618         estimate D2E/DX2                !
 ! A15   A(6,7,13)             112.3977         estimate D2E/DX2                !
 ! A16   A(8,7,9)              106.1191         estimate D2E/DX2                !
 ! A17   A(8,7,13)             106.0276         estimate D2E/DX2                !
 ! A18   A(9,7,13)             110.8815         estimate D2E/DX2                !
 ! A19   A(7,9,10)             109.3694         estimate D2E/DX2                !
 ! A20   A(7,9,19)             110.1476         estimate D2E/DX2                !
 ! A21   A(7,9,20)             110.1549         estimate D2E/DX2                !
 ! A22   A(10,9,19)            109.97           estimate D2E/DX2                !
 ! A23   A(10,9,20)            109.2061         estimate D2E/DX2                !
 ! A24   A(19,9,20)            107.9724         estimate D2E/DX2                !
 ! A25   A(9,10,11)            111.1509         estimate D2E/DX2                !
 ! A26   A(9,10,21)            109.9403         estimate D2E/DX2                !
 ! A27   A(9,10,22)            109.1626         estimate D2E/DX2                !
 ! A28   A(11,10,21)           109.7883         estimate D2E/DX2                !
 ! A29   A(11,10,22)           108.7938         estimate D2E/DX2                !
 ! A30   A(21,10,22)           107.9352         estimate D2E/DX2                !
 ! A31   A(10,11,12)           111.4019         estimate D2E/DX2                !
 ! A32   A(10,11,23)           108.9986         estimate D2E/DX2                !
 ! A33   A(10,11,24)           109.8599         estimate D2E/DX2                !
 ! A34   A(12,11,23)           109.254          estimate D2E/DX2                !
 ! A35   A(12,11,24)           109.7472         estimate D2E/DX2                !
 ! A36   A(23,11,24)           107.4903         estimate D2E/DX2                !
 ! A37   A(11,12,13)           111.4628         estimate D2E/DX2                !
 ! A38   A(11,12,25)           109.2232         estimate D2E/DX2                !
 ! A39   A(11,12,26)           109.5096         estimate D2E/DX2                !
 ! A40   A(13,12,25)           109.2499         estimate D2E/DX2                !
 ! A41   A(13,12,26)           109.5716         estimate D2E/DX2                !
 ! A42   A(25,12,26)           107.7456         estimate D2E/DX2                !
 ! A43   A(7,13,12)            105.7459         estimate D2E/DX2                !
 ! A44   A(7,13,14)            110.8071         estimate D2E/DX2                !
 ! A45   A(7,13,15)            114.2707         estimate D2E/DX2                !
 ! A46   A(12,13,14)           107.9546         estimate D2E/DX2                !
 ! A47   A(12,13,15)           108.3495         estimate D2E/DX2                !
 ! A48   A(14,13,15)           109.4473         estimate D2E/DX2                !
 ! A49   A(13,15,16)           120.4096         estimate D2E/DX2                !
 ! A50   A(4,16,15)            130.0925         estimate D2E/DX2                !
 ! A51   A(4,16,27)            113.2393         estimate D2E/DX2                !
 ! A52   A(15,16,27)           116.469          estimate D2E/DX2                !
 ! D1    D(1,2,4,5)           -174.6984         estimate D2E/DX2                !
 ! D2    D(1,2,4,16)             8.2584         Frozen                          !
 ! D3    D(3,2,4,5)              5.8005         estimate D2E/DX2                !
 ! D4    D(3,2,4,16)          -171.2427         estimate D2E/DX2                !
 ! D5    D(2,4,5,6)            177.9829         estimate D2E/DX2                !
 ! D6    D(2,4,5,17)             0.2194         estimate D2E/DX2                !
 ! D7    D(16,4,5,6)            -5.3742         estimate D2E/DX2                !
 ! D8    D(16,4,5,17)          176.8623         estimate D2E/DX2                !
 ! D9    D(2,4,16,15)         -173.0623         Frozen                          !
 ! D10   D(2,4,16,27)           12.3283         estimate D2E/DX2                !
 ! D11   D(5,4,16,15)           10.3086         estimate D2E/DX2                !
 ! D12   D(5,4,16,27)         -164.3008         estimate D2E/DX2                !
 ! D13   D(4,5,6,7)              8.6588         estimate D2E/DX2                !
 ! D14   D(4,5,6,18)           163.7594         estimate D2E/DX2                !
 ! D15   D(17,5,6,7)          -173.5216         estimate D2E/DX2                !
 ! D16   D(17,5,6,18)          -18.421          estimate D2E/DX2                !
 ! D17   D(5,6,7,8)           -156.27           estimate D2E/DX2                !
 ! D18   D(5,6,7,9)             87.0951         estimate D2E/DX2                !
 ! D19   D(5,6,7,13)           -41.1868         estimate D2E/DX2                !
 ! D20   D(18,6,7,8)            46.0128         estimate D2E/DX2                !
 ! D21   D(18,6,7,9)           -70.6221         estimate D2E/DX2                !
 ! D22   D(18,6,7,13)          161.096          estimate D2E/DX2                !
 ! D23   D(6,7,9,10)           168.8616         estimate D2E/DX2                !
 ! D24   D(6,7,9,19)           -70.1679         estimate D2E/DX2                !
 ! D25   D(6,7,9,20)            48.8296         estimate D2E/DX2                !
 ! D26   D(8,7,9,10)            52.5945         estimate D2E/DX2                !
 ! D27   D(8,7,9,19)           173.565          estimate D2E/DX2                !
 ! D28   D(8,7,9,20)           -67.4375         estimate D2E/DX2                !
 ! D29   D(13,7,9,10)          -62.1045         estimate D2E/DX2                !
 ! D30   D(13,7,9,19)           58.866          estimate D2E/DX2                !
 ! D31   D(13,7,9,20)          177.8635         estimate D2E/DX2                !
 ! D32   D(6,7,13,12)         -165.9039         estimate D2E/DX2                !
 ! D33   D(6,7,13,14)          -49.1749         estimate D2E/DX2                !
 ! D34   D(6,7,13,15)           75.0226         Frozen                          !
 ! D35   D(8,7,13,12)          -51.1578         estimate D2E/DX2                !
 ! D36   D(8,7,13,14)           65.5711         estimate D2E/DX2                !
 ! D37   D(8,7,13,15)         -170.2314         estimate D2E/DX2                !
 ! D38   D(9,7,13,12)           63.5985         estimate D2E/DX2                !
 ! D39   D(9,7,13,14)         -179.6726         estimate D2E/DX2                !
 ! D40   D(9,7,13,15)          -55.4751         estimate D2E/DX2                !
 ! D41   D(7,9,10,11)           54.8119         Frozen                          !
 ! D42   D(7,9,10,21)          176.5819         estimate D2E/DX2                !
 ! D43   D(7,9,10,22)          -65.1975         estimate D2E/DX2                !
 ! D44   D(19,9,10,11)         -66.2664         estimate D2E/DX2                !
 ! D45   D(19,9,10,21)          55.5035         estimate D2E/DX2                !
 ! D46   D(19,9,10,22)         173.7242         estimate D2E/DX2                !
 ! D47   D(20,9,10,11)         175.4241         estimate D2E/DX2                !
 ! D48   D(20,9,10,21)         -62.8059         estimate D2E/DX2                !
 ! D49   D(20,9,10,22)          55.4147         estimate D2E/DX2                !
 ! D50   D(9,10,11,12)         -52.8219         Frozen                          !
 ! D51   D(9,10,11,23)          67.8105         estimate D2E/DX2                !
 ! D52   D(9,10,11,24)        -174.6525         estimate D2E/DX2                !
 ! D53   D(21,10,11,12)       -174.6803         estimate D2E/DX2                !
 ! D54   D(21,10,11,23)        -54.0479         estimate D2E/DX2                !
 ! D55   D(21,10,11,24)         63.4891         estimate D2E/DX2                !
 ! D56   D(22,10,11,12)         67.4062         estimate D2E/DX2                !
 ! D57   D(22,10,11,23)       -171.9614         estimate D2E/DX2                !
 ! D58   D(22,10,11,24)        -54.4244         estimate D2E/DX2                !
 ! D59   D(10,11,12,13)         56.6824         estimate D2E/DX2                !
 ! D60   D(10,11,12,25)        177.4971         estimate D2E/DX2                !
 ! D61   D(10,11,12,26)        -64.7283         estimate D2E/DX2                !
 ! D62   D(23,11,12,13)        -63.8            estimate D2E/DX2                !
 ! D63   D(23,11,12,25)         57.0148         estimate D2E/DX2                !
 ! D64   D(23,11,12,26)        174.7893         estimate D2E/DX2                !
 ! D65   D(24,11,12,13)        178.5783         estimate D2E/DX2                !
 ! D66   D(24,11,12,25)        -60.607          estimate D2E/DX2                !
 ! D67   D(24,11,12,26)         57.1676         estimate D2E/DX2                !
 ! D68   D(11,12,13,7)         -60.5953         estimate D2E/DX2                !
 ! D69   D(11,12,13,14)       -179.2371         estimate D2E/DX2                !
 ! D70   D(11,12,13,15)         62.3248         estimate D2E/DX2                !
 ! D71   D(25,12,13,7)         178.6055         estimate D2E/DX2                !
 ! D72   D(25,12,13,14)         59.9638         estimate D2E/DX2                !
 ! D73   D(25,12,13,15)        -58.4743         estimate D2E/DX2                !
 ! D74   D(26,12,13,7)          60.7793         estimate D2E/DX2                !
 ! D75   D(26,12,13,14)        -57.8624         estimate D2E/DX2                !
 ! D76   D(26,12,13,15)       -176.3006         estimate D2E/DX2                !
 ! D77   D(7,13,15,16)         -67.1612         Frozen                          !
 ! D78   D(12,13,15,16)        175.2461         estimate D2E/DX2                !
 ! D79   D(14,13,15,16)         57.7598         estimate D2E/DX2                !
 ! D80   D(13,15,16,4)          20.4954         estimate D2E/DX2                !
 ! D81   D(13,15,16,27)       -165.0383         estimate D2E/DX2                !
 --------------------------------------------------------------------------------
 Trust Radius=3.00D-01 FncErr=1.00D-07 GrdErr=1.00D-07 EigMax=2.50D+02 EigMin=1.00D-04
 Number of steps in this run=     20 maximum allowed number of steps=    162.
 GradGradGradGradGradGradGradGradGradGradGradGradGradGradGradGradGradGrad

                          Input orientation:                          
 ---------------------------------------------------------------------
 Center     Atomic      Atomic             Coordinates (Angstroms)
 Number     Number       Type             X           Y           Z
 ---------------------------------------------------------------------
      1          8           0       -3.652180   -1.350950   -0.442060
      2          7           0       -3.249660   -0.202180   -0.266820
      3          8           0       -3.987470    0.784190   -0.275210
      4          6           0       -1.748490    0.001360   -0.038710
      5          6           0       -1.350620    1.307520    0.270480
      6          7           0       -0.078870    1.726710    0.552490
      7          6           0        1.205330    0.978710    0.437700
      8          1           0        1.910050    1.483440    1.148810
      9          6           0        1.881580    1.040830   -0.954700
     10          6           0        3.310510    0.473590   -0.854520
     11          6           0        3.304300   -0.943070   -0.258340
     12          6           0        2.538560   -0.987070    1.081670
     13          6           0        1.082220   -0.471100    0.921280
     14          1           0        0.589950   -0.514800    1.921030
     15          7           0        0.378910   -1.357520   -0.007450
     16          6           0       -0.882370   -1.194870   -0.238840
     17          1           0       -2.127700    2.087290    0.332040
     18          1           0        0.156570    2.721670    0.523060
     19          1           0        1.292190    0.456160   -1.692720
     20          1           0        1.929830    2.092000   -1.310160
     21          1           0        3.783150    0.456430   -1.860940
     22          1           0        3.921170    1.135210   -0.200350
     23          1           0        2.820180   -1.638280   -0.980870
     24          1           0        4.348470   -1.293340   -0.106000
     25          1           0        2.517480   -2.033610    1.457140
     26          1           0        3.071540   -0.368460    1.833720
     27          1           0       -1.401640   -2.028880   -0.734710
 ---------------------------------------------------------------------
                    Distance matrix (angstroms):
                    1          2          3          4          5
     1  O    0.000000
     2  N    1.229798   0.000000
     3  O    2.167736   1.231812   0.000000
     4  C    2.369698   1.531984   2.383650   0.000000
     5  C    3.587806   2.484801   2.743106   1.399983   0.000000
     6  N    4.819716   3.800762   4.104946   2.472647   1.368429
     7  C    5.458635   4.662380   5.245117   3.147576   2.582433
     8  H    6.442285   5.609628   6.107170   4.122097   3.381476
     9  C    6.050282   5.324272   5.913824   3.885479   3.466887
    10  C    7.209585   6.621019   7.327522   5.146069   4.866949
    11  C    6.970849   6.595709   7.493572   5.144985   5.197411
    12  C    6.385877   5.994828   6.896923   4.539939   4.587907
    13  C    5.004735   4.499898   5.358087   3.026172   3.083138
    14  H    4.927373   4.430240   5.240574   3.094399   3.132248
    15  N    4.054456   3.816884   4.870718   2.524552   3.189194
    16  C    2.781637   2.567154   3.682343   1.490363   2.596271
    17  H    3.839891   2.618988   2.350652   2.152292   1.102581
    18  H    5.658999   4.557983   4.643720   3.368223   2.082124
    19  H    5.410785   4.805726   5.476472   3.491178   3.400502
    20  H    6.615613   5.760116   6.147839   4.417850   3.724941
    21  H    7.782286   7.241229   7.937537   5.841802   5.623424
    22  H    7.974650   7.294781   7.916780   5.784184   5.295578
    23  H    6.501101   6.278153   7.260194   4.944576   5.257298
    24  H    8.007912   7.677765   8.592593   6.233273   6.275814
    25  H    6.491355   6.291747   7.297630   4.957537   5.247238
    26  H    7.166092   6.663144   7.456930   5.184154   4.980776
    27  H    2.368578   2.640252   3.848509   2.174073   3.484907
                    6          7          8          9         10
     6  N    0.000000
     7  C    1.490587   0.000000
     8  H    2.090593   1.121187   0.000000
     9  C    2.566207   1.549177   2.149760   0.000000
    10  C    3.877871   2.521262   2.644696   1.540662   0.000000
    11  C    4.385318   2.929741   3.132404   2.538682   1.537008
    12  C    3.807305   2.460994   2.550089   2.948017   2.545244
    13  C    2.512868   1.533282   2.134783   2.538545   3.001863
    14  H    2.710090   2.193065   2.516337   3.515411   4.010242
    15  N    3.167897   2.517757   3.428175   2.984524   3.558760
    16  C    3.131684   3.088794   4.110538   3.626325   4.554455
    17  H    2.091966   3.514143   4.163553   4.338791   5.795350
    18  H    1.022860   2.035950   2.235949   2.825714   4.110831
    19  H    2.921484   2.195289   3.084047   1.110807   2.185520
    20  H    2.763653   2.195297   2.533233   1.110693   2.175577
    21  H    4.727944   3.493090   3.690779   2.186038   1.112009
    22  H    4.113023   2.794170   2.446651   2.176667   1.112917
    23  H    4.698813   3.386550   3.887031   2.838888   2.171723
    24  H    5.399597   3.916267   3.902685   3.500598   2.181670
    25  H    4.658265   3.440213   3.582412   3.958980   3.501246
    26  H    3.994543   2.691928   2.290785   3.343260   2.827152
    27  H    4.184622   4.149269   5.181827   4.500117   5.336766
                   11         12         13         14         15
    11  C    0.000000
    12  C    1.543995   0.000000
    13  C    2.559668   1.553344   0.000000
    14  H    3.507245   2.173625   1.115231   0.000000
    15  N    2.965235   2.446938   1.463873   2.115124   0.000000
    16  C    4.194281   3.672831   2.393603   2.700974   1.292603
    17  H    6.248060   5.638051   4.146824   4.084285   4.273765
    18  H    4.893783   4.443048   3.348012   3.552024   4.119547
    19  H    2.839697   3.366540   2.781527   3.807242   2.638873
    20  H    3.493872   3.946147   3.502463   4.362485   4.000199
    21  H    2.180877   3.505945   3.986989   5.044116   4.279567
    22  H    2.168672   2.838883   3.449337   4.280165   4.335726
    23  H    1.113436   2.181159   2.828602   3.828467   2.643137
    24  H    1.111840   2.186352   3.521331   4.340674   3.971302
    25  H    2.179733   1.112056   2.188277   2.497469   2.678732
    26  H    2.181987   1.110101   2.190999   2.487434   3.408578
    27  H    4.853018   4.462038   3.367275   3.648537   2.037152
                   16         17         18         19         20
    16  C    0.000000
    17  H    3.556589   0.000000
    18  H    4.123005   2.378406   0.000000
    19  H    3.093280   4.296031   3.366281   0.000000
    20  H    4.456423   4.377259   2.627096   1.796917   0.000000
    21  H    5.208174   6.512067   4.895595   2.496634   2.532438
    22  H    5.338984   6.146440   4.148782   3.098356   2.472359
    23  H    3.802117   6.331281   5.325954   2.688524   3.849174
    24  H    5.233453   7.318560   5.838497   3.862548   4.331322
    25  H    3.890863   6.310734   5.390648   4.197846   5.002393
    26  H    4.540029   5.942882   4.445648   4.035079   4.152270
    27  H    1.100500   4.313696   5.155359   3.788130   5.330243
                   21         22         23         24         25
    21  H    0.000000
    22  H    1.799264   0.000000
    23  H    2.467720   3.084418   0.000000
    24  H    2.541869   2.467659   1.794450   0.000000
    25  H    4.337266   3.841749   2.488334   2.518716   0.000000
    26  H    3.851927   2.668396   3.097990   2.499693   1.794859
    27  H    5.858942   6.215248   4.246990   5.830957   4.490404
                   26         27
    26  H    0.000000
    27  H    5.418779   0.000000
 Symmetry turned off by external request.
 Stoichiometry    C9H13N3O2
 Framework group  C1[X(C9H13N3O2)]
 Deg. of freedom    75
 Full point group                 C1      NOp   1
 Rotational constants (GHZ):           1.6411294           0.4001465           0.3569865
 Standard basis: 6-31G(d) (6D, 7F)
   236 basis functions,   444 primitive gaussians,   236 cartesian basis functions
    52 alpha electrons       52 beta electrons
       nuclear repulsion energy       916.9226727381 Hartrees.
 NAtoms=   27 NActive=   27 NUniq=   27 SFac= 1.00D+00 NAtFMM=   60 NAOKFM=F Big=F
 Integral buffers will be    131072 words long.
 Raffenetti 1 integral format.
 Two-electron integral symmetry is turned off.
 One-electron integrals computed using PRISM.
 NBasis=   236 RedAO= T EigKep=  1.26D-03  NBF=   236
 NBsUse=   236 1.00D-06 EigRej= -1.00D+00 NBFU=   236
 ExpMin= 1.61D-01 ExpMax= 5.48D+03 ExpMxC= 8.25D+02 IAcc=3 IRadAn=         5 AccDes= 0.00D+00
 Harris functional with IExCor=  205 and IRadAn=       5 diagonalized for initial guess.
 HarFok:  IExCor=  205 AccDes= 0.00D+00 IRadAn=         5 IDoV= 1 UseB2=F ITyADJ=14
 ICtDFT=  3500011 ScaDFX=  1.000000  1.000000  1.000000  1.000000
 FoFCou: FMM=F IPFlag=           0 FMFlag=      100000 FMFlg1=           0
         NFxFlg=           0 DoJE=T BraDBF=F KetDBF=T FulRan=T
         wScrn=  0.000000 ICntrl=       500 IOpCl=  0 I1Cent=   200000004 NGrid=           0
         NMat0=    1 NMatS0=      1 NMatT0=    0 NMatD0=    1 NMtDS0=    0 NMtDT0=    0
 Symmetry not used in FoFCou.
 Keep R1 ints in memory in canonical form, NReq=397720213.
 Requested convergence on RMS density matrix=1.00D-08 within 128 cycles.
 Requested convergence on MAX density matrix=1.00D-06.
 Requested convergence on             energy=1.00D-06.
 No special actions if energy rises.
 SCF Done:  E(RHF) =  -661.280738599     A.U. after   16 cycles
            NFock= 16  Conv=0.66D-08     -V/T= 2.0037
 ExpMin= 1.61D-01 ExpMax= 5.48D+03 ExpMxC= 8.25D+02 IAcc=3 IRadAn=         5 AccDes= 0.00D+00
 HarFok:  IExCor=  205 AccDes= 0.00D+00 IRadAn=         5 IDoV=-2 UseB2=F ITyADJ=14
 ICtDFT= 12500011 ScaDFX=  1.000000  1.000000  1.000000  1.000000
 Range of M.O.s used for correlation:    15   236
 NBasis=   236 NAE=    52 NBE=    52 NFC=    14 NFV=     0
 NROrb=    222 NOA=    38 NOB=    38 NVA=   184 NVB=   184
 Fully direct method using O(ONN) memory.
 JobTyp=1 Pass  1:  I=  15 to  52 NPSUse=  4 ParTrn=T ParDer=T DoDerP=T.
 Spin components of T(2) and E(2):
     alpha-alpha T2 =       0.9207766255D-01 E2=     -0.2718820540D+00
     alpha-beta  T2 =       0.4994678561D+00 E2=     -0.1493513165D+01
     beta-beta   T2 =       0.9207766255D-01 E2=     -0.2718820540D+00
 ANorm=    0.1297545059D+01
 E2 =    -0.2037277273D+01 EUMP2 =    -0.66331801587159D+03
          IDoAtm=111111111111111111111111111
          Differentiating once with respect to electric field.
                with respect to dipole field.
          Differentiating once with respect to nuclear coordinates.
 Keep R1 ints in memory in canonical form, NReq=397723379.
          There are     1 degrees of freedom in the 1st order CPHF.  IDoFFX=0 NUNeed=     1.
 LinEq1:  Iter=  0 NonCon=     1 RMS=4.65D-03 Max=1.23D-01 NDo=     1
 AX will form     1 AO Fock derivatives at one time.
 LinEq1:  Iter=  1 NonCon=     1 RMS=1.58D-03 Max=3.72D-02 NDo=     1
 LinEq1:  Iter=  2 NonCon=     1 RMS=6.50D-04 Max=2.00D-02 NDo=     1
 LinEq1:  Iter=  3 NonCon=     1 RMS=2.96D-04 Max=9.46D-03 NDo=     1
 LinEq1:  Iter=  4 NonCon=     1 RMS=9.26D-05 Max=2.40D-03 NDo=     1
 LinEq1:  Iter=  5 NonCon=     1 RMS=3.82D-05 Max=1.82D-03 NDo=     1
 LinEq1:  Iter=  6 NonCon=     1 RMS=1.57D-05 Max=5.67D-04 NDo=     1
 LinEq1:  Iter=  7 NonCon=     1 RMS=5.98D-06 Max=8.00D-05 NDo=     1
 LinEq1:  Iter=  8 NonCon=     1 RMS=2.37D-06 Max=5.13D-05 NDo=     1
 LinEq1:  Iter=  9 NonCon=     1 RMS=8.73D-07 Max=2.46D-05 NDo=     1
 LinEq1:  Iter= 10 NonCon=     1 RMS=4.19D-07 Max=1.38D-05 NDo=     1
 LinEq1:  Iter= 11 NonCon=     1 RMS=1.55D-07 Max=5.63D-06 NDo=     1
 LinEq1:  Iter= 12 NonCon=     1 RMS=5.47D-08 Max=8.44D-07 NDo=     1
 LinEq1:  Iter= 13 NonCon=     1 RMS=1.71D-08 Max=3.04D-07 NDo=     1
 LinEq1:  Iter= 14 NonCon=     1 RMS=5.24D-09 Max=1.14D-07 NDo=     1
 LinEq1:  Iter= 15 NonCon=     1 RMS=1.90D-09 Max=5.18D-08 NDo=     1
 LinEq1:  Iter= 16 NonCon=     1 RMS=7.11D-10 Max=1.22D-08 NDo=     1
 LinEq1:  Iter= 17 NonCon=     1 RMS=2.42D-10 Max=4.32D-09 NDo=     1
 LinEq1:  Iter= 18 NonCon=     1 RMS=8.62D-11 Max=1.34D-09 NDo=     1
 LinEq1:  Iter= 19 NonCon=     0 RMS=3.03D-11 Max=6.71D-10 NDo=     1
 Linear equations converged to 1.000D-10 1.000D-09 after    19 iterations.
 End of Minotr F.D. properties file   721 does not exist.
 End of Minotr F.D. properties file   722 does not exist.
 End of Minotr F.D. properties file   788 does not exist.

 **********************************************************************

            Population analysis using the SCF Density.

 **********************************************************************

 Alpha  occ. eigenvalues --  -20.59776 -20.59403 -15.85296 -15.63795 -15.56276
 Alpha  occ. eigenvalues --  -11.36018 -11.30454 -11.30151 -11.30055 -11.27572
 Alpha  occ. eigenvalues --  -11.24663 -11.23902 -11.23314 -11.22847  -1.58469
 Alpha  occ. eigenvalues --   -1.37946  -1.28931  -1.22507  -1.13295  -1.08401
 Alpha  occ. eigenvalues --   -1.01757  -1.00736  -0.93700  -0.88912  -0.84932
 Alpha  occ. eigenvalues --   -0.81520  -0.77999  -0.77042  -0.74429  -0.71220
 Alpha  occ. eigenvalues --   -0.70265  -0.69803  -0.67364  -0.64134  -0.63259
 Alpha  occ. eigenvalues --   -0.61835  -0.59945  -0.57438  -0.56531  -0.54829
 Alpha  occ. eigenvalues --   -0.54030  -0.50564  -0.49760  -0.48565  -0.47865
 Alpha  occ. eigenvalues --   -0.47732  -0.46327  -0.45496  -0.44035  -0.42156
 Alpha  occ. eigenvalues --   -0.39275  -0.33590
 Alpha virt. eigenvalues --    0.07409   0.11635   0.17480   0.21549   0.23723
 Alpha virt. eigenvalues --    0.24920   0.26141   0.27993   0.28580   0.28880
 Alpha virt. eigenvalues --    0.29724   0.31399   0.31794   0.32378   0.33214
 Alpha virt. eigenvalues --    0.33886   0.34519   0.35567   0.37701   0.38661
 Alpha virt. eigenvalues --    0.40426   0.41244   0.43861   0.45205   0.45396
 Alpha virt. eigenvalues --    0.46800   0.49841   0.53327   0.57589   0.59086
 Alpha virt. eigenvalues --    0.63366   0.68616   0.69333   0.72380   0.74103
 Alpha virt. eigenvalues --    0.74837   0.75623   0.75829   0.78197   0.78746
 Alpha virt. eigenvalues --    0.80751   0.82960   0.84667   0.85184   0.87853
 Alpha virt. eigenvalues --    0.88702   0.90649   0.91304   0.92207   0.93794
 Alpha virt. eigenvalues --    0.95015   0.97334   0.99364   1.00736   1.01971
 Alpha virt. eigenvalues --    1.02936   1.04983   1.06321   1.07159   1.08690
 Alpha virt. eigenvalues --    1.09768   1.10575   1.11803   1.12522   1.13203
 Alpha virt. eigenvalues --    1.13616   1.14213   1.15639   1.15949   1.16778
 Alpha virt. eigenvalues --    1.18064   1.20583   1.21629   1.22022   1.23183
 Alpha virt. eigenvalues --    1.23803   1.24372   1.25582   1.26980   1.27929
 Alpha virt. eigenvalues --    1.29073   1.31538   1.33890   1.36643   1.39045
 Alpha virt. eigenvalues --    1.42546   1.47863   1.49890   1.52307   1.52661
 Alpha virt. eigenvalues --    1.55409   1.58552   1.59559   1.62298   1.65890
 Alpha virt. eigenvalues --    1.67657   1.69814   1.71720   1.73109   1.76627
 Alpha virt. eigenvalues --    1.78591   1.81831   1.84217   1.88101   1.91333
 Alpha virt. eigenvalues --    1.93787   1.96028   1.97760   1.99595   2.01068
 Alpha virt. eigenvalues --    2.02771   2.03518   2.05825   2.09412   2.11761
 Alpha virt. eigenvalues --    2.12065   2.13328   2.17318   2.18247   2.19950
 Alpha virt. eigenvalues --    2.20247   2.22122   2.23705   2.24815   2.25831
 Alpha virt. eigenvalues --    2.29232   2.31840   2.32869   2.35174   2.36560
 Alpha virt. eigenvalues --    2.39820   2.40770   2.42319   2.44544   2.45907
 Alpha virt. eigenvalues --    2.48690   2.50319   2.50642   2.56441   2.57025
 Alpha virt. eigenvalues --    2.60452   2.64647   2.64799   2.68086   2.68403
 Alpha virt. eigenvalues --    2.69181   2.69908   2.74318   2.75554   2.81200
 Alpha virt. eigenvalues --    2.84831   2.86867   2.89885   2.91275   2.94471
 Alpha virt. eigenvalues --    2.97706   2.98246   3.02290   3.05413   3.06360
 Alpha virt. eigenvalues --    3.07466   3.14272   3.18456   3.22941   3.27229
 Alpha virt. eigenvalues --    3.31810   3.33023   3.38081   3.42743   3.60875
 Alpha virt. eigenvalues --    4.10618   4.23344   4.32201   4.36995   4.44219
 Alpha virt. eigenvalues --    4.52291   4.59362   4.60200   4.70773   4.78178
 Alpha virt. eigenvalues --    4.97123   4.99228   5.04011   5.09339
          Condensed to atoms (all electrons):
               1          2          3          4          5          6
     1  O    8.302080   0.310488  -0.090358  -0.077730   0.003575  -0.000011
     2  N    0.310488   5.678139   0.311887   0.265119  -0.048586   0.000739
     3  O   -0.090358   0.311887   8.330146  -0.088243   0.008090   0.000490
     4  C   -0.077730   0.265119  -0.088243   5.254739   0.565187  -0.049222
     5  C    0.003575  -0.048586   0.008090   0.565187   4.680729   0.312897
     6  N   -0.000011   0.000739   0.000490  -0.049222   0.312897   7.164323
     7  C    0.000002  -0.000095   0.000002   0.005793  -0.029125   0.202577
     8  H   -0.000000   0.000001  -0.000000  -0.000261   0.002792  -0.046838
     9  C    0.000000  -0.000004  -0.000000   0.000667   0.000905  -0.058096
    10  C   -0.000000   0.000000   0.000000  -0.000026  -0.000042   0.003366
    11  C   -0.000000  -0.000000  -0.000000  -0.000010   0.000012  -0.000152
    12  C   -0.000000   0.000001  -0.000000  -0.000225  -0.000152   0.003790
    13  C   -0.000011   0.000009  -0.000001  -0.008455  -0.000215  -0.049490
    14  H   -0.000000  -0.000039   0.000000   0.002077   0.003431  -0.005270
    15  N    0.000389   0.001500  -0.000010  -0.061933  -0.004448   0.002077
    16  C    0.001804  -0.022696   0.002068   0.312234  -0.043705   0.000335
    17  H    0.000148  -0.004527   0.012864  -0.023920   0.374548  -0.032132
    18  H    0.000000  -0.000033   0.000008   0.001389  -0.026053   0.330849
    19  H    0.000000  -0.000003   0.000000  -0.000998   0.001106  -0.000004
    20  H    0.000000  -0.000000   0.000000  -0.000037  -0.000004  -0.000861
    21  H   -0.000000  -0.000000  -0.000000   0.000001   0.000001  -0.000062
    22  H   -0.000000   0.000000  -0.000000  -0.000000  -0.000002  -0.000094
    23  H    0.000000  -0.000000   0.000000   0.000025  -0.000000  -0.000024
    24  H    0.000000   0.000000   0.000000   0.000000  -0.000000   0.000005
    25  H    0.000000  -0.000000   0.000000   0.000022  -0.000001  -0.000074
    26  H    0.000000  -0.000000   0.000000   0.000004  -0.000001  -0.000073
    27  H    0.006592  -0.000096   0.000051  -0.067705   0.001954  -0.000005
               7          8          9         10         11         12
     1  O    0.000002  -0.000000   0.000000  -0.000000  -0.000000  -0.000000
     2  N   -0.000095   0.000001  -0.000004   0.000000  -0.000000   0.000001
     3  O    0.000002  -0.000000  -0.000000   0.000000  -0.000000  -0.000000
     4  C    0.005793  -0.000261   0.000667  -0.000026  -0.000010  -0.000225
     5  C   -0.029125   0.002792   0.000905  -0.000042   0.000012  -0.000152
     6  N    0.202577  -0.046838  -0.058096   0.003366  -0.000152   0.003790
     7  C    5.035358   0.414256   0.342297  -0.049316  -0.008022  -0.065160
     8  H    0.414256   0.544042  -0.058283   0.000926  -0.000234  -0.003184
     9  C    0.342297  -0.058283   5.176072   0.319303  -0.053503  -0.005614
    10  C   -0.049316   0.000926   0.319303   5.126560   0.332661  -0.060654
    11  C   -0.008022  -0.000234  -0.053503   0.332661   5.124836   0.330470
    12  C   -0.065160  -0.003184  -0.005614  -0.060654   0.330470   5.140150
    13  C    0.319607  -0.038209  -0.053967  -0.001088  -0.047398   0.368808
    14  H   -0.041562  -0.000906   0.003818  -0.000387   0.003967  -0.041054
    15  N   -0.061848   0.004016  -0.012138   0.001306  -0.007503  -0.075475
    16  C   -0.001001  -0.000102  -0.000277  -0.000072  -0.000002   0.002230
    17  H    0.001424  -0.000040  -0.000057   0.000001  -0.000000   0.000001
    18  H   -0.029790  -0.003806   0.001037  -0.000117   0.000011  -0.000152
    19  H   -0.035164   0.003993   0.387759  -0.033128  -0.002144   0.000552
    20  H   -0.041961  -0.001807   0.397100  -0.037055   0.004126  -0.000379
    21  H    0.004079  -0.000072  -0.035909   0.400097  -0.035782   0.004233
    22  H   -0.004439   0.003530  -0.045615   0.395836  -0.045554  -0.001222
    23  H    0.000485   0.000034  -0.002019  -0.040171   0.396606  -0.036641
    24  H   -0.000144  -0.000104   0.004406  -0.038483   0.400358  -0.037792
    25  H    0.005137  -0.000013  -0.000382   0.004105  -0.033705   0.394865
    26  H   -0.004413   0.001476   0.001092  -0.002434  -0.042471   0.394253
    27  H   -0.000392   0.000008  -0.000047   0.000003   0.000006  -0.000021
              13         14         15         16         17         18
     1  O   -0.000011  -0.000000   0.000389   0.001804   0.000148   0.000000
     2  N    0.000009  -0.000039   0.001500  -0.022696  -0.004527  -0.000033
     3  O   -0.000001   0.000000  -0.000010   0.002068   0.012864   0.000008
     4  C   -0.008455   0.002077  -0.061933   0.312234  -0.023920   0.001389
     5  C   -0.000215   0.003431  -0.004448  -0.043705   0.374548  -0.026053
     6  N   -0.049490  -0.005270   0.002077   0.000335  -0.032132   0.330849
     7  C    0.319607  -0.041562  -0.061848  -0.001001   0.001424  -0.029790
     8  H   -0.038209  -0.000906   0.004016  -0.000102  -0.000040  -0.003806
     9  C   -0.053967   0.003818  -0.012138  -0.000277  -0.000057   0.001037
    10  C   -0.001088  -0.000387   0.001306  -0.000072   0.000001  -0.000117
    11  C   -0.047398   0.003967  -0.007503  -0.000002  -0.000000   0.000011
    12  C    0.368808  -0.041054  -0.075475   0.002230   0.000001  -0.000152
    13  C    5.018427   0.406813   0.246432  -0.067368  -0.000065   0.003953
    14  H    0.406813   0.517728  -0.034750  -0.006256   0.000021  -0.000004
    15  N    0.246432  -0.034750   6.956402   0.584361  -0.000049  -0.000122
    16  C   -0.067368  -0.006256   0.584361   4.703448   0.001477  -0.000183
    17  H   -0.000065   0.000021  -0.000049   0.001477   0.380515  -0.002421
    18  H    0.003953  -0.000004  -0.000122  -0.000183  -0.002421   0.325830
    19  H   -0.005940   0.000061   0.006687   0.002064   0.000009  -0.000133
    20  H    0.003928  -0.000052   0.000087  -0.000038  -0.000008   0.002296
    21  H   -0.000404   0.000009  -0.000034   0.000003  -0.000000   0.000000
    22  H    0.000316  -0.000042   0.000007  -0.000001   0.000000   0.000002
    23  H   -0.006021   0.000005   0.006841   0.000097   0.000000   0.000000
    24  H    0.004160  -0.000060   0.000022   0.000005   0.000000  -0.000000
    25  H   -0.034296  -0.002707   0.001265  -0.000061  -0.000000   0.000003
    26  H   -0.045110  -0.000895   0.004241  -0.000031   0.000000  -0.000001
    27  H    0.004748  -0.000151  -0.040714   0.404086  -0.000063   0.000001
              19         20         21         22         23         24
     1  O    0.000000   0.000000  -0.000000  -0.000000   0.000000   0.000000
     2  N   -0.000003  -0.000000  -0.000000   0.000000  -0.000000   0.000000
     3  O    0.000000   0.000000  -0.000000  -0.000000   0.000000   0.000000
     4  C   -0.000998  -0.000037   0.000001  -0.000000   0.000025   0.000000
     5  C    0.001106  -0.000004   0.000001  -0.000002  -0.000000  -0.000000
     6  N   -0.000004  -0.000861  -0.000062  -0.000094  -0.000024   0.000005
     7  C   -0.035164  -0.041961   0.004079  -0.004439   0.000485  -0.000144
     8  H    0.003993  -0.001807  -0.000072   0.003530   0.000034  -0.000104
     9  C    0.387759   0.397100  -0.035909  -0.045615  -0.002019   0.004406
    10  C   -0.033128  -0.037055   0.400097   0.395836  -0.040171  -0.038483
    11  C   -0.002144   0.004126  -0.035782  -0.045554   0.396606   0.400358
    12  C    0.000552  -0.000379   0.004233  -0.001222  -0.036641  -0.037792
    13  C   -0.005940   0.003928  -0.000404   0.000316  -0.006021   0.004160
    14  H    0.000061  -0.000052   0.000009  -0.000042   0.000005  -0.000060
    15  N    0.006687   0.000087  -0.000034   0.000007   0.006841   0.000022
    16  C    0.002064  -0.000038   0.000003  -0.000001   0.000097   0.000005
    17  H    0.000009  -0.000008  -0.000000   0.000000   0.000000   0.000000
    18  H   -0.000133   0.002296   0.000000   0.000002   0.000000  -0.000000
    19  H    0.505672  -0.023787  -0.002564   0.003756   0.001660  -0.000073
    20  H   -0.023787   0.548018  -0.002651  -0.002932  -0.000049  -0.000090
    21  H   -0.002564  -0.002651   0.525610  -0.024676  -0.002814  -0.002066
    22  H    0.003756  -0.002932  -0.024676   0.569340   0.004062  -0.003570
    23  H    0.001660  -0.000049  -0.002814   0.004062   0.509673  -0.024927
    24  H   -0.000073  -0.000090  -0.002066  -0.003570  -0.024927   0.540749
    25  H   -0.000027   0.000011  -0.000086  -0.000083  -0.002062  -0.002404
    26  H    0.000022  -0.000035  -0.000072   0.002455   0.003833  -0.002758
    27  H    0.000066   0.000000  -0.000000   0.000000  -0.000022  -0.000000
              25         26         27
     1  O    0.000000   0.000000   0.006592
     2  N   -0.000000  -0.000000  -0.000096
     3  O    0.000000   0.000000   0.000051
     4  C    0.000022   0.000004  -0.067705
     5  C   -0.000001  -0.000001   0.001954
     6  N   -0.000074  -0.000073  -0.000005
     7  C    0.005137  -0.004413  -0.000392
     8  H   -0.000013   0.001476   0.000008
     9  C   -0.000382   0.001092  -0.000047
    10  C    0.004105  -0.002434   0.000003
    11  C   -0.033705  -0.042471   0.000006
    12  C    0.394865   0.394253  -0.000021
    13  C   -0.034296  -0.045110   0.004748
    14  H   -0.002707  -0.000895  -0.000151
    15  N    0.001265   0.004241  -0.040714
    16  C   -0.000061  -0.000031   0.404086
    17  H   -0.000000   0.000000  -0.000063
    18  H    0.000003  -0.000001   0.000001
    19  H   -0.000027   0.000022   0.000066
    20  H    0.000011  -0.000035   0.000000
    21  H   -0.000086  -0.000072  -0.000000
    22  H   -0.000083   0.002455   0.000000
    23  H   -0.002062   0.003833  -0.000022
    24  H   -0.002404  -0.002758  -0.000000
    25  H    0.509789  -0.023177  -0.000015
    26  H   -0.023177   0.563640   0.000001
    27  H   -0.000015   0.000001   0.442879
 Mulliken charges:
               1
     1  O   -0.456968
     2  N    0.508196
     3  O   -0.486994
     4  C   -0.028492
     5  C    0.197108
     6  N   -0.779041
     7  C    0.041416
     8  H    0.178784
     9  C   -0.308546
    10  C   -0.321194
    11  C   -0.316572
    12  C   -0.311628
    13  C   -0.019165
    14  H    0.196205
    15  N   -0.516607
    16  C    0.127579
    17  H    0.292274
    18  H    0.397437
    19  H    0.190558
    20  H    0.156183
    21  H    0.173158
    22  H    0.148925
    23  H    0.191429
    24  H    0.162768
    25  H    0.183896
    26  H    0.150454
    27  H    0.248836
 Sum of Mulliken charges =  -0.00000
 Mulliken charges with hydrogens summed into heavy atoms:
               1
     1  O   -0.456968
     2  N    0.508196
     3  O   -0.486994
     4  C   -0.028492
     5  C    0.489382
     6  N   -0.381604
     7  C    0.220200
     9  C    0.038195
    10  C    0.000889
    11  C    0.037625
    12  C    0.022723
    13  C    0.177040
    15  N   -0.516607
    16  C    0.376415
 Electronic spatial extent (au):  <R**2>=           3124.3390
 Charge=              0.0000 electrons
 Dipole moment (field-independent basis, Debye):
    X=              5.3930    Y=              4.4764    Z=              1.2235  Tot=              7.1147
 Quadrupole moment (field-independent basis, Debye-Ang):
   XX=           -105.3159   YY=            -79.7768   ZZ=            -82.7818
   XY=             -0.8644   XZ=             -1.9332   YZ=              0.7033
 Traceless Quadrupole moment (field-independent basis, Debye-Ang):
   XX=            -16.0244   YY=              9.5147   ZZ=              6.5097
   XY=             -0.8644   XZ=             -1.9332   YZ=              0.7033
 Octapole moment (field-independent basis, Debye-Ang**2):
  XXX=             99.9240  YYY=             34.2962  ZZZ=             -0.6160  XYY=             -2.7067
  XXY=              8.1529  XXZ=             14.2482  XZZ=             -6.1701  YZZ=             -2.3694
  YYZ=              5.4170  XYZ=             -0.2173
 Hexadecapole moment (field-independent basis, Debye-Ang**3):
 XXXX=          -3531.2733 YYYY=           -615.8203 ZZZZ=           -316.2812 XXXY=            -12.0015
 XXXZ=            -83.6477 YYYX=              3.2773 YYYZ=             19.3221 ZZZX=            -32.4400
 ZZZY=              6.3295 XXYY=           -652.4334 XXZZ=           -549.7528 YYZZ=           -167.7754
 XXYZ=              3.0604 YYXZ=            -10.6830 ZZXY=              6.5787
 N-N= 9.169226727381D+02 E-N=-3.379864918325D+03  KE= 6.588604118047D+02
 Calling FoFJK, ICntrl=  10002127 FMM=F ISym2X=0 I1Cent= 0 IOpClX= 0 NMat=1 NMatS=1 NMatT=0.
 -------------------------------------------------------------------
 Center     Atomic                   Forces (Hartrees/Bohr)
 Number     Number              X              Y              Z
 -------------------------------------------------------------------
      1        8           0.001208932   -0.018948982   -0.001659091
      2        7           0.039523782    0.009885727    0.006246415
      3        8          -0.003876029    0.016652192    0.001677224
      4        6          -0.002779487    0.003936608    0.008402061
      5        6           0.003150915   -0.014587762   -0.004641398
      6        7           0.015462860   -0.004723339   -0.009458799
      7        6          -0.004186336    0.005352072    0.004473196
      8        1          -0.011775712   -0.001675039   -0.007095233
      9        6          -0.004079150    0.000973912   -0.002151285
     10        6           0.002742733   -0.001197299    0.000747184
     11        6          -0.001010866   -0.004352255   -0.001998619
     12        6           0.000614723   -0.009261158   -0.002912840
     13        6           0.010736896   -0.000750505    0.000871600
     14        1           0.001189938    0.003735948   -0.010702775
     15        7          -0.000097614   -0.005743097    0.014532069
     16        6          -0.021058133    0.013991091   -0.009536812
     17        1           0.007326805   -0.007792992   -0.001657011
     18        1          -0.018457657   -0.002345948    0.002252215
     19        1           0.003309660    0.005745849    0.007436204
     20        1          -0.002997701   -0.007636054    0.002831590
     21        1          -0.003781206    0.002391622    0.009842944
     22        1          -0.004416851   -0.004008312   -0.007099013
     23        1           0.004351872    0.006038486    0.008963697
     24        1          -0.009549364    0.002418500   -0.001618072
     25        1          -0.001119343    0.010609044   -0.002500286
     26        1          -0.004881530   -0.004741692   -0.004054140
     27        1           0.004447864    0.006033385   -0.001191025
 -------------------------------------------------------------------
 Cartesian Forces:  Max     0.039523782 RMS     0.008604552

 GradGradGradGradGradGradGradGradGradGradGradGradGradGradGradGradGradGrad
 Berny optimization.
 FormGI is forming the generalized inverse of G from B-inverse, IUseBI=4.
 Internal  Forces:  Max     0.038056415 RMS     0.007008389
 Search for a local minimum.
 Step number   1 out of a maximum of   20
 All quantities printed in internal units (Hartrees-Bohrs-Radians)
 Mixed Optimization -- RFO/linear search
 Second derivative matrix not updated -- first step.
 ITU=  0
     Eigenvalues ---    0.00230   0.00777   0.01069   0.01169   0.01348
     Eigenvalues ---    0.01540   0.01585   0.01780   0.02033   0.02100
     Eigenvalues ---    0.02705   0.03664   0.04515   0.04689   0.04839
     Eigenvalues ---    0.05081   0.05140   0.05307   0.05886   0.06252
     Eigenvalues ---    0.07124   0.07687   0.07702   0.07837   0.07988
     Eigenvalues ---    0.08033   0.08046   0.10445   0.11639   0.12105
     Eigenvalues ---    0.12705   0.14429   0.15173   0.15973   0.15994
     Eigenvalues ---    0.20090   0.22234   0.23364   0.24953   0.25000
     Eigenvalues ---    0.25000   0.25398   0.26348   0.26647   0.27976
     Eigenvalues ---    0.28082   0.28521   0.29241   0.31444   0.32032
     Eigenvalues ---    0.32052   0.32239   0.32293   0.32383   0.32388
     Eigenvalues ---    0.32406   0.32515   0.32527   0.32589   0.33325
     Eigenvalues ---    0.33398   0.33627   0.35477   0.43885   0.44297
     Eigenvalues ---    0.49964   0.67284   0.90336   0.911701000.00000
     Eigenvalues --- 1000.000001000.000001000.000001000.000001000.00000
     Eigenvalues --- 1000.000001000.000001000.000001000.000001000.00000
     Eigenvalues --- 1000.000001000.000001000.000001000.000001000.00000
     Eigenvalues --- 1000.000001000.000001000.000001000.000001000.00000
     Eigenvalues --- 1000.000001000.000001000.000001000.000001000.00000
     Eigenvalues --- 1000.000001000.000001000.000001000.000001000.00000
     Eigenvalues --- 1000.000001000.000001000.000001000.000001000.00000
     Eigenvalues --- 1000.000001000.000001000.000001000.000001000.00000
     Eigenvalues --- 1000.000001000.000001000.000001000.000001000.00000
     Eigenvalues --- 1000.000001000.000001000.000001000.000001000.00000
     Eigenvalues --- 1000.000001000.000001000.000001000.000001000.00000
     Eigenvalues --- 1000.000001000.000001000.000001000.000001000.00000
     Eigenvalues --- 1000.000001000.000001000.000001000.000001000.00000
     Eigenvalues --- 1000.000001000.000001000.000001000.000001000.00000
     Eigenvalues --- 1000.000001000.000001000.000001000.000001000.00000
     Eigenvalues --- 1000.000001000.000001000.000001000.000001000.00000
     Eigenvalues --- 1000.000001000.000001000.000001000.000001000.00000
     Eigenvalues --- 1000.000001000.000001000.000001000.000001000.00000
     Eigenvalues --- 1000.00000
 RFO step:  Lambda=-2.49237059D-02 EMin= 2.30270246D-03
 Linear search not attempted -- first point.
 Iteration  1 RMS(Cart)=  0.05941810 RMS(Int)=  0.00128992
 Iteration  2 RMS(Cart)=  0.00150014 RMS(Int)=  0.00035444
 Iteration  3 RMS(Cart)=  0.00000130 RMS(Int)=  0.00035444
 Iteration  4 RMS(Cart)=  0.00000000 RMS(Int)=  0.00035444
 Iteration  1 RMS(Cart)=  0.00012072 RMS(Int)=  0.00006368
 Iteration  2 RMS(Cart)=  0.00007731 RMS(Int)=  0.00007058
 Iteration  3 RMS(Cart)=  0.00004994 RMS(Int)=  0.00008070
 Iteration  4 RMS(Cart)=  0.00003267 RMS(Int)=  0.00008869
 Iteration  5 RMS(Cart)=  0.00002175 RMS(Int)=  0.00009428
 Iteration  6 RMS(Cart)=  0.00001480 RMS(Int)=  0.00009808
 Iteration  7 RMS(Cart)=  0.00001035 RMS(Int)=  0.00010066
 Iteration  8 RMS(Cart)=  0.00000747 RMS(Int)=  0.00010244
 Iteration  9 RMS(Cart)=  0.00000556 RMS(Int)=  0.00010368
 Iteration 10 RMS(Cart)=  0.00000427 RMS(Int)=  0.00010458
 Iteration 11 RMS(Cart)=  0.00000336 RMS(Int)=  0.00010524
 Iteration 12 RMS(Cart)=  0.00000271 RMS(Int)=  0.00010574
 Iteration 13 RMS(Cart)=  0.00000222 RMS(Int)=  0.00010613
 Iteration 14 RMS(Cart)=  0.00000184 RMS(Int)=  0.00010645
 Iteration 15 RMS(Cart)=  0.00000154 RMS(Int)=  0.00010670
 Iteration 16 RMS(Cart)=  0.00000130 RMS(Int)=  0.00010691
 Iteration 17 RMS(Cart)=  0.00000110 RMS(Int)=  0.00010708
 Iteration 18 RMS(Cart)=  0.00000093 RMS(Int)=  0.00010723
 Variable       Old X    -DE/DX   Delta X   Delta X   Delta X     New X
                                 (Linear)    (Quad)   (Total)
    R1        2.32398   0.01754   0.00000   0.01873   0.01873   2.34271
    R2        2.32779   0.01564   0.00000   0.01685   0.01685   2.34464
    R3        2.89503  -0.03806   0.00000  -0.11993  -0.11993   2.77510
    R4        2.64558  -0.03283   0.00000  -0.07085  -0.07055   2.57503
    R5        2.81638  -0.02553   0.00000  -0.07471  -0.07452   2.74186
    R6        2.58596  -0.02469   0.00000  -0.04639  -0.04615   2.53980
    R7        2.08358  -0.01077   0.00000  -0.03000  -0.03000   2.05357
    R8        2.81680  -0.01818   0.00000  -0.04803  -0.04809   2.76871
    R9        1.93293  -0.00660   0.00000  -0.01422  -0.01422   1.91871
   R10        2.11874  -0.01266   0.00000  -0.03729  -0.03729   2.08144
   R11        2.92752  -0.01289   0.00000  -0.04331  -0.04335   2.88417
   R12        2.89748  -0.00210   0.00000  -0.00133  -0.00133   2.89616
   R13        2.91143  -0.00436   0.00000  -0.01433  -0.01438   2.89705
   R14        2.09912  -0.00972   0.00000  -0.02777  -0.02777   2.07135
   R15        2.09890  -0.00826   0.00000  -0.02360  -0.02360   2.07531
   R16        2.90452  -0.00154   0.00000  -0.00694  -0.00690   2.89763
   R17        2.10139  -0.01055   0.00000  -0.03025  -0.03025   2.07114
   R18        2.10311  -0.00898   0.00000  -0.02581  -0.02581   2.07730
   R19        2.91773  -0.00924   0.00000  -0.02956  -0.02952   2.88821
   R20        2.10409  -0.01148   0.00000  -0.03305  -0.03305   2.07104
   R21        2.10107  -0.00995   0.00000  -0.02852  -0.02852   2.07256
   R22        2.93539  -0.01092   0.00000  -0.03648  -0.03643   2.89896
   R23        2.10148  -0.01081   0.00000  -0.03099  -0.03099   2.07049
   R24        2.09779  -0.00773   0.00000  -0.02204  -0.02204   2.07575
   R25        2.10748  -0.01027   0.00000  -0.02972  -0.02972   2.07776
   R26        2.76632  -0.00491   0.00000  -0.00989  -0.01043   2.75589
   R27        2.44267  -0.00272   0.00000  -0.00424  -0.00441   2.43826
   R28        2.07964  -0.00613   0.00000  -0.01698  -0.01698   2.06266
    A1        2.15433   0.01126   0.00000   0.04096   0.04096   2.19529
    A2        2.05561  -0.00606   0.00000  -0.02205  -0.02205   2.03356
    A3        2.07321  -0.00520   0.00000  -0.01892  -0.01891   2.05430
    A4        2.02119  -0.00951   0.00000  -0.03107  -0.03138   1.98981
    A5        2.02954  -0.00250   0.00000  -0.00529  -0.00581   2.02373
    A6        2.23109   0.01196   0.00000   0.03396   0.03373   2.26482
    A7        2.20860   0.00666   0.00000   0.02198   0.02242   2.23102
    A8        2.06220  -0.00392   0.00000  -0.01406  -0.01426   2.04794
    A9        2.01179  -0.00273   0.00000  -0.00773  -0.00799   2.00381
   A10        2.25374  -0.00709   0.00000  -0.02031  -0.02037   2.23337
   A11        2.10129  -0.01236   0.00000  -0.07184  -0.07271   2.02858
   A12        1.86252   0.01967   0.00000   0.10660   0.10698   1.96950
   A13        1.84084  -0.00231   0.00000  -0.01823  -0.01786   1.82298
   A14        2.00995  -0.00087   0.00000  -0.01561  -0.01562   1.99433
   A15        1.96171   0.00163   0.00000  -0.00225  -0.00324   1.95847
   A16        1.85213   0.00307   0.00000   0.02662   0.02642   1.87855
   A17        1.85053   0.00142   0.00000   0.02760   0.02730   1.87783
   A18        1.93525  -0.00256   0.00000  -0.01211  -0.01164   1.92360
   A19        1.90886   0.00023   0.00000  -0.00545  -0.00561   1.90325
   A20        1.92244  -0.00070   0.00000  -0.01410  -0.01407   1.90837
   A21        1.92257  -0.00180   0.00000  -0.00600  -0.00601   1.91656
   A22        1.91934  -0.00064   0.00000   0.00414   0.00402   1.92336
   A23        1.90601   0.00329   0.00000   0.02652   0.02658   1.93259
   A24        1.88447  -0.00036   0.00000  -0.00467  -0.00492   1.87956
   A25        1.93995  -0.00078   0.00000   0.00581   0.00571   1.94566
   A26        1.91882  -0.00077   0.00000  -0.00735  -0.00736   1.91146
   A27        1.90525   0.00028   0.00000  -0.00296  -0.00303   1.90221
   A28        1.91617   0.00061   0.00000   0.00669   0.00672   1.92289
   A29        1.89881   0.00187   0.00000   0.01156   0.01159   1.91040
   A30        1.88383  -0.00120   0.00000  -0.01422  -0.01430   1.86953
   A31        1.94433   0.00128   0.00000   0.00723   0.00731   1.95164
   A32        1.90238   0.00028   0.00000   0.00543   0.00545   1.90784
   A33        1.91742   0.00039   0.00000   0.00506   0.00500   1.92242
   A34        1.90684  -0.00138   0.00000  -0.01534  -0.01539   1.89146
   A35        1.91545  -0.00063   0.00000   0.00018   0.00009   1.91554
   A36        1.87606   0.00001   0.00000  -0.00303  -0.00307   1.87299
   A37        1.94539  -0.00369   0.00000  -0.02078  -0.02071   1.92468
   A38        1.90630   0.00255   0.00000   0.01553   0.01541   1.92171
   A39        1.91130   0.00172   0.00000   0.01487   0.01474   1.92604
   A40        1.90677   0.00059   0.00000  -0.00288  -0.00280   1.90397
   A41        1.91239  -0.00016   0.00000  -0.00326  -0.00316   1.90922
   A42        1.88052  -0.00092   0.00000  -0.00287  -0.00305   1.87747
   A43        1.84561   0.00542   0.00000   0.02300   0.02288   1.86850
   A44        1.93395  -0.00454   0.00000  -0.02539  -0.02577   1.90818
   A45        1.99440   0.00023   0.00000   0.01003   0.01041   2.00481
   A46        1.88416   0.00201   0.00000   0.02695   0.02720   1.91136
   A47        1.89106  -0.00424   0.00000  -0.03211  -0.03203   1.85903
   A48        1.91022   0.00133   0.00000  -0.00064  -0.00061   1.90961
   A49        2.10154  -0.00522   0.00000  -0.01049  -0.01107   2.09047
   A50        2.27054  -0.00637   0.00000  -0.03102  -0.03119   2.23935
   A51        1.97640   0.00373   0.00000   0.01695   0.01667   1.99307
   A52        2.03277   0.00263   0.00000   0.01105   0.01083   2.04359
    D1       -3.04906  -0.00019   0.00000  -0.04450  -0.04332  -3.09239
    D2        0.14414   0.00040   0.00000   0.00000  -0.00000   0.14414
    D3        0.10124  -0.00088   0.00000  -0.04371  -0.04312   0.05811
    D4       -2.98875  -0.00029   0.00000   0.00079   0.00020  -2.98855
    D5        3.10639   0.00074   0.00000   0.02653   0.02593   3.13232
    D6        0.00383   0.00054   0.00000   0.02081   0.02006   0.02389
    D7       -0.09380  -0.00055   0.00000  -0.02571  -0.02658  -0.12038
    D8        3.08683  -0.00075   0.00000  -0.03143  -0.03245   3.05438
    D9       -3.02051   0.00154   0.00000   0.00000  -0.00000  -3.02051
   D10        0.21517   0.00145   0.00000   0.03972   0.03946   0.25463
   D11        0.17992   0.00304   0.00000   0.05318   0.05405   0.23397
   D12       -2.86759   0.00294   0.00000   0.09290   0.09352  -2.77407
   D13        0.15112  -0.00185   0.00000  -0.02512  -0.02543   0.12569
   D14        2.85814   0.00321   0.00000   0.04382   0.04199   2.90013
   D15       -3.02852  -0.00169   0.00000  -0.01969  -0.01983  -3.04835
   D16       -0.32151   0.00337   0.00000   0.04925   0.04759  -0.27392
   D17       -2.72743  -0.00009   0.00000   0.01857   0.01913  -2.70829
   D18        1.52010  -0.00186   0.00000   0.00640   0.00679   1.52689
   D19       -0.71885   0.00106   0.00000   0.03967   0.03955  -0.67930
   D20        0.80308   0.00084   0.00000  -0.01190  -0.01284   0.79023
   D21       -1.23259  -0.00093   0.00000  -0.02408  -0.02518  -1.25777
   D22        2.81166   0.00199   0.00000   0.00920   0.00758   2.81923
   D23        2.94719   0.00249   0.00000   0.03465   0.03469   2.98188
   D24       -1.22466   0.00141   0.00000   0.02740   0.02742  -1.19724
   D25        0.85224  -0.00059   0.00000   0.00911   0.00920   0.86144
   D26        0.91795   0.00378   0.00000   0.04808   0.04809   0.96604
   D27        3.02928   0.00271   0.00000   0.04083   0.04082   3.07011
   D28       -1.17701   0.00070   0.00000   0.02255   0.02261  -1.15440
   D29       -1.08393   0.00167   0.00000   0.00681   0.00682  -1.07711
   D30        1.02741   0.00059   0.00000  -0.00044  -0.00045   1.02696
   D31        3.10430  -0.00141   0.00000  -0.01873  -0.01867   3.08564
   D32       -2.89557  -0.00075   0.00000  -0.01852  -0.01821  -2.91378
   D33       -0.85826   0.00240   0.00000   0.01356   0.01353  -0.84473
   D34        1.30939   0.00072   0.00000   0.00000   0.00001   1.30940
   D35       -0.89287  -0.00185   0.00000  -0.02524  -0.02524  -0.91811
   D36        1.14443   0.00130   0.00000   0.00684   0.00651   1.15094
   D37       -2.97110  -0.00039   0.00000  -0.00672  -0.00701  -2.97811
   D38        1.11000   0.00129   0.00000   0.01541   0.01549   1.12549
   D39       -3.13588   0.00444   0.00000   0.04749   0.04723  -3.08864
   D40       -0.96822   0.00275   0.00000   0.03393   0.03371  -0.93451
   D41        0.95665   0.00093   0.00000   0.00000   0.00000   0.95665
   D42        3.08193   0.00066   0.00000   0.00732   0.00727   3.08921
   D43       -1.13791  -0.00109   0.00000  -0.01606  -0.01604  -1.15395
   D44       -1.15657   0.00205   0.00000   0.01830   0.01838  -1.13818
   D45        0.96872   0.00178   0.00000   0.02562   0.02565   0.99437
   D46        3.03206   0.00003   0.00000   0.00224   0.00234   3.03440
   D47        3.06173   0.00089   0.00000   0.00561   0.00559   3.06732
   D48       -1.09617   0.00062   0.00000   0.01293   0.01286  -1.08331
   D49        0.96717  -0.00113   0.00000  -0.01045  -0.01045   0.95672
   D50       -0.92192  -0.00079   0.00000   0.00000   0.00000  -0.92191
   D51        1.18352  -0.00152   0.00000  -0.01097  -0.01097   1.17255
   D52       -3.04826  -0.00112   0.00000  -0.00853  -0.00855  -3.05681
   D53       -3.04875   0.00028   0.00000   0.00086   0.00088  -3.04787
   D54       -0.94331  -0.00045   0.00000  -0.01010  -0.01009  -0.95340
   D55        1.10809  -0.00004   0.00000  -0.00766  -0.00767   1.10042
   D56        1.17646   0.00028   0.00000   0.00741   0.00744   1.18390
   D57       -3.00129  -0.00045   0.00000  -0.00356  -0.00353  -3.00483
   D58       -0.94989  -0.00004   0.00000  -0.00112  -0.00112  -0.95100
   D59        0.98929  -0.00123   0.00000  -0.01072  -0.01071   0.97859
   D60        3.09791  -0.00115   0.00000  -0.01730  -0.01739   3.08052
   D61       -1.12972   0.00023   0.00000  -0.00307  -0.00298  -1.13271
   D62       -1.11352  -0.00148   0.00000  -0.01197  -0.01193  -1.12545
   D63        0.99510  -0.00140   0.00000  -0.01854  -0.01861   0.97648
   D64        3.05065  -0.00003   0.00000  -0.00431  -0.00421   3.04644
   D65        3.11678  -0.00032   0.00000   0.00062   0.00063   3.11741
   D66       -1.05779  -0.00024   0.00000  -0.00596  -0.00605  -1.06384
   D67        0.99776   0.00114   0.00000   0.00827   0.00835   1.00612
   D68       -1.05759   0.00003   0.00000  -0.00296  -0.00284  -1.06043
   D69       -3.12828   0.00147   0.00000   0.00111   0.00087  -3.12741
   D70        1.08777   0.00110   0.00000   0.00457   0.00468   1.09245
   D71        3.11725  -0.00120   0.00000  -0.00715  -0.00705   3.11020
   D72        1.04657   0.00025   0.00000  -0.00308  -0.00335   1.04322
   D73       -1.02057  -0.00012   0.00000   0.00038   0.00046  -1.02011
   D74        1.06080  -0.00034   0.00000  -0.00008   0.00008   1.06088
   D75       -1.00989   0.00111   0.00000   0.00399   0.00379  -1.00610
   D76       -3.07703   0.00074   0.00000   0.00745   0.00759  -3.06943
   D77       -1.17218   0.00635   0.00000   0.00000   0.00001  -1.17218
   D78        3.05862   0.00229   0.00000  -0.01308  -0.01295   3.04567
   D79        1.00810   0.00156   0.00000  -0.02670  -0.02690   0.98120
   D80        0.35771  -0.00435   0.00000  -0.03217  -0.03214   0.32557
   D81       -2.88046  -0.00422   0.00000  -0.07278  -0.07241  -2.95287
         Item               Value     Threshold  Converged?
 Maximum Force            0.038056     0.000450     NO 
 RMS     Force            0.007052     0.000300     NO 
 Maximum Displacement     0.312509     0.001800     NO 
 RMS     Displacement     0.059506     0.001200     NO 
 Predicted change in Energy=-1.402747D-02
 GradGradGradGradGradGradGradGradGradGradGradGradGradGradGradGradGradGrad

                          Input orientation:                          
 ---------------------------------------------------------------------
 Center     Atomic      Atomic             Coordinates (Angstroms)
 Number     Number       Type             X           Y           Z
 ---------------------------------------------------------------------
      1          8           0       -3.507940   -1.342375   -0.459670
      2          7           0       -3.111947   -0.186946   -0.247419
      3          8           0       -3.822097    0.830135   -0.222074
      4          6           0       -1.671063   -0.019393   -0.018644
      5          6           0       -1.300467    1.259942    0.269055
      6          7           0       -0.066008    1.720735    0.533883
      7          6           0        1.205156    0.998332    0.439474
      8          1           0        1.873423    1.525470    1.138574
      9          6           0        1.851910    1.044759   -0.942177
     10          6           0        3.265508    0.458233   -0.852862
     11          6           0        3.251256   -0.951891   -0.250754
     12          6           0        2.510653   -0.991538    1.085610
     13          6           0        1.084198   -0.452235    0.919085
     14          1           0        0.568148   -0.472803    1.889744
     15          7           0        0.407089   -1.350569   -0.008988
     16          6           0       -0.850642   -1.193466   -0.250294
     17          1           0       -2.087490    2.007340    0.323065
     18          1           0        0.051017    2.729051    0.511329
     19          1           0        1.245125    0.464353   -1.646736
     20          1           0        1.883254    2.081237   -1.303821
     21          1           0        3.717496    0.438422   -1.851126
     22          1           0        3.887092    1.116384   -0.229294
     23          1           0        2.749955   -1.636914   -0.943962
     24          1           0        4.277155   -1.315867   -0.116920
     25          1           0        2.463409   -2.020285    1.459663
     26          1           0        3.042676   -0.390232    1.835242
     27          1           0       -1.353876   -1.988899   -0.802962
 ---------------------------------------------------------------------
                    Distance matrix (angstroms):
                    1          2          3          4          5
     1  O    0.000000
     2  N    1.239709   0.000000
     3  O    2.207928   1.240730   0.000000
     4  C    2.306275   1.468522   2.321644   0.000000
     5  C    3.489417   2.375224   2.604719   1.362648   0.000000
     6  N    4.713458   3.677964   3.933554   2.430953   1.344006
     7  C    5.338599   4.529247   5.073383   3.085170   2.525001
     8  H    6.303808   5.450436   5.896932   4.035980   3.301537
     9  C    5.887208   5.161362   5.723546   3.794295   3.383913
    10  C    7.019714   6.438536   7.125332   5.029293   4.769650
    11  C    6.773688   6.409017   7.294434   5.015242   5.087297
    12  C    6.223700   5.834206   6.718055   4.432967   4.501174
    13  C    4.876582   4.363340   5.197928   2.942474   3.006779
    14  H    4.784390   4.265240   5.042983   2.976842   3.020060
    15  N    3.940892   3.714092   4.763076   2.467963   3.131745
    16  C    2.669690   2.475195   3.595178   1.450931   2.547798
    17  H    3.721686   2.487942   2.166068   2.097099   1.086705
    18  H    5.494135   4.368418   4.375474   3.286392   2.010842
    19  H    5.221591   4.622375   5.276381   3.374736   3.283786
    20  H    6.441948   5.586830   5.940242   4.324061   3.644797
    21  H    7.570622   7.043029   7.723518   5.710005   5.509085
    22  H    7.796478   7.119378   7.714505   5.676923   5.213418
    23  H    6.283514   6.078608   7.056864   4.797707   5.125339
    24  H    7.792682   7.475983   8.379396   6.088662   6.155781
    25  H    6.308756   6.112270   7.103571   4.825227   5.132660
    26  H    7.005980   6.500629   7.269591   5.078755   4.902949
    27  H    2.275046   2.578075   3.791635   2.143529   3.421555
                    6          7          8          9         10
     6  N    0.000000
     7  C    1.465140   0.000000
     8  H    2.040875   1.101452   0.000000
     9  C    2.512788   1.526239   2.135666   0.000000
    10  C    3.823084   2.491363   2.653811   1.533052   0.000000
    11  C    4.331607   2.909692   3.156893   2.534333   1.533359
    12  C    3.781535   2.466049   2.596959   2.948282   2.535610
    13  C    2.488604   1.532580   2.140646   2.508917   2.954126
    14  H    2.655583   2.161782   2.502218   3.459886   3.957837
    15  N    3.154590   2.520985   3.426169   2.948889   3.486323
    16  C    3.118196   3.083190   4.091710   3.576610   4.475923
    17  H    2.052554   3.445747   4.072603   4.248091   5.695361
    18  H    1.015335   2.081488   2.272270   2.862296   4.165404
    19  H    2.837721   2.153834   3.046092   1.096113   2.170765
    20  H    2.703098   2.161383   2.504849   1.098206   2.179021
    21  H    4.652687   3.445606   3.677035   2.162000   1.096000
    22  H    4.071201   2.766580   2.468456   2.157614   1.099258
    23  H    4.624660   3.353329   3.886635   2.828048   2.159568
    24  H    5.339247   3.886164   3.927771   3.483592   2.170823
    25  H    4.609799   3.425789   3.608816   3.941732   3.483416
    26  H    3.976636   2.693094   2.349981   3.345321   2.827623
    27  H    4.148149   4.125026   5.151292   4.415827   5.227777
                   11         12         13         14         15
    11  C    0.000000
    12  C    1.528376   0.000000
    13  C    2.512831   1.534064   0.000000
    14  H    3.465591   2.165420   1.099504   0.000000
    15  N    2.882131   2.398339   1.458356   2.097998   0.000000
    16  C    4.109005   3.622667   2.379175   2.666848   1.290270
    17  H    6.130949   5.542353   4.057630   3.957020   4.196277
    18  H    4.936764   4.496932   3.369616   3.524106   4.128053
    19  H    2.824726   3.344681   2.729371   3.720651   2.584272
    20  H    3.490021   3.942710   3.463853   4.295519   3.953852
    21  H    2.170609   3.482194   3.924487   4.974217   4.189601
    22  H    2.163911   2.840227   3.411092   4.246319   4.271395
    23  H    1.095945   2.143114   2.765710   3.761027   2.538738
    24  H    1.096749   2.161434   3.466142   4.300488   3.871727
    25  H    2.165108   1.095658   2.157134   2.484287   2.614174
    26  H    2.170333   1.098438   2.163058   2.476505   3.357045
    27  H    4.752637   4.415429   3.357229   3.639146   2.034418
                   16         17         18         19         20
    16  C    0.000000
    17  H    3.479036   0.000000
    18  H    4.096242   2.264845   0.000000
    19  H    3.015070   4.167403   3.348432   0.000000
    20  H    4.394062   4.291740   2.659234   1.771755   0.000000
    21  H    5.108190   6.394254   4.926586   2.480941   2.522465
    22  H    5.270860   6.065850   4.226664   3.068270   2.470003
    23  H    3.693524   6.187635   5.335147   2.678381   3.834751
    24  H    5.130991   7.193470   5.883563   3.834414   4.322015
    25  H    3.819753   6.182580   5.410653   4.160210   4.979548
    26  H    4.489161   5.861198   4.520254   4.010695   4.160064
    27  H    1.091513   4.216166   5.095109   3.672221   5.224546
                   21         22         23         24         25
    21  H    0.000000
    22  H    1.765994   0.000000
    23  H    2.462946   3.063410   0.000000
    24  H    2.529470   2.465892   1.766185   0.000000
    25  H    4.310371   3.836423   2.450815   2.504295   0.000000
    26  H    3.838145   2.691698   3.060045   2.488308   1.770220
    27  H    5.719209   6.118793   4.121311   5.712455   4.437580
                   26         27
    26  H    0.000000
    27  H    5.370803   0.000000
 Symmetry turned off by external request.
 Stoichiometry    C9H13N3O2
 Framework group  C1[X(C9H13N3O2)]
 Deg. of freedom    75
 Full point group                 C1      NOp   1
 Rotational constants (GHZ):           1.6532529           0.4227755           0.3749878
 Standard basis: 6-31G(d) (6D, 7F)
   236 basis functions,   444 primitive gaussians,   236 cartesian basis functions
    52 alpha electrons       52 beta electrons
       nuclear repulsion energy       932.0227176349 Hartrees.
 NAtoms=   27 NActive=   27 NUniq=   27 SFac= 1.00D+00 NAtFMM=   60 NAOKFM=F Big=F
 Integral buffers will be    131072 words long.
 Raffenetti 1 integral format.
 Two-electron integral symmetry is turned off.
 One-electron integrals computed using PRISM.
 NBasis=   236 RedAO= T EigKep=  1.02D-03  NBF=   236
 NBsUse=   236 1.00D-06 EigRej= -1.00D+00 NBFU=   236
 Initial guess from the checkpoint file:  "/home/alexey/tmp/Gau-1430031.chk"
 B after Tr=     0.059377    0.003757    0.007328
         Rot=    0.999999   -0.001028   -0.000415    0.000648 Ang=  -0.15 deg.
 ExpMin= 1.61D-01 ExpMax= 5.48D+03 ExpMxC= 8.25D+02 IAcc=3 IRadAn=         5 AccDes= 0.00D+00
 Harris functional with IExCor=  205 and IRadAn=       5 diagonalized for initial guess.
 HarFok:  IExCor=  205 AccDes= 0.00D+00 IRadAn=         5 IDoV= 1 UseB2=F ITyADJ=14
 ICtDFT=  3500011 ScaDFX=  1.000000  1.000000  1.000000  1.000000
 FoFCou: FMM=F IPFlag=           0 FMFlag=      100000 FMFlg1=           0
         NFxFlg=           0 DoJE=T BraDBF=F KetDBF=T FulRan=T
         wScrn=  0.000000 ICntrl=       500 IOpCl=  0 I1Cent=   200000004 NGrid=           0
         NMat0=    1 NMatS0=      1 NMatT0=    0 NMatD0=    1 NMtDS0=    0 NMtDT0=    0
 Symmetry not used in FoFCou.
 Keep R1 ints in memory in canonical form, NReq=397720213.
 Requested convergence on RMS density matrix=1.00D-08 within 128 cycles.
 Requested convergence on MAX density matrix=1.00D-06.
 Requested convergence on             energy=1.00D-06.
 No special actions if energy rises.
 SCF Done:  E(RHF) =  -661.298043248     A.U. after   14 cycles
            NFock= 14  Conv=0.94D-08     -V/T= 2.0024
 ExpMin= 1.61D-01 ExpMax= 5.48D+03 ExpMxC= 8.25D+02 IAcc=3 IRadAn=         5 AccDes= 0.00D+00
 HarFok:  IExCor=  205 AccDes= 0.00D+00 IRadAn=         5 IDoV=-2 UseB2=F ITyADJ=14
 ICtDFT= 12500011 ScaDFX=  1.000000  1.000000  1.000000  1.000000
 Range of M.O.s used for correlation:    15   236
 NBasis=   236 NAE=    52 NBE=    52 NFC=    14 NFV=     0
 NROrb=    222 NOA=    38 NOB=    38 NVA=   184 NVB=   184
 Fully direct method using O(ONN) memory.
 JobTyp=1 Pass  1:  I=  15 to  52 NPSUse=  4 ParTrn=T ParDer=T DoDerP=T.
 Spin components of T(2) and E(2):
     alpha-alpha T2 =       0.9138028399D-01 E2=     -0.2724989421D+00
     alpha-beta  T2 =       0.4912575421D+00 E2=     -0.1487975420D+01
     beta-beta   T2 =       0.9138028399D-01 E2=     -0.2724989421D+00
 ANorm=    0.1293838518D+01
 E2 =    -0.2032973304D+01 EUMP2 =    -0.66333101655236D+03
          IDoAtm=111111111111111111111111111
          Differentiating once with respect to electric field.
                with respect to dipole field.
          Differentiating once with respect to nuclear coordinates.
 Keep R1 ints in memory in canonical form, NReq=397723379.
          There are     1 degrees of freedom in the 1st order CPHF.  IDoFFX=0 NUNeed=     1.
 LinEq1:  Iter=  0 NonCon=     1 RMS=4.60D-03 Max=1.08D-01 NDo=     1
 AX will form     1 AO Fock derivatives at one time.
 LinEq1:  Iter=  1 NonCon=     1 RMS=1.55D-03 Max=2.95D-02 NDo=     1
[...]
    27  H    4.717608   4.412404   3.357793   3.654460   2.027459
                   16         17         18         19         20
    16  C    0.000000
    17  H    3.464835   0.000000
    18  H    4.101906   2.232781   0.000000
    19  H    2.990167   4.220743   3.505222   0.000000
    20  H    4.381940   4.372631   2.877380   1.768843   0.000000
    21  H    5.094492   6.450439   5.083686   2.499475   2.520685
    22  H    5.252806   6.077877   4.314351   3.070298   2.461745
    23  H    3.686281   6.205547   5.418829   2.703158   3.842639
    24  H    5.129715   7.192822   5.937542   3.848884   4.317173
    25  H    3.820340   6.126461   5.371117   4.170006   4.984487
    26  H    4.499859   5.823441   4.487410   4.033449   4.180405
    27  H    1.089339   4.214878   5.101914   3.597862   5.167785
                   21         22         23         24         25
    21  H    0.000000
    22  H    1.758947   0.000000
    23  H    2.469914   3.062565   0.000000
    24  H    2.517543   2.460250   1.764551   0.000000
    25  H    4.311865   3.838894   2.444094   2.519508   0.000000
    26  H    3.845901   2.703036   3.060453   2.492793   1.768333
    27  H    5.656731   6.066662   4.078840   5.684347   4.440100
                   26         27
    26  H    0.000000
    27  H    5.374890   0.000000
 Symmetry turned off by external request.
 Stoichiometry    C9H13N3O2
 Framework group  C1[X(C9H13N3O2)]
 Deg. of freedom    75
 Full point group                 C1      NOp   1
 Rotational constants (GHZ):           1.6598485           0.4197305           0.3741454

 **********************************************************************

            Population analysis using the SCF Density.

 **********************************************************************

 Alpha  occ. eigenvalues --  -20.59250 -20.58908 -15.84763 -15.64275 -15.55932
 Alpha  occ. eigenvalues --  -11.35069 -11.29593 -11.29524 -11.28702 -11.27089
 Alpha  occ. eigenvalues --  -11.23773 -11.23217 -11.22650 -11.22073  -1.57146
 Alpha  occ. eigenvalues --   -1.36719  -1.31081  -1.22931  -1.14707  -1.09806
 Alpha  occ. eigenvalues --   -1.02801  -1.01311  -0.94464  -0.89674  -0.85576
 Alpha  occ. eigenvalues --   -0.82454  -0.78711  -0.77372  -0.75228  -0.72094
 Alpha  occ. eigenvalues --   -0.69690  -0.69488  -0.67848  -0.64758  -0.63831
 Alpha  occ. eigenvalues --   -0.62382  -0.60168  -0.57763  -0.56956  -0.55115
 Alpha  occ. eigenvalues --   -0.54594  -0.50689  -0.50227  -0.48690  -0.48103
 Alpha  occ. eigenvalues --   -0.47353  -0.46215  -0.45945  -0.43716  -0.41767
 Alpha  occ. eigenvalues --   -0.39659  -0.33721
 Alpha virt. eigenvalues --    0.07476   0.11629   0.17245   0.21944   0.24274
 Alpha virt. eigenvalues --    0.25879   0.27043   0.28521   0.29101   0.29532
 Alpha virt. eigenvalues --    0.30739   0.31908   0.32076   0.32803   0.33878
 Alpha virt. eigenvalues --    0.34431   0.35939   0.37354   0.38632   0.40342
 Alpha virt. eigenvalues --    0.41266   0.42486   0.44803   0.46052   0.46724
 Alpha virt. eigenvalues --    0.47314   0.49126   0.54190   0.57622   0.59509
 Alpha virt. eigenvalues --    0.63927   0.69578   0.69705   0.72922   0.74209
 Alpha virt. eigenvalues --    0.74901   0.75773   0.76544   0.78679   0.79358
 Alpha virt. eigenvalues --    0.81302   0.84564   0.85527   0.85729   0.88399
 Alpha virt. eigenvalues --    0.89259   0.91510   0.91962   0.92862   0.94451
 Alpha virt. eigenvalues --    0.95790   0.98024   0.99762   1.01445   1.02340
 Alpha virt. eigenvalues --    1.03347   1.05840   1.07113   1.08014   1.08870
 Alpha virt. eigenvalues --    1.10357   1.11903   1.11965   1.12411   1.13857
 Alpha virt. eigenvalues --    1.14672   1.15064   1.15975   1.17123   1.18739
 Alpha virt. eigenvalues --    1.18823   1.21625   1.22886   1.23968   1.24580
 Alpha virt. eigenvalues --    1.25195   1.25987   1.26562   1.27885   1.29685
 Alpha virt. eigenvalues --    1.29896   1.32968   1.36006   1.37486   1.40257
 Alpha virt. eigenvalues --    1.41084   1.44537   1.48125   1.53324   1.53962
 Alpha virt. eigenvalues --    1.58845   1.59005   1.59342   1.62905   1.65972
 Alpha virt. eigenvalues --    1.68352   1.68751   1.72624   1.75406   1.77803
 Alpha virt. eigenvalues --    1.81355   1.84434   1.88115   1.90373   1.93442
 Alpha virt. eigenvalues --    1.95995   1.96461   2.00078   2.01766   2.02366
 Alpha virt. eigenvalues --    2.04522   2.05443   2.08553   2.09606   2.12366
 Alpha virt. eigenvalues --    2.12858   2.15356   2.18843   2.19985   2.22318
 Alpha virt. eigenvalues --    2.23233   2.24437   2.25548   2.28136   2.29380
 Alpha virt. eigenvalues --    2.31329   2.33157   2.34501   2.36289   2.38526
 Alpha virt. eigenvalues --    2.40671   2.42260   2.43914   2.45042   2.47446
 Alpha virt. eigenvalues --    2.50356   2.51781   2.53271   2.55557   2.60840
 Alpha virt. eigenvalues --    2.62306   2.65242   2.67504   2.69514   2.70471
 Alpha virt. eigenvalues --    2.71901   2.72352   2.75909   2.78222   2.84352
 Alpha virt. eigenvalues --    2.88608   2.89344   2.92761   2.93191   2.95880
 Alpha virt. eigenvalues --    2.99309   3.01409   3.04750   3.06335   3.07694
 Alpha virt. eigenvalues --    3.09716   3.15548   3.20887   3.25315   3.27510
 Alpha virt. eigenvalues --    3.33869   3.38088   3.38405   3.51612   3.66119
 Alpha virt. eigenvalues --    4.14083   4.27572   4.33786   4.39414   4.47060
 Alpha virt. eigenvalues --    4.56104   4.61821   4.62423   4.73462   4.80239
 Alpha virt. eigenvalues --    4.99571   5.00900   5.05518   5.10965
          Condensed to atoms (all electrons):
               1          2          3          4          5          6
     1  O    8.316001   0.305215  -0.082679  -0.083297   0.004564  -0.000015
     2  N    0.305215   5.720831   0.300076   0.264676  -0.053884   0.000971
     3  O   -0.082679   0.300076   8.354151  -0.091384   0.001978   0.000830
     4  C   -0.083297   0.264676  -0.091384   5.231261   0.553812  -0.047885
     5  C    0.004564  -0.053884   0.001978   0.553812   4.719232   0.319893
     6  N   -0.000015   0.000971   0.000830  -0.047885   0.319893   7.191405
     7  C    0.000003  -0.000136   0.000001   0.006078  -0.030119   0.170122
     8  H   -0.000000   0.000002  -0.000000  -0.000318   0.003275  -0.049923
     9  C   -0.000000  -0.000004  -0.000000   0.000970   0.000284  -0.062640
    10  C   -0.000000   0.000000   0.000000  -0.000044  -0.000043   0.003787
    11  C   -0.000000  -0.000000  -0.000000  -0.000021   0.000021  -0.000184
    12  C    0.000000   0.000002  -0.000000  -0.000193  -0.000179   0.003891
    13  C   -0.000019  -0.000009  -0.000002  -0.011026  -0.000859  -0.049154
    14  H   -0.000002  -0.000087   0.000001   0.002182   0.005299  -0.006594
    15  N    0.000526   0.002163  -0.000015  -0.064081  -0.006097   0.001601
    16  C   -0.000390  -0.025748   0.002703   0.325294  -0.052980  -0.001311
    17  H    0.000243  -0.007541   0.017976  -0.022650   0.374538  -0.034058
    18  H    0.000001  -0.000051   0.000012   0.001495  -0.031578   0.338641
    19  H    0.000001  -0.000010   0.000000  -0.001403   0.001474  -0.000574
    20  H    0.000000  -0.000000   0.000000  -0.000088   0.000133  -0.000274
    21  H   -0.000000   0.000000  -0.000000   0.000001   0.000001  -0.000079
    22  H   -0.000000   0.000000  -0.000000  -0.000000  -0.000003  -0.000115
    23  H    0.000000  -0.000000   0.000000   0.000041  -0.000000  -0.000031
    24  H    0.000000   0.000000   0.000000   0.000000  -0.000000   0.000006
    25  H    0.000000  -0.000000   0.000000   0.000024   0.000000  -0.000091
    26  H    0.000000  -0.000000   0.000000   0.000006  -0.000002  -0.000061
    27  H    0.007090  -0.000774   0.000052  -0.064340   0.002102   0.000007
               7          8          9         10         11         12
     1  O    0.000003  -0.000000  -0.000000  -0.000000  -0.000000   0.000000
     2  N   -0.000136   0.000002  -0.000004   0.000000  -0.000000   0.000002
     3  O    0.000001  -0.000000  -0.000000   0.000000  -0.000000  -0.000000
     4  C    0.006078  -0.000318   0.000970  -0.000044  -0.000021  -0.000193
     5  C   -0.030119   0.003275   0.000284  -0.000043   0.000021  -0.000179
     6  N    0.170122  -0.049923  -0.062640   0.003787  -0.000184   0.003891
     7  C    5.025010   0.417753   0.351602  -0.054622  -0.009185  -0.061444
     8  H    0.417753   0.535986  -0.054206   0.000633  -0.000280  -0.002298
     9  C    0.351602  -0.054206   5.157768   0.325420  -0.050630  -0.005274
    10  C   -0.054622   0.000633   0.325420   5.118212   0.337159  -0.061211
    11  C   -0.009185  -0.000280  -0.050630   0.337159   5.120357   0.335953
    12  C   -0.061444  -0.002298  -0.005274  -0.061211   0.335953   5.119625
    13  C    0.333696  -0.037163  -0.061064  -0.000158  -0.050431   0.372527
    14  H   -0.046963  -0.000783   0.004425  -0.000405   0.004218  -0.036492
    15  N   -0.058696   0.003845  -0.014342   0.001511  -0.013274  -0.082820
    16  C   -0.002015  -0.000018  -0.001010  -0.000050   0.000014   0.002504
    17  H    0.001587  -0.000048  -0.000065   0.000001   0.000000   0.000000
    18  H   -0.021334  -0.004555   0.001385  -0.000084   0.000004  -0.000113
    19  H   -0.036887   0.004303   0.390767  -0.032131  -0.002171   0.000675
    20  H   -0.042713  -0.002073   0.399389  -0.035124   0.003929  -0.000424
    21  H    0.004609  -0.000075  -0.036426   0.402424  -0.034887   0.004362
    22  H   -0.004879   0.003552  -0.047010   0.397783  -0.045322  -0.001021
    23  H    0.000609   0.000033  -0.001978  -0.039001   0.399182  -0.037874
    24  H   -0.000131  -0.000103   0.004401  -0.038441   0.402369  -0.038632
    25  H    0.005199  -0.000027  -0.000420   0.004196  -0.033333   0.398125
    26  H   -0.003823   0.001646   0.000982  -0.002249  -0.041538   0.396582
    27  H   -0.000404   0.000008  -0.000050   0.000006   0.000013  -0.000036
              13         14         15         16         17         18
     1  O   -0.000019  -0.000002   0.000526  -0.000390   0.000243   0.000001
     2  N   -0.000009  -0.000087   0.002163  -0.025748  -0.007541  -0.000051
     3  O   -0.000002   0.000001  -0.000015   0.002703   0.017976   0.000012
     4  C   -0.011026   0.002182  -0.064081   0.325294  -0.022650   0.001495
     5  C   -0.000859   0.005299  -0.006097  -0.052980   0.374538  -0.031578
     6  N   -0.049154  -0.006594   0.001601  -0.001311  -0.034058   0.338641
     7  C    0.333696  -0.046963  -0.058696  -0.002015   0.001587  -0.021334
     8  H   -0.037163  -0.000783   0.003845  -0.000018  -0.000048  -0.004555
     9  C   -0.061064   0.004425  -0.014342  -0.001010  -0.000065   0.001385
    10  C   -0.000158  -0.000405   0.001511  -0.000050   0.000001  -0.000084
    11  C   -0.050431   0.004218  -0.013274   0.000014   0.000000   0.000004
    12  C    0.372527  -0.036492  -0.082820   0.002504   0.000000  -0.000113
    13  C    5.039583   0.404627   0.246021  -0.069573  -0.000033   0.003008
    14  H    0.404627   0.526276  -0.037016  -0.004757   0.000064  -0.000112
    15  N    0.246021  -0.037016   6.974418   0.582868  -0.000068  -0.000139
    16  C   -0.069573  -0.004757   0.582868   4.721731   0.001967  -0.000197
    17  H   -0.000033   0.000064  -0.000068   0.001967   0.374746  -0.002822
    18  H    0.003008  -0.000112  -0.000139  -0.000197  -0.002822   0.310012
    19  H   -0.007529   0.000103   0.007525   0.002897   0.000017  -0.000152
    20  H    0.004386  -0.000067   0.000131  -0.000037  -0.000000   0.000843
    21  H   -0.000442   0.000010  -0.000043   0.000004  -0.000000   0.000001
    22  H    0.000033  -0.000054   0.000022  -0.000002   0.000000   0.000001
    23  H   -0.007647   0.000003   0.008693   0.000123   0.000000   0.000000
    24  H    0.004705  -0.000058   0.000128   0.000007   0.000000  -0.000000
    25  H   -0.035506  -0.002852   0.000604  -0.000030  -0.000000   0.000002
    26  H   -0.047573  -0.001042   0.004943  -0.000051   0.000000   0.000000
    27  H    0.004945  -0.000169  -0.040236   0.404707  -0.000083   0.000001
              19         20         21         22         23         24
     1  O    0.000001   0.000000  -0.000000  -0.000000   0.000000   0.000000
     2  N   -0.000010  -0.000000   0.000000   0.000000  -0.000000   0.000000
     3  O    0.000000   0.000000  -0.000000  -0.000000   0.000000   0.000000
     4  C   -0.001403  -0.000088   0.000001  -0.000000   0.000041   0.000000
     5  C    0.001474   0.000133   0.000001  -0.000003  -0.000000  -0.000000
     6  N   -0.000574  -0.000274  -0.000079  -0.000115  -0.000031   0.000006
     7  C   -0.036887  -0.042713   0.004609  -0.004879   0.000609  -0.000131
     8  H    0.004303  -0.002073  -0.000075   0.003552   0.000033  -0.000103
     9  C    0.390767   0.399389  -0.036426  -0.047010  -0.001978   0.004401
    10  C   -0.032131  -0.035124   0.402424   0.397783  -0.039001  -0.038441
    11  C   -0.002171   0.003929  -0.034887  -0.045322   0.399182   0.402369
    12  C    0.000675  -0.000424   0.004362  -0.001021  -0.037874  -0.038632
    13  C   -0.007529   0.004386  -0.000442   0.000033  -0.007647   0.004705
    14  H    0.000103  -0.000067   0.000010  -0.000054   0.000003  -0.000058
    15  N    0.007525   0.000131  -0.000043   0.000022   0.008693   0.000128
    16  C    0.002897  -0.000037   0.000004  -0.000002   0.000123   0.000007
    17  H    0.000017  -0.000000  -0.000000   0.000000   0.000000   0.000000
    18  H   -0.000152   0.000843   0.000001   0.000001   0.000000  -0.000000
    19  H    0.504422  -0.024798  -0.002778   0.003960   0.001513  -0.000068
    20  H   -0.024798   0.541282  -0.002709  -0.002983  -0.000045  -0.000083
    21  H   -0.002778  -0.002709   0.523914  -0.027392  -0.002886  -0.002245
    22  H    0.003960  -0.002983  -0.027392   0.571211   0.004129  -0.003646
    23  H    0.001513  -0.000045  -0.002886   0.004129   0.498571  -0.025444
    24  H   -0.000068  -0.000083  -0.002245  -0.003646  -0.025444   0.538022
    25  H   -0.000029   0.000012  -0.000086  -0.000081  -0.002300  -0.002307
    26  H    0.000019  -0.000030  -0.000080   0.002380   0.004070  -0.003025
    27  H    0.000078   0.000000  -0.000000   0.000000  -0.000037  -0.000000
              25         26         27
     1  O    0.000000   0.000000   0.007090
     2  N   -0.000000  -0.000000  -0.000774
     3  O    0.000000   0.000000   0.000052
     4  C    0.000024   0.000006  -0.064340
     5  C    0.000000  -0.000002   0.002102
     6  N   -0.000091  -0.000061   0.000007
     7  C    0.005199  -0.003823  -0.000404
     8  H   -0.000027   0.001646   0.000008
     9  C   -0.000420   0.000982  -0.000050
    10  C    0.004196  -0.002249   0.000006
    11  C   -0.033333  -0.041538   0.000013
    12  C    0.398125   0.396582  -0.000036
    13  C   -0.035506  -0.047573   0.004945
    14  H   -0.002852  -0.001042  -0.000169
    15  N    0.000604   0.004943  -0.040236
    16  C   -0.000030  -0.000051   0.404707
    17  H   -0.000000   0.000000  -0.000083
    18  H    0.000002   0.000000   0.000001
    19  H   -0.000029   0.000019   0.000078
    20  H    0.000012  -0.000030   0.000000
    21  H   -0.000086  -0.000080  -0.000000
    22  H   -0.000081   0.002380   0.000000
    23  H   -0.002300   0.004070  -0.000037
    24  H   -0.002307  -0.003025  -0.000000
    25  H    0.505991  -0.024069  -0.000014
    26  H   -0.024069   0.563112   0.000001
    27  H   -0.000014   0.000001   0.432241
 Mulliken charges:
               1
     1  O   -0.467243
     2  N    0.494308
     3  O   -0.503699
     4  C    0.000889
     5  C    0.189137
     6  N   -0.778164
     7  C    0.057081
     8  H    0.180834
     9  C   -0.302274
    10  C   -0.327569
    11  C   -0.321964
    12  C   -0.306235
    13  C   -0.035345
    14  H    0.190246
    15  N   -0.518173
    16  C    0.113352
    17  H    0.296228
    18  H    0.405732
    19  H    0.190777
    20  H    0.161342
    21  H    0.174802
    22  H    0.149436
    23  H    0.200276
    24  H    0.164545
    25  H    0.186990
    26  H    0.149802
    27  H    0.254891
 Sum of Mulliken charges =  -0.00000
 Mulliken charges with hydrogens summed into heavy atoms:
               1
     1  O   -0.467243
     2  N    0.494308
     3  O   -0.503699
     4  C    0.000889
     5  C    0.485365
     6  N   -0.372432
     7  C    0.237915
     9  C    0.049845
    10  C   -0.003331
    11  C    0.042857
    12  C    0.030557
    13  C    0.154901
    15  N   -0.518173
    16  C    0.368242
 Electronic spatial extent (au):  <R**2>=           3000.4539
 Charge=             -0.0000 electrons
 Dipole moment (field-independent basis, Debye):
    X=              5.3935    Y=              4.7108    Z=              1.6413  Tot=              7.3468
 Quadrupole moment (field-independent basis, Debye-Ang):
   XX=           -105.8766   YY=            -79.0423   ZZ=            -81.8668
   XY=             -1.0922   XZ=             -1.9445   YZ=              1.7521
 Traceless Quadrupole moment (field-independent basis, Debye-Ang):
   XX=            -16.9480   YY=              9.8863   ZZ=              7.0617
   XY=             -1.0922   XZ=             -1.9445   YZ=              1.7521
 Octapole moment (field-independent basis, Debye-Ang**2):
  XXX=             90.0562  YYY=             34.4806  ZZZ=              0.4979  XYY=             -5.5033
  XXY=              6.9480  XXZ=             13.1164  XZZ=             -8.3925  YZZ=              0.1218
  YYZ=              9.2341  XYZ=              1.0910
 Hexadecapole moment (field-independent basis, Debye-Ang**3):
 XXXX=          -3354.1449 YYYY=           -597.7049 ZZZZ=           -316.9103 XXXY=             -2.0775
 XXXZ=            -70.8662 YYYX=              5.0579 YYYZ=             24.0354 ZZZX=            -25.4803
 ZZZY=              4.1936 XXYY=           -622.9189 XXZZ=           -528.4776 YYZZ=           -159.5057
 XXYZ=             -6.1206 YYXZ=             -9.8656 ZZXY=              5.8952
 N-N= 9.311895705652D+02 E-N=-3.409092787745D+03  KE= 6.596264020872D+02
 Unable to Open any file for archive entry.
 1\1\GINC-LOTUS\FOpt\RMP2-FC\6-31G(d)\C9H13N3O2\ALEXEY\02-Jul-2023\0\\#
 MP2/6-31G* SCF=Tight Opt=(ModRedun, MaxCycle=20 ) NoSymm\\MolName:\\0,
 1\O,-3.5091180901,-1.3253470592,-0.5690795736\N,-3.1094859992,-0.19169
 4183,-0.2405513218\O,-3.8643040912,0.7934024789,-0.1246349457\C,-1.686
 053691,-0.0390076777,0.0341094152\C,-1.2952475539,1.2490703147,0.30602
 98045\N,-0.0554583923,1.7334636438,0.4642816505\C,1.2097875648,1.01799
 89545,0.3982855718\H,1.876774486,1.5537482267,1.0900393795\C,1.8647401
 44,1.0282715284,-0.9819364248\C,3.2716960072,0.4306578769,-0.865223457
 6\C,3.2540075901,-0.9632293542,-0.2323135794\C,2.5055584659,-0.9727942
 189,1.1022021207\C,1.0844464656,-0.4299177941,0.9104088286\H,0.5395944
 086,-0.4114454343,1.8669256291\N,0.4152896521,-1.3354381811,-0.0183854
 872\C,-0.8433063583,-1.1757247357,-0.2800376265\H,-2.0885234169,1.9852
 253768,0.4003359085\H,0.000597372,2.7220329598,0.6796203512\H,1.248648
 6409,0.4436956347,-1.6737031385\H,1.9107718663,2.0548594339,-1.3662114
 063\H,3.7410080362,0.3919576312,-1.8549287586\H,3.8893952607,1.1030419
 109,-0.2529819197\H,2.7558965251,-1.6655910122,-0.9080802165\H,4.28085
 14346,-1.3204017218,-0.0901573626\H,2.4402611221,-1.9933555662,1.49328
 19249\H,3.037722718,-0.3674837528,1.8490677038\H,-1.3125601673,-1.9550
 152803,-0.8793430693\\Version=ES64L-G16RevC.02\HF=-661.2993208\MP2=-66
 3.3338559\RMSD=7.980e-09\RMSF=1.015e-03\Dipole=1.9794012,1.6693117,0.5
 853087\PG=C01 [X(C9H13N3O2)]\\@
 The archive entry for this job was punched.


 THE ONLY DIFFERENCE BETWEEN ECCENTRICS AND JOGGERS
 IS THAT JOGGERS WEAR SWEATBANDS WHEN THEY RUN IN THE RAIN.
 Job cpu time:       0 days  1 hours 16 minutes 47.6 seconds.
 Elapsed time:       0 days  0 hours 23 minutes  5.8 seconds.
 File lengths (MBytes):  RWF=     36 Int=      0 D2E=      0 Chk=      7 Scr=      1
 Normal termination of Gaussian 16 at Sun Jul  2 02:47:59 2023.
