 Entering Gaussian System, Link 0=g16
 Initial command:
 /home/alexey/programs//g16/l1.exe "/home/alexey/tmp/Gau-1421136.inp" -scrdir="/home/alexey/tmp/"
 Entering Link 1 = /home/alexey/programs//g16/l1.exe PID=   1421138.
  
 Copyright (c) 1988-2021, Gaussian, Inc.  All Rights Reserved.
  
 This is part of the Gaussian(R) 16 program.  It is based on
 the Gaussian(R) 09 system (copyright 2009, Gaussian, Inc.),
 the Gaussian(R) 03 system (copyright 2003, Gaussian, Inc.),
 the Gaussian(R) 98 system (copyright 1998, Gaussian, Inc.),
 the Gaussian(R) 94 system (copyright 1995, Gaussian, Inc.),
 the Gaussian 92(TM) system (copyright 1992, Gaussian, Inc.),
 the Gaussian 90(TM) system (copyright 1990, Gaussian, Inc.),
 the Gaussian 88(TM) system (copyright 1988, Gaussian, Inc.),
 the Gaussian 86(TM) system (copyright 1986, Carnegie Mellon
 University), and the Gaussian 82(TM) system (copyright 1983,
 Carnegie Mellon University). Gaussian is a federally registered
 trademark of Gaussian, Inc.
  
 This software contains proprietary and confidential information,
 including trade secrets, belonging to Gaussian, Inc.
  
 This software is provided under written license and may be
 used, copied, transmitted, or stored only in accord with that
 written license.
  
 The following legend is applicable only to US Government
 contracts under FAR:
  
                    RESTRICTED RIGHTS LEGEND
  
 Use, reproduction and disclosure by the US Government is
 subject to restrictions as set forth in subparagraphs (a)
 and (c) of the Commercial Computer Software - Restricted
 Rights clause in FAR 52.227-19.
  
 Gaussian, Inc.
 340 Quinnipiac St., Bldg. 40, Wallingford CT 06492
  
  
 ---------------------------------------------------------------
 Warning -- This program may not be used in any manner that
 competes with the business of Gaussian, Inc. or will provide
 assistance to any competitor of Gaussian, Inc.  The licensee
 of this program is prohibited from giving any competitor of
 Gaussian, Inc. access to this program.  By using this program,
 the user acknowledges that Gaussian, Inc. is engaged in the
 business of creating and licensing software in the field of
 computational chemistry and represents and warrants to the
 licensee that it is not a competitor of Gaussian, Inc. and that
 it will not use this program in any manner prohibited above.
 ---------------------------------------------------------------
  

 Cite this work as:
 Gaussian 16, Revision C.02,
 M. J. Frisch, G. W. Trucks, H. B. Schlegel, G. E. Scuseria, 
 M. A. Robb, J. R. Cheeseman, G. Scalmani, V. Barone, 
 G. A. Petersson, H. Nakatsuji, X. Li, M. Caricato, A. V. Marenich, 
 J. Bloino, B. G. Janesko, R. Gomperts, B. Mennucci, H. P. Hratchian, 
 J. V. Ortiz, A. F. Izmaylov, J. L. Sonnenberg, D. Williams-Young, 
 F. Ding, F. Lipparini, F. Egidi, J. Goings, B. Peng, A. Petrone, 
 T. Henderson, D. Ranasinghe, V. G. Zakrzewski, J. Gao, N. Rega, 
 G. Zheng, W. Liang, M. Hada, M. Ehara, K. Toyota, R. Fukuda, 
 J. Hasegawa, M. Ishida, T. Nakajima, Y. Honda, O. Kitao, H. Nakai, 
 T. Vreven, K. Throssell, J. A. Montgomery, Jr., J. E. Peralta, 
 F. Ogliaro, M. J. Bearpark, J. J. Heyd, E. N. Brothers, K. N. Kudin, 
 V. N. Staroverov, T. A. Keith, R. Kobayashi, J. Normand, 
 K. Raghavachari, A. P. Rendell, J. C. Burant, S. S. Iyengar, 
 J. Tomasi, M. Cossi, J. M. Millam, M. Klene, C. Adamo, R. Cammi, 
 J. W. Ochterski, R. L. Martin, K. Morokuma, O. Farkas, 
 J. B. Foresman, and D. J. Fox, Gaussian, Inc., Wallingford CT, 2019.
 
 ******************************************
 Gaussian 16:  ES64L-G16RevC.02  7-Dec-2021
                 2-Jul-2023 
 ******************************************
 %mem=8GB
 %NPROCS=4
 Will use up to    4 processors via shared memory.
 %NoSave
 ---------------------------------------------------------
 #MP2/6-31G* SCF=Tight Opt=(ModRedun, MaxCycle=20 ) NoSymm
 ---------------------------------------------------------
 1/6=20,18=120,19=15,38=1/1,3;
 2/9=110,12=2,15=1,17=6,18=5,40=1/2;
 3/5=1,6=6,7=1,11=9,25=1,30=1,71=1/1,2,3;
 4//1;
 5/5=2,32=2,38=5/2;
 8/6=4,10=2/1;
 9/15=2,16=-3/6;
 10/5=1,31=1/2;
 6/7=2,8=2,9=2,10=2/1;
 7/12=2,30=1/1,2,3,16;
 1/6=20,18=20,19=15/3(2);
 2/9=110,15=1/2;
 99//99;
 2/9=110,15=1/2;
 3/5=1,6=6,7=1,11=9,25=1,30=1,71=1/1,2,3;
 4/5=5,16=3,69=1/1;
 5/5=2,32=2,38=5/2;
 8/6=4,10=2/1;
 9/15=2,16=-3/6;
 10/5=1,31=1/2;
 7/12=2,30=1/1,2,3,16;
 1/6=20,18=20,19=15/3(-8);
 2/9=110,15=1/2;
 6/7=2,8=2,9=2,10=2/1;
 99/9=10/99;
 --------
 MolName:
 --------
 Symbolic Z-matrix:
 Charge =  0 Multiplicity = 1
 8                    0    -3.64171  -1.40386  -0.29812 
 7                    0    -3.26264  -0.24732  -0.1215 
 8                    0    -4.0283    0.71219  -0.02062 
 6                    0    -1.75581   0.00191  -0.03397 
 6                    0    -1.36325   1.31007   0.27273 
 7                    0    -0.07958   1.75219   0.45585 
 6                    0     1.20205   0.98904   0.39246 
 1                    0     1.88278   1.48928   1.12947 
 6                    0     1.93106   1.04484  -0.97338 
 6                    0     3.3505    0.46567  -0.82014 
 6                    0     3.31081  -0.95077  -0.22488 
 6                    0     2.49564  -0.9887    1.08578 
 6                    0     1.05042  -0.46059   0.87332 
 1                    0     0.52316  -0.50186   1.85517 
 7                    0     0.37522  -1.33614  -0.08669 
 6                    0    -0.87445  -1.15182  -0.35989 
 1                    0    -2.15005   2.06673   0.42818 
 1                    0     0.15485   2.74128   0.3419 
 1                    0     1.36489   0.46556  -1.73346 
 1                    0     2.00243   2.09545  -1.32664 
 1                    0     3.86029   0.44461  -1.80819 
 1                    0     3.94168   1.1223   -0.14342 
 1                    0     2.84842  -1.64222  -0.96502 
 1                    0     4.3458   -1.30934  -0.03394 
 1                    0     2.45197  -2.03521   1.45944 
 1                    0     3.00573  -0.3748    1.85736 
 1                    0    -1.38091  -1.93548  -0.9438 
 
 The following ModRedundant input section has been read:
 D       2       4      16      15 F                                           
 D       1       2       4      16 F                                           
 D       7      13      15      16 F                                           
 D       7       9      10      11 F                                           
 D       9      10      11      12 F                                           
 D       6       7      13      15 F                                           
 

 GradGradGradGradGradGradGradGradGradGradGradGradGradGradGradGradGradGrad
 Berny optimization.
 Initialization pass.
                           ----------------------------
                           !    Initial Parameters    !
                           ! (Angstroms and Degrees)  !
 --------------------------                            --------------------------
 ! Name  Definition              Value          Derivative Info.                !
 --------------------------------------------------------------------------------
 ! R1    R(1,2)                  1.2298         estimate D2E/DX2                !
 ! R2    R(2,3)                  1.2317         estimate D2E/DX2                !
 ! R3    R(2,4)                  1.5298         estimate D2E/DX2                !
 ! R4    R(4,5)                  1.3998         estimate D2E/DX2                !
 ! R5    R(4,16)                 1.488          estimate D2E/DX2                !
 ! R6    R(5,6)                  1.37           estimate D2E/DX2                !
 ! R7    R(5,17)                 1.1026         estimate D2E/DX2                !
 ! R8    R(6,7)                  1.493          estimate D2E/DX2                !
 ! R9    R(6,18)                 1.0229         estimate D2E/DX2                !
 ! R10   R(7,8)                  1.1211         estimate D2E/DX2                !
 ! R11   R(7,9)                  1.5492         estimate D2E/DX2                !
 ! R12   R(7,13)                 1.5348         estimate D2E/DX2                !
 ! R13   R(9,10)                 1.5407         estimate D2E/DX2                !
 ! R14   R(9,19)                 1.1108         estimate D2E/DX2                !
 ! R15   R(9,20)                 1.1107         estimate D2E/DX2                !
 ! R16   R(10,11)                1.5369         estimate D2E/DX2                !
 ! R17   R(10,21)                1.112          estimate D2E/DX2                !
 ! R18   R(10,22)                1.1129         estimate D2E/DX2                !
 ! R19   R(11,12)                1.5439         estimate D2E/DX2                !
 ! R20   R(11,23)                1.1134         estimate D2E/DX2                !
 ! R21   R(11,24)                1.1119         estimate D2E/DX2                !
 ! R22   R(12,13)                1.5533         estimate D2E/DX2                !
 ! R23   R(12,25)                1.1121         estimate D2E/DX2                !
 ! R24   R(12,26)                1.1101         estimate D2E/DX2                !
 ! R25   R(13,14)                1.1152         estimate D2E/DX2                !
 ! R26   R(13,15)                1.4643         estimate D2E/DX2                !
 ! R27   R(15,16)                1.2924         estimate D2E/DX2                !
 ! R28   R(16,27)                1.1007         estimate D2E/DX2                !
 ! A1    A(1,2,3)              123.5559         estimate D2E/DX2                !
 ! A2    A(1,2,4)              117.7119         estimate D2E/DX2                !
 ! A3    A(3,2,4)              118.7307         estimate D2E/DX2                !
 ! A4    A(2,4,5)              116.1685         estimate D2E/DX2                !
 ! A5    A(2,4,16)             116.3957         estimate D2E/DX2                !
 ! A6    A(5,4,16)             127.3355         estimate D2E/DX2                !
 ! A7    A(4,5,6)              126.4168         estimate D2E/DX2                !
 ! A8    A(4,5,17)             118.17           estimate D2E/DX2                !
 ! A9    A(6,5,17)             115.3608         estimate D2E/DX2                !
 ! A10   A(5,6,7)              129.3254         estimate D2E/DX2                !
 ! A11   A(5,6,18)             120.7925         estimate D2E/DX2                !
 ! A12   A(7,6,18)             107.0261         estimate D2E/DX2                !
 ! A13   A(6,7,8)              105.382          estimate D2E/DX2                !
 ! A14   A(6,7,9)              115.0224         estimate D2E/DX2                !
 ! A15   A(6,7,13)             112.6238         estimate D2E/DX2                !
 ! A16   A(8,7,9)              106.1283         estimate D2E/DX2                !
 ! A17   A(8,7,13)             105.9899         estimate D2E/DX2                !
 ! A18   A(9,7,13)             110.8992         estimate D2E/DX2                !
 ! A19   A(7,9,10)             109.4087         estimate D2E/DX2                !
 ! A20   A(7,9,19)             110.1601         estimate D2E/DX2                !
 ! A21   A(7,9,20)             110.164          estimate D2E/DX2                !
 ! A22   A(10,9,19)            109.9748         estimate D2E/DX2                !
 ! A23   A(10,9,20)            109.1481         estimate D2E/DX2                !
 ! A24   A(19,9,20)            107.9633         estimate D2E/DX2                !
 ! A25   A(9,10,11)            111.1721         estimate D2E/DX2                !
 ! A26   A(9,10,21)            109.9442         estimate D2E/DX2                !
 ! A27   A(9,10,22)            109.152          estimate D2E/DX2                !
 ! A28   A(11,10,21)           109.7861         estimate D2E/DX2                !
 ! A29   A(11,10,22)           108.7815         estimate D2E/DX2                !
 ! A30   A(21,10,22)           107.9342         estimate D2E/DX2                !
 ! A31   A(10,11,12)           111.411          estimate D2E/DX2                !
 ! A32   A(10,11,23)           109.0013         estimate D2E/DX2                !
 ! A33   A(10,11,24)           109.8575         estimate D2E/DX2                !
 ! A34   A(12,11,23)           109.2556         estimate D2E/DX2                !
 ! A35   A(12,11,24)           109.7411         estimate D2E/DX2                !
 ! A36   A(23,11,24)           107.4851         estimate D2E/DX2                !
 ! A37   A(11,12,13)           111.5171         estimate D2E/DX2                !
 ! A38   A(11,12,25)           109.2132         estimate D2E/DX2                !
 ! A39   A(11,12,26)           109.5015         estimate D2E/DX2                !
 ! A40   A(13,12,25)           109.2306         estimate D2E/DX2                !
 ! A41   A(13,12,26)           109.5463         estimate D2E/DX2                !
 ! A42   A(25,12,26)           107.7523         estimate D2E/DX2                !
 ! A43   A(7,13,12)            105.7868         estimate D2E/DX2                !
 ! A44   A(7,13,14)            110.9463         estimate D2E/DX2                !
 ! A45   A(7,13,15)            113.8851         estimate D2E/DX2                !
 ! A46   A(12,13,14)           107.8716         estimate D2E/DX2                !
 ! A47   A(12,13,15)           108.3858         estimate D2E/DX2                !
 ! A48   A(14,13,15)           109.6988         estimate D2E/DX2                !
 ! A49   A(13,15,16)           119.9461         estimate D2E/DX2                !
 ! A50   A(4,16,15)            129.5695         estimate D2E/DX2                !
 ! A51   A(4,16,27)            113.3084         estimate D2E/DX2                !
 ! A52   A(15,16,27)           117.0976         estimate D2E/DX2                !
 ! D1    D(1,2,4,5)           -175.1118         estimate D2E/DX2                !
 ! D2    D(1,2,4,16)             8.2577         Frozen                          !
 ! D3    D(3,2,4,5)              5.3164         estimate D2E/DX2                !
 ! D4    D(3,2,4,16)          -171.3141         estimate D2E/DX2                !
 ! D5    D(2,4,5,6)            177.1581         estimate D2E/DX2                !
 ! D6    D(2,4,5,17)            -0.0775         estimate D2E/DX2                !
 ! D7    D(16,4,5,6)            -6.6384         estimate D2E/DX2                !
 ! D8    D(16,4,5,17)          176.1259         estimate D2E/DX2                !
 ! D9    D(2,4,16,15)         -162.3766         Frozen                          !
 ! D10   D(2,4,16,27)           19.5002         estimate D2E/DX2                !
 ! D11   D(5,4,16,15)           21.4274         estimate D2E/DX2                !
 ! D12   D(5,4,16,27)         -156.6958         estimate D2E/DX2                !
 ! D13   D(4,5,6,7)             -0.544          estimate D2E/DX2                !
 ! D14   D(4,5,6,18)           157.7127         estimate D2E/DX2                !
 ! D15   D(17,5,6,7)           176.7593         estimate D2E/DX2                !
 ! D16   D(17,5,6,18)          -24.9841         estimate D2E/DX2                !
 ! D17   D(5,6,7,8)           -148.0326         estimate D2E/DX2                !
 ! D18   D(5,6,7,9)             95.4565         estimate D2E/DX2                !
 ! D19   D(5,6,7,13)           -32.9344         estimate D2E/DX2                !
 ! D20   D(18,6,7,8)            51.4071         estimate D2E/DX2                !
 ! D21   D(18,6,7,9)           -65.1039         estimate D2E/DX2                !
 ! D22   D(18,6,7,13)          166.5052         estimate D2E/DX2                !
 ! D23   D(6,7,9,10)           168.7589         estimate D2E/DX2                !
 ! D24   D(6,7,9,19)           -70.2316         estimate D2E/DX2                !
 ! D25   D(6,7,9,20)            48.7682         estimate D2E/DX2                !
 ! D26   D(8,7,9,10)            52.6741         estimate D2E/DX2                !
 ! D27   D(8,7,9,19)           173.6836         estimate D2E/DX2                !
 ! D28   D(8,7,9,20)           -67.3167         estimate D2E/DX2                !
 ! D29   D(13,7,9,10)          -61.9945         estimate D2E/DX2                !
 ! D30   D(13,7,9,19)           59.0151         estimate D2E/DX2                !
 ! D31   D(13,7,9,20)          178.0148         estimate D2E/DX2                !
 ! D32   D(6,7,13,12)         -166.0514         estimate D2E/DX2                !
 ! D33   D(6,7,13,14)          -49.3267         estimate D2E/DX2                !
 ! D34   D(6,7,13,15)           75.0229         Frozen                          !
 ! D35   D(8,7,13,12)          -51.3208         estimate D2E/DX2                !
 ! D36   D(8,7,13,14)           65.4039         estimate D2E/DX2                !
 ! D37   D(8,7,13,15)         -170.2464         estimate D2E/DX2                !
 ! D38   D(9,7,13,12)           63.4344         estimate D2E/DX2                !
 ! D39   D(9,7,13,14)         -179.841          estimate D2E/DX2                !
 ! D40   D(9,7,13,15)          -55.4913         estimate D2E/DX2                !
 ! D41   D(7,9,10,11)           54.8126         Frozen                          !
 ! D42   D(7,9,10,21)          176.5966         estimate D2E/DX2                !
 ! D43   D(7,9,10,22)          -65.1881         estimate D2E/DX2                !
 ! D44   D(19,9,10,11)         -66.3093         estimate D2E/DX2                !
 ! D45   D(19,9,10,21)          55.4747         estimate D2E/DX2                !
 ! D46   D(19,9,10,22)         173.6901         estimate D2E/DX2                !
 ! D47   D(20,9,10,11)         175.4243         estimate D2E/DX2                !
 ! D48   D(20,9,10,21)         -62.7917         estimate D2E/DX2                !
 ! D49   D(20,9,10,22)          55.4236         estimate D2E/DX2                !
 ! D50   D(9,10,11,12)         -52.8227         Frozen                          !
 ! D51   D(9,10,11,23)          67.8191         estimate D2E/DX2                !
 ! D52   D(9,10,11,24)        -174.65           estimate D2E/DX2                !
 ! D53   D(21,10,11,12)       -174.6987         estimate D2E/DX2                !
 ! D54   D(21,10,11,23)        -54.0569         estimate D2E/DX2                !
 ! D55   D(21,10,11,24)         63.474          estimate D2E/DX2                !
 ! D56   D(22,10,11,12)         67.3975         estimate D2E/DX2                !
 ! D57   D(22,10,11,23)       -171.9607         estimate D2E/DX2                !
 ! D58   D(22,10,11,24)        -54.4298         estimate D2E/DX2                !
 ! D59   D(10,11,12,13)         56.6471         estimate D2E/DX2                !
 ! D60   D(10,11,12,25)        177.4659         estimate D2E/DX2                !
 ! D61   D(10,11,12,26)        -64.7619         estimate D2E/DX2                !
 ! D62   D(23,11,12,13)        -63.8454         estimate D2E/DX2                !
 ! D63   D(23,11,12,25)         56.9734         estimate D2E/DX2                !
 ! D64   D(23,11,12,26)        174.7456         estimate D2E/DX2                !
 ! D65   D(24,11,12,13)        178.5418         estimate D2E/DX2                !
 ! D66   D(24,11,12,25)        -60.6393         estimate D2E/DX2                !
 ! D67   D(24,11,12,26)         57.1329         estimate D2E/DX2                !
 ! D68   D(11,12,13,7)         -60.4789         estimate D2E/DX2                !
 ! D69   D(11,12,13,14)       -179.2625         estimate D2E/DX2                !
 ! D70   D(11,12,13,15)         62.0266         estimate D2E/DX2                !
 ! D71   D(25,12,13,7)         178.7124         estimate D2E/DX2                !
 ! D72   D(25,12,13,14)         59.9288         estimate D2E/DX2                !
 ! D73   D(25,12,13,15)        -58.7821         estimate D2E/DX2                !
 ! D74   D(26,12,13,7)          60.904          estimate D2E/DX2                !
 ! D75   D(26,12,13,14)        -57.8796         estimate D2E/DX2                !
 ! D76   D(26,12,13,15)       -176.5905         estimate D2E/DX2                !
 ! D77   D(7,13,15,16)         -67.1606         Frozen                          !
 ! D78   D(12,13,15,16)        175.4051         estimate D2E/DX2                !
 ! D79   D(14,13,15,16)         57.8567         estimate D2E/DX2                !
 ! D80   D(13,15,16,4)          12.5083         estimate D2E/DX2                !
 ! D81   D(13,15,16,27)       -169.4279         estimate D2E/DX2                !
 --------------------------------------------------------------------------------
 Trust Radius=3.00D-01 FncErr=1.00D-07 GrdErr=1.00D-07 EigMax=2.50D+02 EigMin=1.00D-04
 Number of steps in this run=     20 maximum allowed number of steps=    162.
 GradGradGradGradGradGradGradGradGradGradGradGradGradGradGradGradGradGrad

                          Input orientation:                          
 ---------------------------------------------------------------------
 Center     Atomic      Atomic             Coordinates (Angstroms)
 Number     Number       Type             X           Y           Z
 ---------------------------------------------------------------------
      1          8           0       -3.641710   -1.403860   -0.298120
      2          7           0       -3.262640   -0.247320   -0.121500
      3          8           0       -4.028300    0.712190   -0.020620
      4          6           0       -1.755810    0.001910   -0.033970
      5          6           0       -1.363250    1.310070    0.272730
      6          7           0       -0.079580    1.752190    0.455850
      7          6           0        1.202050    0.989040    0.392460
      8          1           0        1.882780    1.489280    1.129470
      9          6           0        1.931060    1.044840   -0.973380
     10          6           0        3.350500    0.465670   -0.820140
     11          6           0        3.310810   -0.950770   -0.224880
     12          6           0        2.495640   -0.988700    1.085780
     13          6           0        1.050420   -0.460590    0.873320
     14          1           0        0.523160   -0.501860    1.855170
     15          7           0        0.375220   -1.336140   -0.086690
     16          6           0       -0.874450   -1.151820   -0.359890
     17          1           0       -2.150050    2.066730    0.428180
     18          1           0        0.154850    2.741280    0.341900
     19          1           0        1.364890    0.465560   -1.733460
     20          1           0        2.002430    2.095450   -1.326640
     21          1           0        3.860290    0.444610   -1.808190
     22          1           0        3.941680    1.122300   -0.143420
     23          1           0        2.848420   -1.642220   -0.965020
     24          1           0        4.345800   -1.309340   -0.033940
     25          1           0        2.451970   -2.035210    1.459440
     26          1           0        3.005730   -0.374800    1.857360
     27          1           0       -1.380910   -1.935480   -0.943800
 ---------------------------------------------------------------------
                    Distance matrix (angstroms):
                    1          2          3          4          5
     1  O    0.000000
     2  N    1.229827   0.000000
     3  O    2.168900   1.231695   0.000000
     4  C    2.366978   1.529808   2.380942   0.000000
     5  C    3.589243   2.487682   2.746999   1.399804   0.000000
     6  N    4.818495   3.803057   4.111084   2.472479   1.369968
     7  C    5.446548   4.661137   5.253936   3.147253   2.588080
     8  H    6.397520   5.572796   6.071857   4.099415   3.361968
     9  C    6.124367   5.419400   6.044202   3.945023   3.532084
    10  C    7.256628   6.688055   7.426082   5.187248   4.911905
    11  C    6.967653   6.611791   7.527928   5.158942   5.215923
    12  C    6.305125   5.930005   6.832199   4.506659   4.564693
    13  C    4.927283   4.431437   5.288472   2.985299   3.053154
    14  H    4.774558   4.278352   5.070335   3.002722   3.057082
    15  N    4.023060   3.797468   4.857058   2.516833   3.186517
    16  C    2.779401   2.564839   3.679186   1.487989   2.588443
    17  H    3.846759   2.625801   2.358818   2.152322   1.102612
    18  H    5.657356   4.563519   4.663408   3.360959   2.087528
    19  H    5.533622   4.951833   5.664022   3.583574   3.490092
    20  H    6.720070   5.887435   6.323670   4.492023   3.808229
    21  H    7.872557   7.352538   8.093013   5.906303   5.688991
    22  H    7.994574   7.333387   7.981469   5.807637   5.324539
    23  H    6.528657   6.324739   7.329694   4.976842   5.290199
    24  H    7.992436   7.682702   8.614657   6.240915   6.288768
    25  H    6.373426   6.192955   7.192544   4.907703   5.211054
    26  H    7.063534   6.574542   7.361110   5.137247   4.943463
    27  H    2.410547   2.658377   3.856305   2.172975   3.466100
                    6          7          8          9         10
     6  N    0.000000
     7  C    1.492981   0.000000
     8  H    2.091349   1.121079   0.000000
     9  C    2.566265   1.549222   2.149846   0.000000
    10  C    3.879270   2.521934   2.646310   1.540692   0.000000
    11  C    4.389092   2.931014   3.134865   2.538980   1.536949
    12  C    3.813273   2.462828   2.553016   2.948589   2.545291
    13  C    2.519440   1.534811   2.135516   2.540108   3.002688
    14  H    2.720686   2.196177   2.517905   3.517834   4.010891
    15  N    3.168434   2.513900   3.425607   2.979249   3.554822
    16  C    3.119379   3.075901   4.098283   3.615601   4.547341
    17  H    2.094409   3.521259   4.133881   4.434421   5.863254
    18  H    1.022859   2.041942   2.274536   2.786179   4.091567
    19  H    2.921470   2.195469   3.084247   1.110781   2.185589
    20  H    2.762221   2.195463   2.532634   1.110706   2.174860
    21  H    4.728448   3.493638   3.692117   2.186118   1.112013
    22  H    4.114173   2.794727   2.448263   2.176563   1.112927
    23  H    4.702560   3.387745   3.889170   2.839350   2.171699
    24  H    5.403411   3.917593   3.905415   3.500811   2.181603
    25  H    4.664798   3.441923   3.585371   3.959377   3.501177
    26  H    4.000932   2.694300   2.294697   3.344156   2.827413
    27  H    4.153479   4.124329   5.165182   4.455595   5.307264
                   11         12         13         14         15
    11  C    0.000000
    12  C    1.543946   0.000000
    13  C    2.560407   1.553287   0.000000
    14  H    3.507010   2.172476   1.115229   0.000000
    15  N    2.964000   2.447771   1.464275   2.118662   0.000000
    16  C    4.192261   3.670705   2.388248   2.698565   1.292396
    17  H    6.273180   5.599154   4.102256   3.972406   4.268677
    18  H    4.890047   4.466028   3.366961   3.597721   4.105802
    19  H    2.840494   3.367727   2.784232   3.810863   2.633898
    20  H    3.493593   3.946518   3.504210   4.365567   3.995134
    21  H    2.180799   3.505953   3.988139   5.045042   4.275552
    22  H    2.168468   2.838712   3.449447   4.280016   4.332064
    23  H    1.113425   2.181129   2.829938   3.828933   2.642322
    24  H    1.111861   2.186247   3.521793   4.339739   3.971021
    25  H    2.179576   1.112076   2.187992   2.495611   2.681810
    26  H    2.181866   1.110135   2.190646   2.485820   3.409265
    27  H    4.847550   4.476966   3.374699   3.676273   2.043976
                   16         17         18         19         20
    16  C    0.000000
    17  H    3.550672   0.000000
    18  H    4.087566   2.403128   0.000000
    19  H    3.085005   4.426199   3.309111   0.000000
    20  H    4.444750   4.508138   2.571901   1.796803   0.000000
    21  H    5.202300   6.614893   4.860850   2.496607   2.531562
    22  H    5.330440   6.190949   4.146892   3.098287   2.471380
    23  H    3.803477   6.378246   5.308336   2.689628   3.849240
    24  H    5.232788   7.335358   5.840620   3.863219   4.330710
    25  H    3.892995   6.250440   5.416688   4.198834   5.002667
    26  H    4.536051   5.880960   4.487103   4.036403   4.152903
    27  H    1.100716   4.300185   5.087599   3.732020   5.276547
                   21         22         23         24         25
    21  H    0.000000
    22  H    1.799263   0.000000
    23  H    2.467727   3.084285   0.000000
    24  H    2.541658   2.467422   1.794398   0.000000
    25  H    4.337082   3.841649   2.487895   2.518663   0.000000
    26  H    3.852008   2.668414   3.097891   2.499234   1.794980
    27  H    5.820840   6.190363   4.239538   5.832247   4.525094
                   26         27
    26  H    0.000000
    27  H    5.433676   0.000000
 Symmetry turned off by external request.
 Stoichiometry    C9H13N3O2
 Framework group  C1[X(C9H13N3O2)]
 Deg. of freedom    75
 Full point group                 C1      NOp   1
 Rotational constants (GHZ):           1.6658288           0.3992916           0.3550876
 Standard basis: 6-31G(d) (6D, 7F)
   236 basis functions,   444 primitive gaussians,   236 cartesian basis functions
    52 alpha electrons       52 beta electrons
       nuclear repulsion energy       916.9983432511 Hartrees.
 NAtoms=   27 NActive=   27 NUniq=   27 SFac= 1.00D+00 NAtFMM=   60 NAOKFM=F Big=F
 Integral buffers will be    131072 words long.
 Raffenetti 1 integral format.
 Two-electron integral symmetry is turned off.
 One-electron integrals computed using PRISM.
 NBasis=   236 RedAO= T EigKep=  1.26D-03  NBF=   236
 NBsUse=   236 1.00D-06 EigRej= -1.00D+00 NBFU=   236
 ExpMin= 1.61D-01 ExpMax= 5.48D+03 ExpMxC= 8.25D+02 IAcc=3 IRadAn=         5 AccDes= 0.00D+00
 Harris functional with IExCor=  205 and IRadAn=       5 diagonalized for initial guess.
 HarFok:  IExCor=  205 AccDes= 0.00D+00 IRadAn=         5 IDoV= 1 UseB2=F ITyADJ=14
 ICtDFT=  3500011 ScaDFX=  1.000000  1.000000  1.000000  1.000000
 FoFCou: FMM=F IPFlag=           0 FMFlag=      100000 FMFlg1=           0
         NFxFlg=           0 DoJE=T BraDBF=F KetDBF=T FulRan=T
         wScrn=  0.000000 ICntrl=       500 IOpCl=  0 I1Cent=   200000004 NGrid=           0
         NMat0=    1 NMatS0=      1 NMatT0=    0 NMatD0=    1 NMtDS0=    0 NMtDT0=    0
 Symmetry not used in FoFCou.
 Keep R1 ints in memory in canonical form, NReq=397720213.
 Requested convergence on RMS density matrix=1.00D-08 within 128 cycles.
 Requested convergence on MAX density matrix=1.00D-06.
 Requested convergence on             energy=1.00D-06.
 No special actions if energy rises.
 SCF Done:  E(RHF) =  -661.281945189     A.U. after   16 cycles
            NFock= 16  Conv=0.72D-08     -V/T= 2.0037
 ExpMin= 1.61D-01 ExpMax= 5.48D+03 ExpMxC= 8.25D+02 IAcc=3 IRadAn=         5 AccDes= 0.00D+00
 HarFok:  IExCor=  205 AccDes= 0.00D+00 IRadAn=         5 IDoV=-2 UseB2=F ITyADJ=14
 ICtDFT= 12500011 ScaDFX=  1.000000  1.000000  1.000000  1.000000
 Range of M.O.s used for correlation:    15   236
 NBasis=   236 NAE=    52 NBE=    52 NFC=    14 NFV=     0
 NROrb=    222 NOA=    38 NOB=    38 NVA=   184 NVB=   184
 Fully direct method using O(ONN) memory.
 JobTyp=1 Pass  1:  I=  15 to  52 NPSUse=  4 ParTrn=T ParDer=T DoDerP=T.
 Spin components of T(2) and E(2):
     alpha-alpha T2 =       0.9201161819D-01 E2=     -0.2718027692D+00
     alpha-beta  T2 =       0.4994925200D+00 E2=     -0.1493551573D+01
     beta-beta   T2 =       0.9201161819D-01 E2=     -0.2718027692D+00
 ANorm=    0.1297503663D+01
 E2 =    -0.2037157112D+01 EUMP2 =    -0.66331910230051D+03
          IDoAtm=111111111111111111111111111
          Differentiating once with respect to electric field.
                with respect to dipole field.
          Differentiating once with respect to nuclear coordinates.
 Keep R1 ints in memory in canonical form, NReq=397723379.
          There are     1 degrees of freedom in the 1st order CPHF.  IDoFFX=0 NUNeed=     1.
 LinEq1:  Iter=  0 NonCon=     1 RMS=4.63D-03 Max=1.14D-01 NDo=     1
 AX will form     1 AO Fock derivatives at one time.
 LinEq1:  Iter=  1 NonCon=     1 RMS=1.57D-03 Max=3.15D-02 NDo=     1
 LinEq1:  Iter=  2 NonCon=     1 RMS=6.44D-04 Max=1.86D-02 NDo=     1
 LinEq1:  Iter=  3 NonCon=     1 RMS=2.94D-04 Max=9.21D-03 NDo=     1
 LinEq1:  Iter=  4 NonCon=     1 RMS=9.09D-05 Max=2.20D-03 NDo=     1
 LinEq1:  Iter=  5 NonCon=     1 RMS=3.76D-05 Max=1.85D-03 NDo=     1
 LinEq1:  Iter=  6 NonCon=     1 RMS=1.55D-05 Max=5.80D-04 NDo=     1
 LinEq1:  Iter=  7 NonCon=     1 RMS=5.92D-06 Max=9.48D-05 NDo=     1
 LinEq1:  Iter=  8 NonCon=     1 RMS=2.35D-06 Max=5.64D-05 NDo=     1
 LinEq1:  Iter=  9 NonCon=     1 RMS=8.72D-07 Max=2.48D-05 NDo=     1
 LinEq1:  Iter= 10 NonCon=     1 RMS=4.25D-07 Max=1.45D-05 NDo=     1
 LinEq1:  Iter= 11 NonCon=     1 RMS=1.53D-07 Max=5.69D-06 NDo=     1
 LinEq1:  Iter= 12 NonCon=     1 RMS=5.38D-08 Max=7.92D-07 NDo=     1
 LinEq1:  Iter= 13 NonCon=     1 RMS=1.69D-08 Max=3.10D-07 NDo=     1
 LinEq1:  Iter= 14 NonCon=     1 RMS=5.26D-09 Max=1.35D-07 NDo=     1
 LinEq1:  Iter= 15 NonCon=     1 RMS=1.93D-09 Max=4.70D-08 NDo=     1
 LinEq1:  Iter= 16 NonCon=     1 RMS=7.24D-10 Max=1.31D-08 NDo=     1
 LinEq1:  Iter= 17 NonCon=     1 RMS=2.45D-10 Max=3.98D-09 NDo=     1
 LinEq1:  Iter= 18 NonCon=     1 RMS=8.52D-11 Max=1.05D-09 NDo=     1
 LinEq1:  Iter= 19 NonCon=     0 RMS=2.89D-11 Max=4.04D-10 NDo=     1
 Linear equations converged to 1.000D-10 1.000D-09 after    19 iterations.
 End of Minotr F.D. properties file   721 does not exist.
 End of Minotr F.D. properties file   722 does not exist.
 End of Minotr F.D. properties file   788 does not exist.

 **********************************************************************

            Population analysis using the SCF Density.

 **********************************************************************

 Alpha  occ. eigenvalues --  -20.59799 -20.59392 -15.85284 -15.63598 -15.56583
 Alpha  occ. eigenvalues --  -11.35964 -11.30444 -11.30102 -11.30087 -11.27641
 Alpha  occ. eigenvalues --  -11.24651 -11.23893 -11.23372 -11.22851  -1.58472
 Alpha  occ. eigenvalues --   -1.37963  -1.28747  -1.22638  -1.13295  -1.08388
 Alpha  occ. eigenvalues --   -1.01799  -1.00710  -0.93649  -0.88941  -0.84946
 Alpha  occ. eigenvalues --   -0.81532  -0.78007  -0.77010  -0.74392  -0.71172
 Alpha  occ. eigenvalues --   -0.70295  -0.69790  -0.67385  -0.64274  -0.63235
 Alpha  occ. eigenvalues --   -0.61725  -0.60195  -0.57439  -0.56514  -0.54867
 Alpha  occ. eigenvalues --   -0.53783  -0.50676  -0.49547  -0.48516  -0.47841
 Alpha  occ. eigenvalues --   -0.47712  -0.46222  -0.45630  -0.44019  -0.42117
 Alpha  occ. eigenvalues --   -0.39682  -0.33695
 Alpha virt. eigenvalues --    0.07418   0.11761   0.17846   0.21473   0.23593
 Alpha virt. eigenvalues --    0.24484   0.26286   0.27938   0.28545   0.28874
 Alpha virt. eigenvalues --    0.29782   0.31221   0.31824   0.32321   0.33291
 Alpha virt. eigenvalues --    0.33829   0.34308   0.35475   0.37640   0.38585
 Alpha virt. eigenvalues --    0.40549   0.41517   0.44156   0.45230   0.45550
 Alpha virt. eigenvalues --    0.46376   0.49780   0.53255   0.57561   0.59040
 Alpha virt. eigenvalues --    0.63370   0.68958   0.69214   0.72264   0.74065
 Alpha virt. eigenvalues --    0.74856   0.75606   0.75861   0.77950   0.79064
 Alpha virt. eigenvalues --    0.80594   0.83473   0.84792   0.85338   0.87911
 Alpha virt. eigenvalues --    0.88998   0.90447   0.90824   0.91962   0.93882
 Alpha virt. eigenvalues --    0.95091   0.97242   0.99121   1.00502   1.01966
 Alpha virt. eigenvalues --    1.02811   1.05037   1.06512   1.07085   1.08724
 Alpha virt. eigenvalues --    1.09644   1.10504   1.11691   1.12043   1.13236
 Alpha virt. eigenvalues --    1.13822   1.14127   1.15600   1.16250   1.17059
 Alpha virt. eigenvalues --    1.18116   1.20299   1.21422   1.22355   1.23076
 Alpha virt. eigenvalues --    1.23872   1.24509   1.25288   1.26886   1.27606
 Alpha virt. eigenvalues --    1.29257   1.31425   1.33291   1.36421   1.39285
 Alpha virt. eigenvalues --    1.43038   1.46916   1.47660   1.50738   1.52779
 Alpha virt. eigenvalues --    1.55480   1.56389   1.59793   1.61693   1.66201
 Alpha virt. eigenvalues --    1.68168   1.70249   1.72335   1.73576   1.76359
 Alpha virt. eigenvalues --    1.78053   1.80845   1.84378   1.88918   1.92157
 Alpha virt. eigenvalues --    1.93793   1.96107   1.97490   1.99222   2.01124
 Alpha virt. eigenvalues --    2.02813   2.03654   2.05958   2.09067   2.11843
 Alpha virt. eigenvalues --    2.12848   2.13234   2.17654   2.18574   2.19812
 Alpha virt. eigenvalues --    2.20461   2.22084   2.23858   2.25024   2.26062
 Alpha virt. eigenvalues --    2.29347   2.31920   2.33051   2.35318   2.36203
 Alpha virt. eigenvalues --    2.39143   2.40001   2.41988   2.43663   2.46296
 Alpha virt. eigenvalues --    2.48542   2.50345   2.50619   2.56743   2.57019
 Alpha virt. eigenvalues --    2.60620   2.63363   2.65518   2.68505   2.68768
 Alpha virt. eigenvalues --    2.69444   2.69764   2.74568   2.76340   2.81040
 Alpha virt. eigenvalues --    2.84826   2.86924   2.89895   2.91261   2.94958
 Alpha virt. eigenvalues --    2.97649   2.98427   3.02303   3.04285   3.05884
 Alpha virt. eigenvalues --    3.07172   3.13343   3.18827   3.22869   3.27208
 Alpha virt. eigenvalues --    3.31439   3.33771   3.37619   3.43169   3.60460
 Alpha virt. eigenvalues --    4.10389   4.23380   4.32137   4.36706   4.43618
 Alpha virt. eigenvalues --    4.52458   4.59482   4.60239   4.70850   4.77863
 Alpha virt. eigenvalues --    4.96881   4.99245   5.03244   5.09717
          Condensed to atoms (all electrons):
               1          2          3          4          5          6
     1  O    8.300908   0.311900  -0.089973  -0.078611   0.003557  -0.000012
     2  N    0.311900   5.680605   0.310320   0.265402  -0.047332   0.000802
     3  O   -0.089973   0.310320   8.330865  -0.087875   0.008025   0.000477
     4  C   -0.078611   0.265402  -0.087875   5.248996   0.566217  -0.047896
     5  C    0.003557  -0.047332   0.008025   0.566217   4.674534   0.309475
     6  N   -0.000012   0.000802   0.000477  -0.047896   0.309475   7.179227
     7  C    0.000002  -0.000094   0.000002   0.004942  -0.029029   0.199616
     8  H   -0.000000   0.000002  -0.000000  -0.000228   0.002534  -0.048626
     9  C   -0.000000  -0.000003   0.000000   0.000567   0.001362  -0.057148
    10  C   -0.000000   0.000000  -0.000000  -0.000022  -0.000055   0.003356
    11  C   -0.000000  -0.000000  -0.000000  -0.000011   0.000014  -0.000154
    12  C   -0.000000   0.000001  -0.000000  -0.000161  -0.000146   0.003669
    13  C   -0.000015  -0.000010  -0.000002  -0.009546   0.000287  -0.046189
    14  H   -0.000001  -0.000051   0.000000   0.002575   0.004281  -0.005485
    15  N    0.000289   0.001579  -0.000012  -0.061317  -0.003909   0.001965
    16  C    0.002683  -0.024876   0.002011   0.316019  -0.042279  -0.000662
    17  H    0.000137  -0.004383   0.012479  -0.025417   0.375819  -0.033075
    18  H    0.000000  -0.000034   0.000008   0.001096  -0.025114   0.329355
    19  H    0.000000  -0.000001   0.000000  -0.000892   0.000844   0.000394
    20  H    0.000000  -0.000000   0.000000  -0.000032   0.000019  -0.001375
    21  H   -0.000000  -0.000000  -0.000000   0.000000   0.000001  -0.000060
    22  H   -0.000000   0.000000  -0.000000  -0.000000  -0.000002  -0.000096
    23  H    0.000000  -0.000000   0.000000   0.000025  -0.000000  -0.000024
    24  H    0.000000   0.000000   0.000000   0.000000  -0.000000   0.000005
    25  H    0.000000  -0.000000   0.000000   0.000020  -0.000001  -0.000072
    26  H    0.000000  -0.000000   0.000000   0.000005  -0.000001  -0.000069
    27  H    0.005932  -0.000154   0.000024  -0.066858   0.002034   0.000022
               7          8          9         10         11         12
     1  O    0.000002  -0.000000  -0.000000  -0.000000  -0.000000  -0.000000
     2  N   -0.000094   0.000002  -0.000003   0.000000  -0.000000   0.000001
     3  O    0.000002  -0.000000   0.000000  -0.000000  -0.000000  -0.000000
     4  C    0.004942  -0.000228   0.000567  -0.000022  -0.000011  -0.000161
     5  C   -0.029029   0.002534   0.001362  -0.000055   0.000014  -0.000146
     6  N    0.199616  -0.048626  -0.057148   0.003356  -0.000154   0.003669
     7  C    5.016288   0.415732   0.341402  -0.049367  -0.007824  -0.064633
     8  H    0.415732   0.545591  -0.059677   0.001275  -0.000291  -0.002979
     9  C    0.341402  -0.059677   5.179489   0.318432  -0.053211  -0.005980
    10  C   -0.049367   0.001275   0.318432   5.126692   0.332746  -0.060379
    11  C   -0.007824  -0.000291  -0.053211   0.332746   5.124345   0.330580
    12  C   -0.064633  -0.002979  -0.005980  -0.060379   0.330580   5.137969
    13  C    0.327471  -0.039326  -0.051972  -0.001449  -0.047768   0.368895
    14  H   -0.040786  -0.000942   0.003858  -0.000389   0.003963  -0.040816
    15  N   -0.059497   0.004027  -0.012710   0.001412  -0.007708  -0.074733
    16  C   -0.001756  -0.000026  -0.000642  -0.000046   0.000005   0.002304
    17  H    0.001411  -0.000028  -0.000064   0.000001   0.000000   0.000001
    18  H   -0.029024  -0.003139   0.000924  -0.000120   0.000011  -0.000143
    19  H   -0.035039   0.004047   0.386659  -0.032744  -0.002210   0.000597
    20  H   -0.041810  -0.001824   0.397161  -0.037256   0.004133  -0.000369
    21  H    0.004058  -0.000077  -0.035854   0.400113  -0.035813   0.004220
    22  H   -0.004308   0.003515  -0.045674   0.395930  -0.045606  -0.001216
    23  H    0.000452   0.000033  -0.002004  -0.040101   0.396658  -0.036576
    24  H   -0.000142  -0.000101   0.004400  -0.038487   0.400312  -0.037865
    25  H    0.005039  -0.000008  -0.000373   0.004099  -0.033820   0.395199
    26  H   -0.004441   0.001543   0.001066  -0.002418  -0.042364   0.394547
    27  H   -0.000399   0.000008  -0.000055   0.000004   0.000006  -0.000020
              13         14         15         16         17         18
     1  O   -0.000015  -0.000001   0.000289   0.002683   0.000137   0.000000
     2  N   -0.000010  -0.000051   0.001579  -0.024876  -0.004383  -0.000034
     3  O   -0.000002   0.000000  -0.000012   0.002011   0.012479   0.000008
     4  C   -0.009546   0.002575  -0.061317   0.316019  -0.025417   0.001096
     5  C    0.000287   0.004281  -0.003909  -0.042279   0.375819  -0.025114
     6  N   -0.046189  -0.005485   0.001965  -0.000662  -0.033075   0.329355
     7  C    0.327471  -0.040786  -0.059497  -0.001756   0.001411  -0.029024
     8  H   -0.039326  -0.000942   0.004027  -0.000026  -0.000028  -0.003139
     9  C   -0.051972   0.003858  -0.012710  -0.000642  -0.000064   0.000924
    10  C   -0.001449  -0.000389   0.001412  -0.000046   0.000001  -0.000120
    11  C   -0.047768   0.003963  -0.007708   0.000005   0.000000   0.000011
    12  C    0.368895  -0.040816  -0.074733   0.002304   0.000001  -0.000143
    13  C    5.020749   0.403999   0.242094  -0.068866  -0.000048   0.003793
    14  H    0.403999   0.518849  -0.035580  -0.005151   0.000044   0.000005
    15  N    0.242094  -0.035580   6.944888   0.587546  -0.000052  -0.000119
    16  C   -0.068866  -0.005151   0.587546   4.699452   0.001598  -0.000199
    17  H   -0.000048   0.000044  -0.000052   0.001598   0.383202  -0.002107
    18  H    0.003793   0.000005  -0.000119  -0.000199  -0.002107   0.325093
    19  H   -0.006135   0.000064   0.006875   0.002388   0.000011  -0.000133
    20  H    0.003889  -0.000050   0.000084  -0.000033  -0.000003   0.002658
    21  H   -0.000388   0.000009  -0.000032   0.000002  -0.000000   0.000000
    22  H    0.000315  -0.000043   0.000004  -0.000001   0.000000   0.000002
    23  H   -0.005948   0.000007   0.006830   0.000081   0.000000   0.000000
    24  H    0.004154  -0.000059   0.000037   0.000005   0.000000  -0.000000
    25  H   -0.034363  -0.002674   0.000961  -0.000060  -0.000000   0.000003
    26  H   -0.044959  -0.000894   0.004213  -0.000043   0.000000  -0.000001
    27  H    0.004828  -0.000164  -0.040083   0.403045  -0.000061   0.000001
              19         20         21         22         23         24
     1  O    0.000000   0.000000  -0.000000  -0.000000   0.000000   0.000000
     2  N   -0.000001  -0.000000  -0.000000   0.000000  -0.000000   0.000000
     3  O    0.000000   0.000000  -0.000000  -0.000000   0.000000   0.000000
     4  C   -0.000892  -0.000032   0.000000  -0.000000   0.000025   0.000000
     5  C    0.000844   0.000019   0.000001  -0.000002  -0.000000  -0.000000
     6  N    0.000394  -0.001375  -0.000060  -0.000096  -0.000024   0.000005
     7  C   -0.035039  -0.041810   0.004058  -0.004308   0.000452  -0.000142
     8  H    0.004047  -0.001824  -0.000077   0.003515   0.000033  -0.000101
     9  C    0.386659   0.397161  -0.035854  -0.045674  -0.002004   0.004400
    10  C   -0.032744  -0.037256   0.400113   0.395930  -0.040101  -0.038487
    11  C   -0.002210   0.004133  -0.035813  -0.045606   0.396658   0.400312
    12  C    0.000597  -0.000369   0.004220  -0.001216  -0.036576  -0.037865
    13  C   -0.006135   0.003889  -0.000388   0.000315  -0.005948   0.004154
    14  H    0.000064  -0.000050   0.000009  -0.000043   0.000007  -0.000059
    15  N    0.006875   0.000084  -0.000032   0.000004   0.006830   0.000037
    16  C    0.002388  -0.000033   0.000002  -0.000001   0.000081   0.000005
    17  H    0.000011  -0.000003  -0.000000   0.000000   0.000000   0.000000
    18  H   -0.000133   0.002658   0.000000   0.000002   0.000000  -0.000000
    19  H    0.506184  -0.023928  -0.002582   0.003754   0.001643  -0.000071
    20  H   -0.023928   0.549485  -0.002631  -0.002953  -0.000049  -0.000090
    21  H   -0.002582  -0.002631   0.525872  -0.024683  -0.002810  -0.002064
    22  H    0.003754  -0.002953  -0.024683   0.569090   0.004059  -0.003590
    23  H    0.001643  -0.000049  -0.002810   0.004059   0.509372  -0.024969
    24  H   -0.000071  -0.000090  -0.002064  -0.003590  -0.024969   0.541000
    25  H   -0.000027   0.000011  -0.000086  -0.000083  -0.002078  -0.002389
    26  H    0.000022  -0.000035  -0.000073   0.002460   0.003822  -0.002760
    27  H    0.000072   0.000000  -0.000000   0.000000  -0.000022  -0.000000
              25         26         27
     1  O    0.000000   0.000000   0.005932
     2  N   -0.000000  -0.000000  -0.000154
     3  O    0.000000   0.000000   0.000024
     4  C    0.000020   0.000005  -0.066858
     5  C   -0.000001  -0.000001   0.002034
     6  N   -0.000072  -0.000069   0.000022
     7  C    0.005039  -0.004441  -0.000399
     8  H   -0.000008   0.001543   0.000008
     9  C   -0.000373   0.001066  -0.000055
    10  C    0.004099  -0.002418   0.000004
    11  C   -0.033820  -0.042364   0.000006
    12  C    0.395199   0.394547  -0.000020
    13  C   -0.034363  -0.044959   0.004828
    14  H   -0.002674  -0.000894  -0.000164
    15  N    0.000961   0.004213  -0.040083
    16  C   -0.000060  -0.000043   0.403045
    17  H   -0.000000   0.000000  -0.000061
    18  H    0.000003  -0.000001   0.000001
    19  H   -0.000027   0.000022   0.000072
    20  H    0.000011  -0.000035   0.000000
    21  H   -0.000086  -0.000073  -0.000000
    22  H   -0.000083   0.002460   0.000000
    23  H   -0.002078   0.003822  -0.000022
    24  H   -0.002389  -0.002760  -0.000000
    25  H    0.510046  -0.023128  -0.000012
    26  H   -0.023128   0.561984   0.000001
    27  H   -0.000012   0.000001   0.447949
 Mulliken charges:
               1
     1  O   -0.456796
     2  N    0.506328
     3  O   -0.486351
     4  C   -0.026996
     5  C    0.198864
     6  N   -0.787419
     7  C    0.051730
     8  H    0.178966
     9  C   -0.309952
    10  C   -0.321225
    11  C   -0.315992
    12  C   -0.311967
    13  C   -0.023491
    14  H    0.195432
    15  N   -0.507054
    16  C    0.127502
    17  H    0.290535
    18  H    0.397185
    19  H    0.190208
    20  H    0.154999
    21  H    0.172878
    22  H    0.149126
    23  H    0.191597
    24  H    0.162676
    25  H    0.183794
    26  H    0.151524
    27  H    0.243901
 Sum of Mulliken charges =  -0.00000
 Mulliken charges with hydrogens summed into heavy atoms:
               1
     1  O   -0.456796
     2  N    0.506328
     3  O   -0.486351
     4  C   -0.026996
     5  C    0.489399
     6  N   -0.390234
     7  C    0.230696
     9  C    0.035255
    10  C    0.000779
    11  C    0.038281
    12  C    0.023351
    13  C    0.171942
    15  N   -0.507054
    16  C    0.371403
 Electronic spatial extent (au):  <R**2>=           3130.2174
 Charge=             -0.0000 electrons
 Dipole moment (field-independent basis, Debye):
    X=              5.3976    Y=              4.5016    Z=              0.7806  Tot=              7.0717
 Quadrupole moment (field-independent basis, Debye-Ang):
   XX=           -105.5715   YY=            -80.0004   ZZ=            -82.4484
   XY=             -1.4532   XZ=             -0.2106   YZ=              0.2525
 Traceless Quadrupole moment (field-independent basis, Debye-Ang):
   XX=            -16.2314   YY=              9.3397   ZZ=              6.8917
   XY=             -1.4532   XZ=             -0.2106   YZ=              0.2525
 Octapole moment (field-independent basis, Debye-Ang**2):
  XXX=            102.2596  YYY=             35.8091  ZZZ=             -3.6025  XYY=             -1.8680
  XXY=             10.2697  XXZ=              5.4734  XZZ=             -7.5940  YZZ=             -2.7436
  YYZ=              2.5432  XYZ=             -0.7082
 Hexadecapole moment (field-independent basis, Debye-Ang**3):
 XXXX=          -3564.5130 YYYY=           -617.2497 ZZZZ=           -303.4024 XXXY=            -28.8411
 XXXZ=            -18.0718 YYYX=            -10.6216 YYYZ=             13.7356 ZZZX=             -0.2390
 ZZZY=              6.7753 XXYY=           -656.5683 XXZZ=           -545.8448 YYZZ=           -165.4808
 XXYZ=              1.4103 YYXZ=              1.8874 ZZXY=              3.9810
 N-N= 9.169983432511D+02 E-N=-3.380006087933D+03  KE= 6.588551656006D+02
 Calling FoFJK, ICntrl=  10002127 FMM=F ISym2X=0 I1Cent= 0 IOpClX= 0 NMat=1 NMatS=1 NMatT=0.
 -------------------------------------------------------------------
 Center     Atomic                   Forces (Hartrees/Bohr)
 Number     Number              X              Y              Z
 -------------------------------------------------------------------
      1        8           0.001932796   -0.019055918   -0.002828812
      2        7           0.039699936    0.012031559    0.002217037
      3        8          -0.004696608    0.016228032    0.002757659
      4        6          -0.003051793    0.006361235    0.007942139
      5        6           0.003639002   -0.015556462   -0.004566913
      6        7           0.014633658   -0.008087403   -0.007765260
      7        6          -0.004529229    0.005124352    0.003275614
      8        1          -0.010834601   -0.001627698   -0.007469584
      9        6          -0.003904935    0.000548775   -0.002122491
     10        6           0.002797732   -0.001009723    0.000868986
     11        6          -0.000952088   -0.004516123   -0.002244959
     12        6           0.000682068   -0.008965434   -0.002928718
     13        6           0.009041274   -0.001547936    0.003419833
     14        1           0.001050998    0.004179973   -0.010047106
     15        7           0.000260620   -0.001838152    0.006188337
     16        6          -0.021109538    0.010511431   -0.001300441
     17        1           0.007446910   -0.006763725   -0.004432670
     18        1          -0.018056396   -0.001940192    0.004698962
     19        1           0.003198306    0.005819564    0.007608641
     20        1          -0.003135414   -0.007457089    0.002694168
     21        1          -0.004121863    0.002405920    0.009717572
     22        1          -0.004168121   -0.003986156   -0.007273796
     23        1           0.004121289    0.006110542    0.009180900
     24        1          -0.009453429    0.002546970   -0.001919235
     25        1          -0.000921551    0.010610026   -0.002456103
     26        1          -0.004814012   -0.004785172   -0.004236810
     27        1           0.005244989    0.004658807    0.001023051
 -------------------------------------------------------------------
 Cartesian Forces:  Max     0.039699936 RMS     0.008343533

 GradGradGradGradGradGradGradGradGradGradGradGradGradGradGradGradGradGrad
 Berny optimization.
 FormGI is forming the generalized inverse of G from B-inverse, IUseBI=4.
 Internal  Forces:  Max     0.038003530 RMS     0.006946562
 Search for a local minimum.
 Step number   1 out of a maximum of   20
 All quantities printed in internal units (Hartrees-Bohrs-Radians)
 Mixed Optimization -- RFO/linear search
 Second derivative matrix not updated -- first step.
 ITU=  0
     Eigenvalues ---    0.00230   0.00773   0.01072   0.01170   0.01344
     Eigenvalues ---    0.01534   0.01587   0.01781   0.02018   0.02092
     Eigenvalues ---    0.02695   0.03657   0.04510   0.04689   0.04838
     Eigenvalues ---    0.05076   0.05139   0.05304   0.05891   0.06260
     Eigenvalues ---    0.07164   0.07694   0.07715   0.07857   0.07992
     Eigenvalues ---    0.08041   0.08048   0.10453   0.11703   0.12204
     Eigenvalues ---    0.13031   0.14796   0.15353   0.15990   0.15998
     Eigenvalues ---    0.20085   0.22088   0.23266   0.24935   0.25000
     Eigenvalues ---    0.25000   0.25379   0.26260   0.26649   0.27977
     Eigenvalues ---    0.28081   0.28487   0.29441   0.31455   0.31844
     Eigenvalues ---    0.32053   0.32240   0.32292   0.32381   0.32388
     Eigenvalues ---    0.32404   0.32517   0.32525   0.32586   0.33337
     Eigenvalues ---    0.33395   0.33603   0.35380   0.43885   0.44259
     Eigenvalues ---    0.49459   0.67108   0.90384   0.911591000.00000
     Eigenvalues --- 1000.000001000.000001000.000001000.000001000.00000
     Eigenvalues --- 1000.000001000.000001000.000001000.000001000.00000
     Eigenvalues --- 1000.000001000.000001000.000001000.000001000.00000
     Eigenvalues --- 1000.000001000.000001000.000001000.000001000.00000
     Eigenvalues --- 1000.000001000.000001000.000001000.000001000.00000
     Eigenvalues --- 1000.000001000.000001000.000001000.000001000.00000
     Eigenvalues --- 1000.000001000.000001000.000001000.000001000.00000
     Eigenvalues --- 1000.000001000.000001000.000001000.000001000.00000
     Eigenvalues --- 1000.000001000.000001000.000001000.000001000.00000
     Eigenvalues --- 1000.000001000.000001000.000001000.000001000.00000
     Eigenvalues --- 1000.000001000.000001000.000001000.000001000.00000
     Eigenvalues --- 1000.000001000.000001000.000001000.000001000.00000
     Eigenvalues --- 1000.000001000.000001000.000001000.000001000.00000
     Eigenvalues --- 1000.000001000.000001000.000001000.000001000.00000
     Eigenvalues --- 1000.000001000.000001000.000001000.000001000.00000
     Eigenvalues --- 1000.000001000.000001000.000001000.000001000.00000
     Eigenvalues --- 1000.000001000.000001000.000001000.000001000.00000
     Eigenvalues --- 1000.000001000.000001000.000001000.000001000.00000
     Eigenvalues --- 1000.00000
 RFO step:  Lambda=-2.40008653D-02 EMin= 2.30200100D-03
 Linear search not attempted -- first point.
 Iteration  1 RMS(Cart)=  0.05634175 RMS(Int)=  0.00113633
 Iteration  2 RMS(Cart)=  0.00124486 RMS(Int)=  0.00030287
 Iteration  3 RMS(Cart)=  0.00000100 RMS(Int)=  0.00030287
 Iteration  1 RMS(Cart)=  0.00008198 RMS(Int)=  0.00004136
 Iteration  2 RMS(Cart)=  0.00005224 RMS(Int)=  0.00004583
 Iteration  3 RMS(Cart)=  0.00003362 RMS(Int)=  0.00005245
 Iteration  4 RMS(Cart)=  0.00002192 RMS(Int)=  0.00005769
 Iteration  5 RMS(Cart)=  0.00001455 RMS(Int)=  0.00006137
 Iteration  6 RMS(Cart)=  0.00000988 RMS(Int)=  0.00006388
 Iteration  7 RMS(Cart)=  0.00000690 RMS(Int)=  0.00006559
 Iteration  8 RMS(Cart)=  0.00000497 RMS(Int)=  0.00006677
 Iteration  9 RMS(Cart)=  0.00000371 RMS(Int)=  0.00006760
 Iteration 10 RMS(Cart)=  0.00000285 RMS(Int)=  0.00006820
 Iteration 11 RMS(Cart)=  0.00000225 RMS(Int)=  0.00006864
 Iteration 12 RMS(Cart)=  0.00000182 RMS(Int)=  0.00006898
 Iteration 13 RMS(Cart)=  0.00000150 RMS(Int)=  0.00006924
 Iteration 14 RMS(Cart)=  0.00000125 RMS(Int)=  0.00006946
 Iteration 15 RMS(Cart)=  0.00000105 RMS(Int)=  0.00006963
 Iteration 16 RMS(Cart)=  0.00000089 RMS(Int)=  0.00006978
 Variable       Old X    -DE/DX   Delta X   Delta X   Delta X     New X
                                 (Linear)    (Quad)   (Total)
    R1        2.32404   0.01773   0.00000   0.01895   0.01895   2.34299
    R2        2.32757   0.01579   0.00000   0.01702   0.01702   2.34458
    R3        2.89092  -0.03800   0.00000  -0.11935  -0.11935   2.77157
    R4        2.64525  -0.03388   0.00000  -0.07336  -0.07311   2.57213
    R5        2.81189  -0.02362   0.00000  -0.06879  -0.06861   2.74328
    R6        2.58886  -0.02521   0.00000  -0.04806  -0.04787   2.54099
    R7        2.08363  -0.01058   0.00000  -0.02956  -0.02956   2.05408
    R8        2.82132  -0.01906   0.00000  -0.05146  -0.05147   2.76986
    R9        1.93292  -0.00654   0.00000  -0.01413  -0.01413   1.91880
   R10        2.11853  -0.01222   0.00000  -0.03608  -0.03608   2.08245
   R11        2.92760  -0.01291   0.00000  -0.04378  -0.04382   2.88378
   R12        2.90037  -0.00341   0.00000  -0.00507  -0.00503   2.89534
   R13        2.91148  -0.00454   0.00000  -0.01437  -0.01441   2.89708
   R14        2.09907  -0.00987   0.00000  -0.02827  -0.02827   2.07080
   R15        2.09893  -0.00811   0.00000  -0.02323  -0.02323   2.07570
   R16        2.90441  -0.00172   0.00000  -0.00701  -0.00701   2.89740
   R17        2.10140  -0.01057   0.00000  -0.03038  -0.03038   2.07102
   R18        2.10313  -0.00899   0.00000  -0.02591  -0.02591   2.07722
   R19        2.91764  -0.00913   0.00000  -0.02906  -0.02902   2.88862
   R20        2.10407  -0.01161   0.00000  -0.03351  -0.03351   2.07055
   R21        2.10111  -0.00995   0.00000  -0.02859  -0.02859   2.07252
   R22        2.93529  -0.01070   0.00000  -0.03643  -0.03640   2.89889
   R23        2.10152  -0.01077   0.00000  -0.03098  -0.03098   2.07054
   R24        2.09785  -0.00780   0.00000  -0.02230  -0.02230   2.07555
   R25        2.10748  -0.00950   0.00000  -0.02757  -0.02757   2.07991
   R26        2.76708  -0.00518   0.00000  -0.01075  -0.01122   2.75586
   R27        2.44227  -0.00450   0.00000  -0.00654  -0.00672   2.43556
   R28        2.08005  -0.00627   0.00000  -0.01742  -0.01742   2.06263
    A1        2.15646   0.01112   0.00000   0.04063   0.04059   2.19705
    A2        2.05446  -0.00694   0.00000  -0.02531  -0.02535   2.02911
    A3        2.07224  -0.00418   0.00000  -0.01521  -0.01525   2.05699
    A4        2.02752  -0.00853   0.00000  -0.02692  -0.02705   2.00047
    A5        2.03149  -0.00263   0.00000  -0.00557  -0.00584   2.02565
    A6        2.22242   0.01109   0.00000   0.03091   0.03096   2.25339
    A7        2.20639   0.00653   0.00000   0.01965   0.02003   2.22642
    A8        2.06246  -0.00359   0.00000  -0.01143  -0.01161   2.05085
    A9        2.01343  -0.00291   0.00000  -0.00785  -0.00808   2.00535
   A10        2.25715  -0.00634   0.00000  -0.02034  -0.02039   2.23676
   A11        2.10823  -0.01244   0.00000  -0.07100  -0.07175   2.03647
   A12        1.86796   0.01900   0.00000   0.10355   0.10377   1.97173
   A13        1.83926  -0.00199   0.00000  -0.01818  -0.01791   1.82135
   A14        2.00752  -0.00087   0.00000  -0.01323  -0.01325   1.99427
   A15        1.96566   0.00118   0.00000  -0.00105  -0.00173   1.96393
   A16        1.85229   0.00280   0.00000   0.02471   0.02456   1.87684
   A17        1.84987   0.00111   0.00000   0.02305   0.02276   1.87263
   A18        1.93556  -0.00190   0.00000  -0.01025  -0.00985   1.92570
   A19        1.90954   0.00019   0.00000  -0.00510  -0.00526   1.90428
   A20        1.92266  -0.00073   0.00000  -0.01362  -0.01359   1.90906
   A21        1.92272  -0.00170   0.00000  -0.00645  -0.00645   1.91628
   A22        1.91942  -0.00049   0.00000   0.00492   0.00485   1.92428
   A23        1.90499   0.00313   0.00000   0.02546   0.02549   1.93049
   A24        1.88432  -0.00037   0.00000  -0.00477  -0.00502   1.87930
   A25        1.94032  -0.00083   0.00000   0.00567   0.00559   1.94591
   A26        1.91889  -0.00073   0.00000  -0.00710  -0.00712   1.91177
   A27        1.90506   0.00028   0.00000  -0.00294  -0.00302   1.90204
   A28        1.91613   0.00072   0.00000   0.00693   0.00696   1.92309
   A29        1.89860   0.00178   0.00000   0.01142   0.01144   1.91003
   A30        1.88381  -0.00121   0.00000  -0.01445  -0.01453   1.86928
   A31        1.94449   0.00089   0.00000   0.00612   0.00619   1.95068
   A32        1.90243   0.00050   0.00000   0.00571   0.00572   1.90815
   A33        1.91737   0.00038   0.00000   0.00514   0.00509   1.92247
   A34        1.90687  -0.00126   0.00000  -0.01487  -0.01491   1.89196
   A35        1.91534  -0.00052   0.00000   0.00018   0.00011   1.91545
   A36        1.87597  -0.00003   0.00000  -0.00269  -0.00274   1.87323
   A37        1.94634  -0.00319   0.00000  -0.01901  -0.01897   1.92737
   A38        1.90613   0.00254   0.00000   0.01639   0.01627   1.92240
   A39        1.91116   0.00149   0.00000   0.01378   0.01368   1.92484
   A40        1.90643   0.00032   0.00000  -0.00301  -0.00290   1.90353
   A41        1.91194  -0.00019   0.00000  -0.00414  -0.00406   1.90788
   A42        1.88063  -0.00088   0.00000  -0.00348  -0.00366   1.87698
   A43        1.84633   0.00483   0.00000   0.02314   0.02308   1.86940
   A44        1.93638  -0.00438   0.00000  -0.02867  -0.02908   1.90729
   A45        1.98767   0.00066   0.00000   0.01021   0.01059   1.99826
   A46        1.88271   0.00211   0.00000   0.02864   0.02893   1.91165
   A47        1.89169  -0.00412   0.00000  -0.02969  -0.02970   1.86199
   A48        1.91461   0.00110   0.00000  -0.00152  -0.00149   1.91312
   A49        2.09345  -0.00608   0.00000  -0.01412  -0.01462   2.07883
   A50        2.26141  -0.00575   0.00000  -0.02711  -0.02703   2.23438
   A51        1.97760   0.00487   0.00000   0.02415   0.02394   2.00154
   A52        2.04374   0.00084   0.00000   0.00221   0.00201   2.04575
    D1       -3.05628  -0.00063   0.00000  -0.02530  -0.02471  -3.08099
    D2        0.14412   0.00014   0.00000   0.00000  -0.00000   0.14412
    D3        0.09279  -0.00111   0.00000  -0.04018  -0.03989   0.05290
    D4       -2.99000  -0.00034   0.00000  -0.01489  -0.01518  -3.00518
    D5        3.09199   0.00056   0.00000   0.00132   0.00087   3.09287
    D6       -0.00135  -0.00010   0.00000  -0.00835  -0.00895  -0.01030
    D7       -0.11586  -0.00095   0.00000  -0.02894  -0.02959  -0.14545
    D8        3.07398  -0.00160   0.00000  -0.03861  -0.03941   3.03457
    D9       -2.83401  -0.00061   0.00000   0.00000  -0.00000  -2.83401
   D10        0.34034   0.00076   0.00000   0.02859   0.02852   0.36886
   D11        0.37398   0.00109   0.00000   0.03102   0.03150   0.40547
   D12       -2.73486   0.00247   0.00000   0.05961   0.06002  -2.67484
   D13       -0.00949  -0.00087   0.00000  -0.00263  -0.00272  -0.01222
   D14        2.75261   0.00361   0.00000   0.06194   0.06026   2.81287
   D15        3.08503  -0.00025   0.00000   0.00669   0.00677   3.09180
   D16       -0.43606   0.00423   0.00000   0.07126   0.06975  -0.36630
   D17       -2.58366  -0.00043   0.00000   0.00307   0.00360  -2.58006
   D18        1.66603  -0.00209   0.00000  -0.00817  -0.00776   1.65828
   D19       -0.57481   0.00031   0.00000   0.01934   0.01930  -0.55551
   D20        0.89722   0.00028   0.00000  -0.02794  -0.02883   0.86839
   D21       -1.13628  -0.00139   0.00000  -0.03918  -0.04019  -1.17646
   D22        2.90606   0.00101   0.00000  -0.01168  -0.01313   2.89294
   D23        2.94540   0.00236   0.00000   0.03006   0.03001   2.97541
   D24       -1.22577   0.00140   0.00000   0.02428   0.02424  -1.20153
   D25        0.85117  -0.00057   0.00000   0.00588   0.00591   0.85708
   D26        0.91934   0.00344   0.00000   0.04341   0.04339   0.96273
   D27        3.03135   0.00248   0.00000   0.03764   0.03762   3.06897
   D28       -1.17490   0.00051   0.00000   0.01924   0.01929  -1.15560
   D29       -1.08201   0.00152   0.00000   0.00764   0.00764  -1.07437
   D30        1.03001   0.00057   0.00000   0.00186   0.00187   1.03188
   D31        3.10694  -0.00140   0.00000  -0.01654  -0.01646   3.09049
   D32       -2.89814  -0.00079   0.00000  -0.01547  -0.01520  -2.91334
   D33       -0.86091   0.00224   0.00000   0.01709   0.01700  -0.84391
   D34        1.30940   0.00072   0.00000   0.00000   0.00001   1.30941
   D35       -0.89572  -0.00192   0.00000  -0.02413  -0.02410  -0.91981
   D36        1.14151   0.00111   0.00000   0.00843   0.00810   1.14961
   D37       -2.97136  -0.00041   0.00000  -0.00866  -0.00889  -2.98025
   D38        1.10714   0.00106   0.00000   0.01268   0.01276   1.11990
   D39       -3.13882   0.00409   0.00000   0.04524   0.04496  -3.09386
   D40       -0.96851   0.00257   0.00000   0.02815   0.02796  -0.94054
   D41        0.95666   0.00076   0.00000   0.00000   0.00000   0.95666
   D42        3.08219   0.00062   0.00000   0.00770   0.00766   3.08985
   D43       -1.13775  -0.00112   0.00000  -0.01580  -0.01578  -1.15352
   D44       -1.15732   0.00186   0.00000   0.01700   0.01707  -1.14024
   D45        0.96822   0.00172   0.00000   0.02470   0.02473   0.99295
   D46        3.03146  -0.00002   0.00000   0.00120   0.00129   3.03276
   D47        3.06173   0.00072   0.00000   0.00463   0.00460   3.06633
   D48       -1.09592   0.00058   0.00000   0.01234   0.01226  -1.08366
   D49        0.96733  -0.00116   0.00000  -0.01117  -0.01118   0.95615
   D50       -0.92193  -0.00077   0.00000   0.00000   0.00000  -0.92193
   D51        1.18367  -0.00145   0.00000  -0.01090  -0.01090   1.17276
   D52       -3.04822  -0.00097   0.00000  -0.00784  -0.00787  -3.05608
   D53       -3.04907   0.00020   0.00000   0.00047   0.00048  -3.04858
   D54       -0.94347  -0.00047   0.00000  -0.01043  -0.01042  -0.95389
   D55        1.10783   0.00001   0.00000  -0.00737  -0.00738   1.10045
   D56        1.17631   0.00021   0.00000   0.00724   0.00727   1.18358
   D57       -3.00128  -0.00046   0.00000  -0.00366  -0.00363  -3.00491
   D58       -0.94998   0.00002   0.00000  -0.00060  -0.00060  -0.95057
   D59        0.98868  -0.00098   0.00000  -0.01140  -0.01139   0.97729
   D60        3.09736  -0.00093   0.00000  -0.01642  -0.01652   3.08085
   D61       -1.13031   0.00035   0.00000  -0.00306  -0.00299  -1.13330
   D62       -1.11431  -0.00134   0.00000  -0.01260  -0.01256  -1.12688
   D63        0.99437  -0.00129   0.00000  -0.01762  -0.01769   0.97668
   D64        3.04989  -0.00001   0.00000  -0.00426  -0.00417   3.04572
   D65        3.11614  -0.00026   0.00000  -0.00070  -0.00069   3.11545
   D66       -1.05836  -0.00021   0.00000  -0.00572  -0.00582  -1.06417
   D67        0.99716   0.00106   0.00000   0.00764   0.00771   1.00487
   D68       -1.05556   0.00005   0.00000  -0.00095  -0.00086  -1.05642
   D69       -3.12872   0.00156   0.00000   0.00599   0.00570  -3.12302
   D70        1.08257   0.00135   0.00000   0.00821   0.00829   1.09085
   D71        3.11912  -0.00129   0.00000  -0.00727  -0.00717   3.11196
   D72        1.04596   0.00022   0.00000  -0.00032  -0.00060   1.04535
   D73       -1.02594   0.00001   0.00000   0.00190   0.00198  -1.02396
   D74        1.06298  -0.00030   0.00000   0.00111   0.00127   1.06424
   D75       -1.01019   0.00121   0.00000   0.00806   0.00783  -1.00236
   D76       -3.08209   0.00100   0.00000   0.01028   0.01042  -3.07167
   D77       -1.17217   0.00465   0.00000   0.00000   0.00001  -1.17216
   D78        3.06140   0.00099   0.00000  -0.01515  -0.01502   3.04637
   D79        1.00979   0.00022   0.00000  -0.03156  -0.03177   0.97802
   D80        0.21831  -0.00053   0.00000  -0.01001  -0.01003   0.20828
   D81       -2.95707  -0.00189   0.00000  -0.03919  -0.03885  -2.99593
         Item               Value     Threshold  Converged?
 Maximum Force            0.038004     0.000450     NO 
 RMS     Force            0.007023     0.000300     NO 
 Maximum Displacement     0.299897     0.001800     NO 
 RMS     Displacement     0.056497     0.001200     NO 
 Predicted change in Energy=-1.333938D-02
 GradGradGradGradGradGradGradGradGradGradGradGradGradGradGradGradGradGrad

                          Input orientation:                          
 ---------------------------------------------------------------------
 Center     Atomic      Atomic             Coordinates (Angstroms)
 Number     Number       Type             X           Y           Z
 ---------------------------------------------------------------------
      1          8           0       -3.498259   -1.395980   -0.299576
      2          7           0       -3.127819   -0.228454   -0.107483
      3          8           0       -3.869601    0.756535    0.029946
      4          6           0       -1.679397   -0.011927   -0.028425
      5          6           0       -1.312051    1.267288    0.256706
      6          7           0       -0.067114    1.741153    0.440090
      7          6           0        1.198604    1.003443    0.393680
      8          1           0        1.843873    1.521920    1.121126
      9          6           0        1.902083    1.049610   -0.959744
     10          6           0        3.307362    0.454071   -0.815462
     11          6           0        3.260667   -0.957772   -0.219355
     12          6           0        2.466254   -0.995890    1.086036
     13          6           0        1.050900   -0.445999    0.867793
     14          1           0        0.498907   -0.462474    1.819867
     15          7           0        0.400558   -1.332258   -0.090512
     16          6           0       -0.844904   -1.150301   -0.367695
     17          1           0       -2.104403    1.999793    0.387542
     18          1           0        0.056007    2.745253    0.352749
     19          1           0        1.320818    0.477252   -1.691427
     20          1           0        1.956626    2.087418   -1.315407
     21          1           0        3.799659    0.435128   -1.794420
     22          1           0        3.906920    1.106238   -0.164705
     23          1           0        2.784077   -1.637706   -0.934259
     24          1           0        4.278159   -1.328024   -0.044874
     25          1           0        2.397302   -2.024951    1.455902
     26          1           0        2.972514   -0.400068    1.857420
     27          1           0       -1.336743   -1.910289   -0.977512
 ---------------------------------------------------------------------
                    Distance matrix (angstroms):
                    1          2          3          4          5
     1  O    0.000000
     2  N    1.239855   0.000000
     3  O    2.209027   1.240699   0.000000
     4  C    2.301605   1.466649   2.321839   0.000000
     5  C    3.490265   2.380523   2.617891   1.361114   0.000000
     6  N    4.707597   3.680639   3.949253   2.427396   1.344636
     7  C    5.319620   4.526220   5.087236   3.080915   2.528194
     8  H    6.250673   5.412117   5.866880   4.010933   3.282060
     9  C    5.964934   5.259250   5.863252   3.849833   3.443514
    10  C    7.071444   6.509887   7.232911   5.069946   4.811428
    11  C    6.773592   6.430954   7.337693   5.033420   5.107570
    12  C    6.136400   5.771230   6.658031   4.404160   4.481668
    13  C    4.791666   4.296531   5.134141   2.906225   2.981998
    14  H    4.619611   4.113707   4.875824   2.892090   2.952137
    15  N    3.904938   3.697041   4.755190   2.464415   3.132288
    16  C    2.665576   2.475725   3.597630   1.451682   2.540244
    17  H    3.734466   2.501502   2.188490   2.097778   1.086970
    18  H    5.496194   4.380810   4.412437   3.280086   2.016231
    19  H    5.354414   4.774648   5.475543   3.464990   3.369180
    20  H    6.551469   5.716111   6.125859   4.391382   3.718656
    21  H    7.671188   7.160729   7.889814   5.773963   5.570384
    22  H    7.817670   7.160463   7.786814   5.698754   5.238433
    23  H    6.318940   6.133519   7.136773   4.835938   5.160974
    24  H    7.780885   7.487421   8.410528   6.101217   6.170659
    25  H    6.183441   6.016521   7.003149   4.782778   5.102569
    26  H    6.893140   6.411268   7.175788   5.034614   4.868250
    27  H    2.322986   2.606429   3.813436   2.149874   3.408944
                    6          7          8          9         10
     6  N    0.000000
     7  C    1.465746   0.000000
     8  H    2.040525   1.101984   0.000000
     9  C    2.513067   1.526031   2.134593   0.000000
    10  C    3.823621   2.492126   2.651881   1.533067   0.000000
    11  C    4.335111   2.911061   3.154848   2.534465   1.533240
    12  C    3.785049   2.466500   2.593830   2.947469   2.534866
    13  C    2.493294   1.532149   2.136748   2.510230   2.955520
    14  H    2.660852   2.161596   2.496997   3.461436   3.958843
    15  N    3.153746   2.515317   3.420170   2.946768   3.487985
    16  C    3.101287   3.065001   4.072699   3.568763   4.473904
    17  H    2.054314   3.450016   4.044181   4.332431   5.755317
    18  H    1.015384   2.083532   2.298567   2.829459   4.145545
    19  H    2.840276   2.153946   3.045550   1.095821   2.171224
    20  H    2.701332   2.161152   2.503836   1.098415   2.177672
    21  H    4.653028   3.446193   3.675136   2.162190   1.095935
    22  H    4.069624   2.767189   2.466235   2.157468   1.099216
    23  H    4.629775   3.354521   3.884820   2.828469   2.159508
    24  H    5.341950   3.887380   3.925237   3.483657   2.170741
    25  H    4.613974   3.425838   3.605365   3.941259   3.483226
    26  H    3.979068   2.694278   2.347338   3.344219   2.825946
    27  H    4.117594   4.098534   5.128417   4.387632   5.213844
                   11         12         13         14         15
    11  C    0.000000
    12  C    1.528591   0.000000
    13  C    2.515328   1.534026   0.000000
    14  H    3.468583   2.166447   1.100642   0.000000
    15  N    2.887398   2.400939   1.458338   2.101368   0.000000
    16  C    4.112759   3.619522   2.369925   2.657887   1.288842
    17  H    6.156257   5.509348   4.021004   3.858955   4.195942
    18  H    4.930471   4.510338   3.382184   3.555012   4.115981
    19  H    2.826536   3.346113   2.734018   3.726635   2.585369
    20  H    3.489274   3.941248   3.464809   4.296142   3.951696
    21  H    2.170601   3.481782   3.926759   4.976316   4.192951
    22  H    2.163507   2.838805   3.410622   4.244283   4.271574
    23  H    1.095690   2.143486   2.769740   3.766747   2.546835
    24  H    1.096731   2.161544   3.467871   4.302230   3.877872
    25  H    2.165816   1.095684   2.156795   2.485500   2.618818
    26  H    2.169575   1.098333   2.161960   2.474680   3.358329
    27  H    4.755867   4.422346   3.354122   3.645697   2.034479
                   16         17         18         19         20
    16  C    0.000000
    17  H    3.475603   0.000000
    18  H    4.062761   2.285672   0.000000
    19  H    3.015219   4.286302   3.304880   0.000000
    20  H    4.385152   4.404506   2.613015   1.771519   0.000000
    21  H    5.110880   6.485914   4.895094   2.481338   2.521168
    22  H    5.264314   6.102412   4.217068   3.068295   2.467889
    23  H    3.705140   6.235046   5.320629   2.680948   3.834906
    24  H    5.136299   7.210995   5.880158   3.836147   4.320765
    25  H    3.821311   6.132317   5.427104   4.162394   4.978547
    26  H    4.481815   5.804736   4.545667   4.011497   4.157697
    27  H    1.091496   4.212056   5.038196   3.643165   5.190579
                   21         22         23         24         25
    21  H    0.000000
    22  H    1.765748   0.000000
    23  H    2.463316   3.063041   0.000000
    24  H    2.529541   2.465321   1.766122   0.000000
    25  H    4.310822   3.835318   2.452024   2.505127   0.000000
    26  H    3.836359   2.689062   3.059530   2.486872   1.769840
    27  H    5.705343   6.103777   4.130052   5.721536   4.458446
                   26         27
    26  H    0.000000
    27  H    5.374691   0.000000
 Symmetry turned off by external request.
 Stoichiometry    C9H13N3O2
 Framework group  C1[X(C9H13N3O2)]
 Deg. of freedom    75
 Full point group                 C1      NOp   1
 Rotational constants (GHZ):           1.6792380           0.4214873           0.3725569
 Standard basis: 6-31G(d) (6D, 7F)
   236 basis functions,   444 primitive gaussians,   236 cartesian basis functions
    52 alpha electrons       52 beta electrons
       nuclear repulsion energy       931.9817988943 Hartrees.
 NAtoms=   27 NActive=   27 NUniq=   27 SFac= 1.00D+00 NAtFMM=   60 NAOKFM=F Big=F
 Integral buffers will be    131072 words long.
 Raffenetti 1 integral format.
 Two-electron integral symmetry is turned off.
 One-electron integrals computed using PRISM.
 NBasis=   236 RedAO= T EigKep=  1.01D-03  NBF=   236
 NBsUse=   236 1.00D-06 EigRej= -1.00D+00 NBFU=   236
 Initial guess from the checkpoint file:  "/home/alexey/tmp/Gau-1421138.chk"
 B after Tr=     0.057470    0.003572    0.005686
         Rot=    0.999999   -0.000475   -0.000802    0.000649 Ang=  -0.13 deg.
 ExpMin= 1.61D-01 ExpMax= 5.48D+03 ExpMxC= 8.25D+02 IAcc=3 IRadAn=         5 AccDes= 0.00D+00
 Harris functional with IExCor=  205 and IRadAn=       5 diagonalized for initial guess.
 HarFok:  IExCor=  205 AccDes= 0.00D+00 IRadAn=         5 IDoV= 1 UseB2=F ITyADJ=14
 ICtDFT=  3500011 ScaDFX=  1.000000  1.000000  1.000000  1.000000
 FoFCou: FMM=F IPFlag=           0 FMFlag=      100000 FMFlg1=           0
         NFxFlg=           0 DoJE=T BraDBF=F KetDBF=T FulRan=T
         wScrn=  0.000000 ICntrl=       500 IOpCl=  0 I1Cent=   200000004 NGrid=           0
         NMat0=    1 NMatS0=      1 NMatT0=    0 NMatD0=    1 NMtDS0=    0 NMtDT0=    0
 Symmetry not used in FoFCou.
 Keep R1 ints in memory in canonical form, NReq=397720213.
 Requested convergence on RMS density matrix=1.00D-08 within 128 cycles.
 Requested convergence on MAX density matrix=1.00D-06.
 Requested convergence on             energy=1.00D-06.
 No special actions if energy rises.
 SCF Done:  E(RHF) =  -661.298986595     A.U. after   14 cycles
            NFock= 14  Conv=0.98D-08     -V/T= 2.0024
 ExpMin= 1.61D-01 ExpMax= 5.48D+03 ExpMxC= 8.25D+02 IAcc=3 IRadAn=         5 AccDes= 0.00D+00
 HarFok:  IExCor=  205 AccDes= 0.00D+00 IRadAn=         5 IDoV=-2 UseB2=F ITyADJ=14
 ICtDFT= 12500011 ScaDFX=  1.000000  1.000000  1.000000  1.000000
 Range of M.O.s used for correlation:    15   236
 NBasis=   236 NAE=    52 NBE=    52 NFC=    14 NFV=     0
 NROrb=    222 NOA=    38 NOB=    38 NVA=   184 NVB=   184
 Fully direct method using O(ONN) memory.
 JobTyp=1 Pass  1:  I=  15 to  52 NPSUse=  4 ParTrn=T ParDer=T DoDerP=T.
 Spin components of T(2) and E(2):
     alpha-alpha T2 =       0.9128721297D-01 E2=     -0.2723860239D+00
     alpha-beta  T2 =       0.4911492952D+00 E2=     -0.1487899319D+01
     beta-beta   T2 =       0.9128721297D-01 E2=     -0.2723860239D+00
 ANorm=    0.1293724747D+01
 E2 =    -0.2032671367D+01 EUMP2 =    -0.66333165796209D+03
          IDoAtm=111111111111111111111111111
          Differentiating once with respect to electric field.
                with respect to dipole field.
          Differentiating once with respect to nuclear coordinates.
 Keep R1 ints in memory in canonical form, NReq=397723379.
          There are     1 degrees of freedom in the 1st order CPHF.  IDoFFX=0 NUNeed=     1.
 LinEq1:  Iter=  0 NonCon=     1 RMS=4.58D-03 Max=1.06D-01 NDo=     1
 AX will form     1 AO Fock derivatives at one time.
 LinEq1:  Iter=  1 NonCon=     1 RMS=1.54D-03 Max=2.90D-02 NDo=     1
 LinEq1:  Iter=  2 NonCon=     1 RMS=6.44D-04 Max=1.79D-02 NDo=     1
 LinEq1:  Iter=  3 NonCon=     1 RMS=2.81D-04 Max=8.31D-03 NDo=     1
[...]
                   16         17         18         19         20
    16  C    0.000000
    17  H    3.463963   0.000000
    18  H    4.088013   2.236060   0.000000
    19  H    2.990694   4.304353   3.512293   0.000000
    20  H    4.374789   4.449759   2.882100   1.768490   0.000000
    21  H    5.096461   6.511763   5.086466   2.499020   2.521047
    22  H    5.248522   6.100735   4.312980   3.070142   2.461416
    23  H    3.695172   6.235528   5.421141   2.704264   3.842949
    24  H    5.133821   7.201045   5.936336   3.849601   4.317097
    25  H    3.821632   6.088190   5.369212   4.171657   4.984977
    26  H    4.495039   5.780900   4.484535   4.036002   4.182099
    27  H    1.089704   4.215185   5.078820   3.582722   5.147077
                   21         22         23         24         25
    21  H    0.000000
    22  H    1.758802   0.000000
    23  H    2.469435   3.062220   0.000000
    24  H    2.517393   2.459856   1.764520   0.000000
    25  H    4.312018   3.839453   2.444193   2.519629   0.000000
    26  H    3.846658   2.704315   3.060421   2.491691   1.767916
    27  H    5.652496   6.060050   4.090543   5.694800   4.454970
                   26         27
    26  H    0.000000
    27  H    5.378560   0.000000
 Symmetry turned off by external request.
 Stoichiometry    C9H13N3O2
 Framework group  C1[X(C9H13N3O2)]
 Deg. of freedom    75
 Full point group                 C1      NOp   1
 Rotational constants (GHZ):           1.6801938           0.4193241           0.3721391

 **********************************************************************

            Population analysis using the SCF Density.

 **********************************************************************

 Alpha  occ. eigenvalues --  -20.59236 -20.58902 -15.84722 -15.64136 -15.56112
 Alpha  occ. eigenvalues --  -11.35018 -11.29622 -11.29558 -11.28625 -11.27133
 Alpha  occ. eigenvalues --  -11.23727 -11.23207 -11.22691 -11.22089  -1.57123
 Alpha  occ. eigenvalues --   -1.36714  -1.30976  -1.23068  -1.14703  -1.09820
 Alpha  occ. eigenvalues --   -1.02806  -1.01309  -0.94482  -0.89684  -0.85566
 Alpha  occ. eigenvalues --   -0.82448  -0.78610  -0.77412  -0.75202  -0.72020
 Alpha  occ. eigenvalues --   -0.69774  -0.69441  -0.67821  -0.64893  -0.63779
 Alpha  occ. eigenvalues --   -0.62367  -0.60280  -0.57700  -0.57002  -0.55077
 Alpha  occ. eigenvalues --   -0.54582  -0.50763  -0.50108  -0.48656  -0.48103
 Alpha  occ. eigenvalues --   -0.47372  -0.46147  -0.46045  -0.43678  -0.41695
 Alpha  occ. eigenvalues --   -0.39848  -0.33830
 Alpha virt. eigenvalues --    0.07466   0.11803   0.17307   0.21849   0.24113
 Alpha virt. eigenvalues --    0.25664   0.27133   0.28694   0.29045   0.29637
 Alpha virt. eigenvalues --    0.30683   0.31800   0.32036   0.32767   0.33952
 Alpha virt. eigenvalues --    0.34387   0.35850   0.37313   0.38581   0.40293
 Alpha virt. eigenvalues --    0.41388   0.42446   0.45028   0.46117   0.46731
 Alpha virt. eigenvalues --    0.47077   0.49004   0.53997   0.57580   0.59406
 Alpha virt. eigenvalues --    0.63917   0.69544   0.69911   0.72860   0.74243
 Alpha virt. eigenvalues --    0.74872   0.75781   0.76678   0.78662   0.79440
 Alpha virt. eigenvalues --    0.81385   0.84697   0.85721   0.85810   0.88528
 Alpha virt. eigenvalues --    0.89428   0.91050   0.92115   0.92856   0.94527
 Alpha virt. eigenvalues --    0.95645   0.98039   0.99637   1.01677   1.02470
 Alpha virt. eigenvalues --    1.03153   1.05872   1.06969   1.07896   1.09011
 Alpha virt. eigenvalues --    1.10281   1.11416   1.11857   1.12443   1.13918
 Alpha virt. eigenvalues --    1.14766   1.14991   1.15832   1.16904   1.18726
 Alpha virt. eigenvalues --    1.19140   1.21338   1.22576   1.23915   1.24532
 Alpha virt. eigenvalues --    1.24831   1.26037   1.26911   1.27488   1.29557
 Alpha virt. eigenvalues --    1.30009   1.33128   1.36067   1.37178   1.40862
 Alpha virt. eigenvalues --    1.41844   1.46486   1.48738   1.51707   1.54286
 Alpha virt. eigenvalues --    1.56373   1.58765   1.59561   1.63469   1.65630
 Alpha virt. eigenvalues --    1.68033   1.68629   1.72996   1.75216   1.77371
 Alpha virt. eigenvalues --    1.81583   1.84596   1.87695   1.90648   1.93502
 Alpha virt. eigenvalues --    1.95818   1.96961   1.99722   2.01570   2.02525
 Alpha virt. eigenvalues --    2.05105   2.05612   2.08498   2.09564   2.12395
 Alpha virt. eigenvalues --    2.13262   2.15298   2.18819   2.20020   2.22451
 Alpha virt. eigenvalues --    2.22641   2.24497   2.25496   2.28216   2.29550
 Alpha virt. eigenvalues --    2.31993   2.33727   2.34700   2.36400   2.38471
 Alpha virt. eigenvalues --    2.40478   2.41927   2.43876   2.45142   2.47362
 Alpha virt. eigenvalues --    2.50727   2.51954   2.53119   2.55574   2.61517
 Alpha virt. eigenvalues --    2.62312   2.65193   2.67628   2.70319   2.70497
 Alpha virt. eigenvalues --    2.72274   2.72660   2.76988   2.78449   2.83816
 Alpha virt. eigenvalues --    2.88563   2.88951   2.92948   2.93142   2.96067
 Alpha virt. eigenvalues --    2.99441   3.01348   3.04320   3.05728   3.07680
 Alpha virt. eigenvalues --    3.09417   3.15047   3.21223   3.25220   3.27458
 Alpha virt. eigenvalues --    3.33454   3.37798   3.38792   3.52174   3.65796
 Alpha virt. eigenvalues --    4.13681   4.28082   4.34718   4.38929   4.46307
 Alpha virt. eigenvalues --    4.56310   4.61873   4.62353   4.73466   4.79747
 Alpha virt. eigenvalues --    4.99412   5.00899   5.05020   5.11168
          Condensed to atoms (all electrons):
               1          2          3          4          5          6
     1  O    8.316123   0.307025  -0.082558  -0.085489   0.004639  -0.000016
     2  N    0.307025   5.722114   0.301288   0.264203  -0.053618   0.000970
     3  O   -0.082558   0.301288   8.353674  -0.092701   0.003648   0.000785
     4  C   -0.085489   0.264203  -0.092701   5.225767   0.560334  -0.047293
     5  C    0.004639  -0.053618   0.003648   0.560334   4.709859   0.317408
     6  N   -0.000016   0.000970   0.000785  -0.047293   0.317408   7.195558
     7  C    0.000004  -0.000140   0.000002   0.004637  -0.030200   0.169310
     8  H   -0.000000   0.000002  -0.000000  -0.000262   0.003093  -0.050662
     9  C   -0.000000  -0.000004  -0.000000   0.000856   0.000626  -0.061636
    10  C    0.000000   0.000000   0.000000  -0.000038  -0.000052   0.003747
    11  C   -0.000000  -0.000000  -0.000000  -0.000028   0.000025  -0.000190
    12  C   -0.000000   0.000002  -0.000000  -0.000127  -0.000176   0.003874
    13  C   -0.000025  -0.000039  -0.000004  -0.011570  -0.000575  -0.047689
    14  H   -0.000004  -0.000105   0.000001   0.002648   0.006079  -0.006962
    15  N    0.000382   0.002361  -0.000016  -0.063508  -0.006386   0.001594
    16  C    0.000842  -0.027279   0.002548   0.328460  -0.050322  -0.001867
    17  H    0.000220  -0.007225   0.017376  -0.023136   0.374520  -0.034193
    18  H    0.000001  -0.000050   0.000012   0.001507  -0.031437   0.338680
    19  H    0.000001  -0.000004   0.000000  -0.001224   0.001230  -0.000351
    20  H    0.000000  -0.000000   0.000000  -0.000079   0.000153  -0.000429
    21  H   -0.000000   0.000000   0.000000   0.000001   0.000001  -0.000077
    22  H   -0.000000   0.000000  -0.000000  -0.000000  -0.000003  -0.000117
    23  H    0.000000  -0.000000   0.000000   0.000040  -0.000000  -0.000030
    24  H    0.000000   0.000000   0.000000   0.000000  -0.000000   0.000006
    25  H    0.000000  -0.000000   0.000000   0.000024   0.000000  -0.000090
    26  H    0.000000  -0.000000   0.000000   0.000006  -0.000002  -0.000059
    27  H    0.006127  -0.000880   0.000018  -0.063447   0.002217   0.000017
               7          8          9         10         11         12
     1  O    0.000004  -0.000000  -0.000000   0.000000  -0.000000  -0.000000
     2  N   -0.000140   0.000002  -0.000004   0.000000  -0.000000   0.000002
     3  O    0.000002  -0.000000  -0.000000   0.000000  -0.000000  -0.000000
     4  C    0.004637  -0.000262   0.000856  -0.000038  -0.000028  -0.000127
     5  C   -0.030200   0.003093   0.000626  -0.000052   0.000025  -0.000176
     6  N    0.169310  -0.050662  -0.061636   0.003747  -0.000190   0.003874
     7  C    5.017592   0.418417   0.350516  -0.054675  -0.009033  -0.061080
     8  H    0.418417   0.538126  -0.055070   0.000777  -0.000326  -0.002226
     9  C    0.350516  -0.055070   5.158216   0.324777  -0.050410  -0.005346
    10  C   -0.054675   0.000777   0.324777   5.119322   0.337009  -0.060991
    11  C   -0.009033  -0.000326  -0.050410   0.337009   5.119895   0.335983
    12  C   -0.061080  -0.002226  -0.005346  -0.060991   0.335983   5.118628
    13  C    0.338637  -0.037939  -0.060231  -0.000285  -0.050688   0.371985
    14  H   -0.046601  -0.000745   0.004424  -0.000405   0.004197  -0.036335
    15  N   -0.057978   0.003903  -0.014629   0.001561  -0.013051  -0.082047
    16  C   -0.001783   0.000010  -0.001274  -0.000029   0.000029   0.002608
    17  H    0.001617  -0.000045  -0.000070   0.000001   0.000000   0.000000
    18  H   -0.021228  -0.004477   0.001330  -0.000083   0.000004  -0.000114
    19  H   -0.036844   0.004362   0.390230  -0.032073  -0.002212   0.000689
    20  H   -0.042423  -0.002079   0.399491  -0.035303   0.003931  -0.000415
    21  H    0.004599  -0.000076  -0.036358   0.402437  -0.034891   0.004348
    22  H   -0.004847   0.003560  -0.046953   0.397753  -0.045406  -0.001020
    23  H    0.000577   0.000035  -0.001957  -0.039017   0.399177  -0.037857
    24  H   -0.000130  -0.000102   0.004388  -0.038433   0.402343  -0.038693
    25  H    0.005153  -0.000025  -0.000423   0.004190  -0.033396   0.398274
    26  H   -0.003909   0.001685   0.000969  -0.002233  -0.041482   0.396741
    27  H   -0.000408   0.000009  -0.000058   0.000007   0.000012  -0.000036
              13         14         15         16         17         18
     1  O   -0.000025  -0.000004   0.000382   0.000842   0.000220   0.000001
     2  N   -0.000039  -0.000105   0.002361  -0.027279  -0.007225  -0.000050
     3  O   -0.000004   0.000001  -0.000016   0.002548   0.017376   0.000012
     4  C   -0.011570   0.002648  -0.063508   0.328460  -0.023136   0.001507
     5  C   -0.000575   0.006079  -0.006386  -0.050322   0.374520  -0.031437
     6  N   -0.047689  -0.006962   0.001594  -0.001867  -0.034193   0.338680
     7  C    0.338637  -0.046601  -0.057978  -0.001783   0.001617  -0.021228
     8  H   -0.037939  -0.000745   0.003903   0.000010  -0.000045  -0.004477
     9  C   -0.060231   0.004424  -0.014629  -0.001274  -0.000070   0.001330
    10  C   -0.000285  -0.000405   0.001561  -0.000029   0.000001  -0.000083
    11  C   -0.050688   0.004197  -0.013051   0.000029   0.000000   0.000004
    12  C    0.371985  -0.036335  -0.082047   0.002608   0.000000  -0.000114
    13  C    5.040198   0.403077   0.244773  -0.071102  -0.000009   0.002970
    14  H    0.403077   0.526814  -0.037367  -0.004532   0.000093  -0.000108
    15  N    0.244773  -0.037367   6.965017   0.585241  -0.000080  -0.000132
    16  C   -0.071102  -0.004532   0.585241   4.709901   0.002015  -0.000197
    17  H   -0.000009   0.000093  -0.000080   0.002015   0.376524  -0.002819
    18  H    0.002970  -0.000108  -0.000132  -0.000197  -0.002819   0.310615
    19  H   -0.007544   0.000106   0.007694   0.003002   0.000016  -0.000149
    20  H    0.004341  -0.000066   0.000126  -0.000036   0.000002   0.000805
    21  H   -0.000433   0.000010  -0.000041   0.000004  -0.000000   0.000001
    22  H    0.000045  -0.000055   0.000019  -0.000002   0.000000   0.000001
    23  H   -0.007522   0.000003   0.008587   0.000106   0.000000   0.000000
    24  H    0.004700  -0.000057   0.000135   0.000007   0.000000  -0.000000
    25  H   -0.035559  -0.002818   0.000406  -0.000022  -0.000000   0.000002
    26  H   -0.047423  -0.001047   0.004900  -0.000061   0.000000  -0.000000
    27  H    0.005063  -0.000174  -0.040315   0.403688  -0.000079   0.000001
              19         20         21         22         23         24
     1  O    0.000001   0.000000  -0.000000  -0.000000   0.000000   0.000000
     2  N   -0.000004  -0.000000   0.000000   0.000000  -0.000000   0.000000
     3  O    0.000000   0.000000   0.000000  -0.000000   0.000000   0.000000
     4  C   -0.001224  -0.000079   0.000001  -0.000000   0.000040   0.000000
     5  C    0.001230   0.000153   0.000001  -0.000003  -0.000000  -0.000000
     6  N   -0.000351  -0.000429  -0.000077  -0.000117  -0.000030   0.000006
     7  C   -0.036844  -0.042423   0.004599  -0.004847   0.000577  -0.000130
     8  H    0.004362  -0.002079  -0.000076   0.003560   0.000035  -0.000102
     9  C    0.390230   0.399491  -0.036358  -0.046953  -0.001957   0.004388
    10  C   -0.032073  -0.035303   0.402437   0.397753  -0.039017  -0.038433
    11  C   -0.002212   0.003931  -0.034891  -0.045406   0.399177   0.402343
    12  C    0.000689  -0.000415   0.004348  -0.001020  -0.037857  -0.038693
    13  C   -0.007544   0.004341  -0.000433   0.000045  -0.007522   0.004700
    14  H    0.000106  -0.000066   0.000010  -0.000055   0.000003  -0.000057
    15  N    0.007694   0.000126  -0.000041   0.000019   0.008587   0.000135
    16  C    0.003002  -0.000036   0.000004  -0.000002   0.000106   0.000007
    17  H    0.000016   0.000002  -0.000000   0.000000   0.000000   0.000000
    18  H   -0.000149   0.000805   0.000001   0.000001   0.000000  -0.000000
    19  H    0.504903  -0.024734  -0.002788   0.003959   0.001514  -0.000066
    20  H   -0.024734   0.541159  -0.002691  -0.002991  -0.000045  -0.000083
    21  H   -0.002788  -0.002691   0.524009  -0.027404  -0.002898  -0.002241
    22  H    0.003959  -0.002991  -0.027404   0.571315   0.004137  -0.003656
    23  H    0.001514  -0.000045  -0.002898   0.004137   0.498953  -0.025453
    24  H   -0.000066  -0.000083  -0.002241  -0.003656  -0.025453   0.538116
    25  H   -0.000029   0.000012  -0.000087  -0.000080  -0.002317  -0.002291
    26  H    0.000019  -0.000030  -0.000081   0.002380   0.004067  -0.003035
    27  H    0.000083   0.000000  -0.000000   0.000000  -0.000035  -0.000000
              25         26         27
     1  O    0.000000   0.000000   0.006127
     2  N   -0.000000  -0.000000  -0.000880
     3  O    0.000000   0.000000   0.000018
     4  C    0.000024   0.000006  -0.063447
     5  C    0.000000  -0.000002   0.002217
     6  N   -0.000090  -0.000059   0.000017
     7  C    0.005153  -0.003909  -0.000408
     8  H   -0.000025   0.001685   0.000009
     9  C   -0.000423   0.000969  -0.000058
    10  C    0.004190  -0.002233   0.000007
    11  C   -0.033396  -0.041482   0.000012
    12  C    0.398274   0.396741  -0.000036
    13  C   -0.035559  -0.047423   0.005063
    14  H   -0.002818  -0.001047  -0.000174
    15  N    0.000406   0.004900  -0.040315
    16  C   -0.000022  -0.000061   0.403688
    17  H   -0.000000   0.000000  -0.000079
    18  H    0.000002  -0.000000   0.000001
    19  H   -0.000029   0.000019   0.000083
    20  H    0.000012  -0.000030   0.000000
    21  H   -0.000087  -0.000081  -0.000000
    22  H   -0.000080   0.002380   0.000000
    23  H   -0.002317   0.004067  -0.000035
    24  H   -0.002291  -0.003035  -0.000000
    25  H    0.506112  -0.024084  -0.000013
    26  H   -0.024084   0.562329   0.000001
    27  H   -0.000013   0.000001   0.439368
 Mulliken charges:
               1
     1  O   -0.467272
     2  N    0.491380
     3  O   -0.504072
     4  C    0.000419
     5  C    0.188940
     6  N   -0.780286
     7  C    0.060217
     8  H    0.180055
     9  C   -0.301406
    10  C   -0.327965
    11  C   -0.321493
    12  C   -0.306670
    13  C   -0.037152
    14  H    0.189929
    15  N   -0.511151
    16  C    0.120047
    17  H    0.295271
    18  H    0.404866
    19  H    0.190210
    20  H    0.161385
    21  H    0.174656
    22  H    0.149364
    23  H    0.199938
    24  H    0.164546
    25  H    0.187060
    26  H    0.150348
    27  H    0.248836
 Sum of Mulliken charges =  -0.00000
 Mulliken charges with hydrogens summed into heavy atoms:
               1
     1  O   -0.467272
     2  N    0.491380
     3  O   -0.504072
     4  C    0.000419
     5  C    0.484211
     6  N   -0.375420
     7  C    0.240272
     9  C    0.050189
    10  C   -0.003945
    11  C    0.042991
    12  C    0.030738
    13  C    0.152777
    15  N   -0.511151
    16  C    0.368883
 Electronic spatial extent (au):  <R**2>=           3005.3752
 Charge=             -0.0000 electrons
 Dipole moment (field-independent basis, Debye):
    X=              5.4162    Y=              4.7961    Z=              1.2826  Tot=              7.3473
 Quadrupole moment (field-independent basis, Debye-Ang):
   XX=           -106.1373   YY=            -79.2292   ZZ=            -81.4979
   XY=             -1.7691   XZ=             -0.1310   YZ=              1.8596
 Traceless Quadrupole moment (field-independent basis, Debye-Ang):
   XX=            -17.1825   YY=              9.7256   ZZ=              7.4569
   XY=             -1.7691   XZ=             -0.1310   YZ=              1.8596
 Octapole moment (field-independent basis, Debye-Ang**2):
  XXX=             92.4035  YYY=             36.2943  ZZZ=             -1.5097  XYY=             -4.5671
  XXY=              9.5493  XXZ=              4.9058  XZZ=             -9.7587  YZZ=             -0.3824
  YYZ=              8.0036  XYZ=              0.2525
 Hexadecapole moment (field-independent basis, Debye-Ang**3):
 XXXX=          -3382.1353 YYYY=           -601.0192 ZZZZ=           -303.8370 XXXY=            -21.0151
 XXXZ=            -13.2092 YYYX=             -9.0511 YYYZ=             25.0124 ZZZX=              2.0778
 ZZZY=              7.0774 XXYY=           -627.7588 XXZZ=           -523.8192 YYZZ=           -157.2972
 XXYZ=             -4.3042 YYXZ=              1.7468 ZZXY=              4.6636
 N-N= 9.312435674038D+02 E-N=-3.409204389413D+03  KE= 6.596301229799D+02
 Unable to Open any file for archive entry.
 1\1\GINC-LOTUS\FOpt\RMP2-FC\6-31G(d)\C9H13N3O2\ALEXEY\02-Jul-2023\0\\#
 MP2/6-31G* SCF=Tight Opt=(ModRedun, MaxCycle=20 ) NoSymm\\MolName:\\0,
 1\O,-3.5067553923,-1.3907197399,-0.3708106142\N,-3.1212209341,-0.23274
 6607,-0.117734674\O,-3.8955164171,0.7281302716,0.056626573\C,-1.686902
 2462,-0.0240127775,-0.0089236382\C,-1.3016679171,1.2605055048,0.275996
 9441\N,-0.0573811289,1.7500651542,0.3861468174\C,1.2055758321,1.023902
 9406,0.3589793064\H,1.853473308,1.5530930455,1.0740572259\C,1.90887655
 68,1.0349240311,-0.9969355264\C,3.3073538424,0.4284809785,-0.832948875
 4\C,3.2595962437,-0.967571992,-0.2061668633\C,2.4647310679,-0.97804465
 03,1.1013955422\C,1.0550084483,-0.4245706586,0.8650703865\H,0.47864356
 61,-0.4030810726,1.8035821943\N,0.4083601767,-1.3178033547,-0.09107423
 99\C,-0.8389635352,-1.1379767988,-0.3862034177\H,-2.0963411216,1.98735
 20873,0.4202444221\H,0.0018915704,2.7350460878,0.6160484993\H,1.314755
 6263,0.4573774701,-1.7130752934\H,1.9746595985,2.0628513145,-1.3746400
 263\H,3.8111657819,0.3903469996,-1.805511599\H,3.9071307524,1.09489454
 07,-0.1968516448\H,2.7819710825,-1.664479973,-0.901877943\H,4.27878255
 35,-1.3309270794,-0.0290497913\H,2.3795307662,-1.9998554465,1.48551501
 37\H,2.9746701667,-0.3799471647,1.869226315\H,-1.3004282478,-1.8922231
 113,-1.023085093\\Version=ES64L-G16RevC.02\HF=-661.3003958\MP2=-663.33
 46493\RMSD=7.697e-09\RMSF=3.903e-05\Dipole=1.9794001,1.6919152,0.47157
 98\PG=C01 [X(C9H13N3O2)]\\@
 The archive entry for this job was punched.


 THE REAL VOYAGE OF DISCOVERY CONSISTS NOT IN SEEKING NEW LANDSCAPES 
 BUT IN HAVING NEW EYES.
                                                    -- MARCEL PROUST
 Job cpu time:       0 days  1 hours 10 minutes  9.1 seconds.
 Elapsed time:       0 days  0 hours 20 minutes 52.6 seconds.
 File lengths (MBytes):  RWF=     36 Int=      0 D2E=      0 Chk=      7 Scr=      1
 Normal termination of Gaussian 16 at Sun Jul  2 01:32:48 2023.
