 Entering Gaussian System, Link 0=g16
 Initial command:
 /home/alexey/programs//g16/l1.exe "/home/alexey/tmp/Gau-1423673.inp" -scrdir="/home/alexey/tmp/"
 Entering Link 1 = /home/alexey/programs//g16/l1.exe PID=   1423675.
  
 Copyright (c) 1988-2021, Gaussian, Inc.  All Rights Reserved.
  
 This is part of the Gaussian(R) 16 program.  It is based on
 the Gaussian(R) 09 system (copyright 2009, Gaussian, Inc.),
 the Gaussian(R) 03 system (copyright 2003, Gaussian, Inc.),
 the Gaussian(R) 98 system (copyright 1998, Gaussian, Inc.),
 the Gaussian(R) 94 system (copyright 1995, Gaussian, Inc.),
 the Gaussian 92(TM) system (copyright 1992, Gaussian, Inc.),
 the Gaussian 90(TM) system (copyright 1990, Gaussian, Inc.),
 the Gaussian 88(TM) system (copyright 1988, Gaussian, Inc.),
 the Gaussian 86(TM) system (copyright 1986, Carnegie Mellon
 University), and the Gaussian 82(TM) system (copyright 1983,
 Carnegie Mellon University). Gaussian is a federally registered
 trademark of Gaussian, Inc.
  
 This software contains proprietary and confidential information,
 including trade secrets, belonging to Gaussian, Inc.
  
 This software is provided under written license and may be
 used, copied, transmitted, or stored only in accord with that
 written license.
  
 The following legend is applicable only to US Government
 contracts under FAR:
  
                    RESTRICTED RIGHTS LEGEND
  
 Use, reproduction and disclosure by the US Government is
 subject to restrictions as set forth in subparagraphs (a)
 and (c) of the Commercial Computer Software - Restricted
 Rights clause in FAR 52.227-19.
  
 Gaussian, Inc.
 340 Quinnipiac St., Bldg. 40, Wallingford CT 06492
  
  
 ---------------------------------------------------------------
 Warning -- This program may not be used in any manner that
 competes with the business of Gaussian, Inc. or will provide
 assistance to any competitor of Gaussian, Inc.  The licensee
 of this program is prohibited from giving any competitor of
 Gaussian, Inc. access to this program.  By using this program,
 the user acknowledges that Gaussian, Inc. is engaged in the
 business of creating and licensing software in the field of
 computational chemistry and represents and warrants to the
 licensee that it is not a competitor of Gaussian, Inc. and that
 it will not use this program in any manner prohibited above.
 ---------------------------------------------------------------
  

 Cite this work as:
 Gaussian 16, Revision C.02,
 M. J. Frisch, G. W. Trucks, H. B. Schlegel, G. E. Scuseria, 
 M. A. Robb, J. R. Cheeseman, G. Scalmani, V. Barone, 
 G. A. Petersson, H. Nakatsuji, X. Li, M. Caricato, A. V. Marenich, 
 J. Bloino, B. G. Janesko, R. Gomperts, B. Mennucci, H. P. Hratchian, 
 J. V. Ortiz, A. F. Izmaylov, J. L. Sonnenberg, D. Williams-Young, 
 F. Ding, F. Lipparini, F. Egidi, J. Goings, B. Peng, A. Petrone, 
 T. Henderson, D. Ranasinghe, V. G. Zakrzewski, J. Gao, N. Rega, 
 G. Zheng, W. Liang, M. Hada, M. Ehara, K. Toyota, R. Fukuda, 
 J. Hasegawa, M. Ishida, T. Nakajima, Y. Honda, O. Kitao, H. Nakai, 
 T. Vreven, K. Throssell, J. A. Montgomery, Jr., J. E. Peralta, 
 F. Ogliaro, M. J. Bearpark, J. J. Heyd, E. N. Brothers, K. N. Kudin, 
 V. N. Staroverov, T. A. Keith, R. Kobayashi, J. Normand, 
 K. Raghavachari, A. P. Rendell, J. C. Burant, S. S. Iyengar, 
 J. Tomasi, M. Cossi, J. M. Millam, M. Klene, C. Adamo, R. Cammi, 
 J. W. Ochterski, R. L. Martin, K. Morokuma, O. Farkas, 
 J. B. Foresman, and D. J. Fox, Gaussian, Inc., Wallingford CT, 2019.
 
 ******************************************
 Gaussian 16:  ES64L-G16RevC.02  7-Dec-2021
                 2-Jul-2023 
 ******************************************
 %mem=8GB
 %NPROCS=4
 Will use up to    4 processors via shared memory.
 %NoSave
 ---------------------------------------------------------
 #MP2/6-31G* SCF=Tight Opt=(ModRedun, MaxCycle=20 ) NoSymm
 ---------------------------------------------------------
 1/6=20,18=120,19=15,38=1/1,3;
 2/9=110,12=2,15=1,17=6,18=5,40=1/2;
 3/5=1,6=6,7=1,11=9,25=1,30=1,71=1/1,2,3;
 4//1;
 5/5=2,32=2,38=5/2;
 8/6=4,10=2/1;
 9/15=2,16=-3/6;
 10/5=1,31=1/2;
 6/7=2,8=2,9=2,10=2/1;
 7/12=2,30=1/1,2,3,16;
 1/6=20,18=20,19=15/3(2);
 2/9=110,15=1/2;
 99//99;
 2/9=110,15=1/2;
 3/5=1,6=6,7=1,11=9,25=1,30=1,71=1/1,2,3;
 4/5=5,16=3,69=1/1;
 5/5=2,32=2,38=5/2;
 8/6=4,10=2/1;
 9/15=2,16=-3/6;
 10/5=1,31=1/2;
 7/12=2,30=1/1,2,3,16;
 1/6=20,18=20,19=15/3(-8);
 2/9=110,15=1/2;
 6/7=2,8=2,9=2,10=2/1;
 99/9=10/99;
 --------
 MolName:
 --------
 Symbolic Z-matrix:
 Charge =  0 Multiplicity = 1
 8                    0    -3.60426  -1.464    -0.1372 
 7                    0    -3.25294  -0.29549   0.0163 
 8                    0    -4.03776   0.63643   0.19599 
 6                    0    -1.75819   0.00926  -0.04647 
 6                    0    -1.37161   1.31586   0.27355 
 7                    0    -0.08237   1.77479   0.36103 
 6                    0     1.1954    0.99826   0.34695 
 1                    0     1.85061   1.4935    1.1099 
 6                    0     1.97747   1.04987  -0.98917 
 6                    0     3.38516   0.4588   -0.78299 
 6                    0     3.31135  -0.95823  -0.19261 
 6                    0     2.44648  -0.99225   1.08597 
 6                    0     1.01428  -0.45114   0.82364 
 1                    0     0.45515  -0.49067   1.78788 
 7                    0     0.36741  -1.31538  -0.16674 
 6                    0    -0.86974  -1.10248  -0.47573 
 1                    0    -2.15771   2.0474    0.52412 
 1                    0     0.14848   2.75385   0.17547 
 1                    0     1.43639   0.47656  -1.77175 
 1                    0     2.07165   2.10033  -1.33751 
 1                    0     3.93231   0.43535  -1.7508 
 1                    0     3.95526   1.10936  -0.08268 
 1                    0     2.87149  -1.64444  -0.95118 
 1                    0     4.33532  -1.32583   0.03668 
 1                    0     2.38009  -2.03929   1.45481 
 1                    0     2.93284  -0.38475   1.87777 
 1                    0    -1.36954  -1.83465  -1.12824 
 
 The following ModRedundant input section has been read:
 D       2       4      16      15 F                                           
 D       1       2       4      16 F                                           
 D       7      13      15      16 F                                           
 D       7       9      10      11 F                                           
 D       9      10      11      12 F                                           
 D       6       7      13      15 F                                           
 

 GradGradGradGradGradGradGradGradGradGradGradGradGradGradGradGradGradGrad
 Berny optimization.
 Initialization pass.
                           ----------------------------
                           !    Initial Parameters    !
                           ! (Angstroms and Degrees)  !
 --------------------------                            --------------------------
 ! Name  Definition              Value          Derivative Info.                !
 --------------------------------------------------------------------------------
 ! R1    R(1,2)                  1.2298         estimate D2E/DX2                !
 ! R2    R(2,3)                  1.2315         estimate D2E/DX2                !
 ! R3    R(2,4)                  1.5268         estimate D2E/DX2                !
 ! R4    R(4,5)                  1.3997         estimate D2E/DX2                !
 ! R5    R(4,16)                 1.4865         estimate D2E/DX2                !
 ! R6    R(5,6)                  1.3713         estimate D2E/DX2                !
 ! R7    R(5,17)                 1.1027         estimate D2E/DX2                !
 ! R8    R(6,7)                  1.4953         estimate D2E/DX2                !
 ! R9    R(6,18)                 1.0229         estimate D2E/DX2                !
 ! R10   R(7,8)                  1.121          estimate D2E/DX2                !
 ! R11   R(7,9)                  1.549          estimate D2E/DX2                !
 ! R12   R(7,13)                 1.5365         estimate D2E/DX2                !
 ! R13   R(9,10)                 1.5406         estimate D2E/DX2                !
 ! R14   R(9,19)                 1.1108         estimate D2E/DX2                !
 ! R15   R(9,20)                 1.1107         estimate D2E/DX2                !
 ! R16   R(10,11)                1.5369         estimate D2E/DX2                !
 ! R17   R(10,21)                1.112          estimate D2E/DX2                !
 ! R18   R(10,22)                1.113          estimate D2E/DX2                !
 ! R19   R(11,12)                1.544          estimate D2E/DX2                !
 ! R20   R(11,23)                1.1135         estimate D2E/DX2                !
 ! R21   R(11,24)                1.1119         estimate D2E/DX2                !
 ! R22   R(12,13)                1.5533         estimate D2E/DX2                !
 ! R23   R(12,25)                1.1121         estimate D2E/DX2                !
 ! R24   R(12,26)                1.1102         estimate D2E/DX2                !
 ! R25   R(13,14)                1.1153         estimate D2E/DX2                !
 ! R26   R(13,15)                1.465          estimate D2E/DX2                !
 ! R27   R(15,16)                1.2928         estimate D2E/DX2                !
 ! R28   R(16,27)                1.1007         estimate D2E/DX2                !
 ! A1    A(1,2,3)              123.7216         estimate D2E/DX2                !
 ! A2    A(1,2,4)              117.6585         estimate D2E/DX2                !
 ! A3    A(3,2,4)              118.6103         estimate D2E/DX2                !
 ! A4    A(2,4,5)              116.5724         estimate D2E/DX2                !
 ! A5    A(2,4,16)             116.5987         estimate D2E/DX2                !
 ! A6    A(5,4,16)             126.8074         estimate D2E/DX2                !
 ! A7    A(4,5,6)              125.9215         estimate D2E/DX2                !
 ! A8    A(4,5,17)             118.3182         estimate D2E/DX2                !
 ! A9    A(6,5,17)             115.7043         estimate D2E/DX2                !
 ! A10   A(5,6,7)              128.9766         estimate D2E/DX2                !
 ! A11   A(5,6,18)             121.3958         estimate D2E/DX2                !
 ! A12   A(7,6,18)             107.6082         estimate D2E/DX2                !
 ! A13   A(6,7,8)              105.2853         estimate D2E/DX2                !
 ! A14   A(6,7,9)              114.9767         estimate D2E/DX2                !
 ! A15   A(6,7,13)             112.7201         estimate D2E/DX2                !
 ! A16   A(8,7,9)              106.0953         estimate D2E/DX2                !
 ! A17   A(8,7,13)             105.9315         estimate D2E/DX2                !
 ! A18   A(9,7,13)             111.0109         estimate D2E/DX2                !
 ! A19   A(7,9,10)             109.457          estimate D2E/DX2                !
 ! A20   A(7,9,19)             110.1547         estimate D2E/DX2                !
 ! A21   A(7,9,20)             110.1715         estimate D2E/DX2                !
 ! A22   A(10,9,19)            109.9593         estimate D2E/DX2                !
 ! A23   A(10,9,20)            109.1076         estimate D2E/DX2                !
 ! A24   A(19,9,20)            107.9675         estimate D2E/DX2                !
 ! A25   A(9,10,11)            111.1783         estimate D2E/DX2                !
 ! A26   A(9,10,21)            109.95           estimate D2E/DX2                !
 ! A27   A(9,10,22)            109.147          estimate D2E/DX2                !
 ! A28   A(11,10,21)           109.7865         estimate D2E/DX2                !
 ! A29   A(11,10,22)           108.774          estimate D2E/DX2                !
 ! A30   A(21,10,22)           107.934          estimate D2E/DX2                !
 ! A31   A(10,11,12)           111.4277         estimate D2E/DX2                !
 ! A32   A(10,11,23)           108.9956         estimate D2E/DX2                !
 ! A33   A(10,11,24)           109.8664         estimate D2E/DX2                !
 ! A34   A(12,11,23)           109.2263         estimate D2E/DX2                !
 ! A35   A(12,11,24)           109.7439         estimate D2E/DX2                !
 ! A36   A(23,11,24)           107.4908         estimate D2E/DX2                !
 ! A37   A(11,12,13)           111.6505         estimate D2E/DX2                !
 ! A38   A(11,12,25)           109.1981         estimate D2E/DX2                !
 ! A39   A(11,12,26)           109.4603         estimate D2E/DX2                !
 ! A40   A(13,12,25)           109.205          estimate D2E/DX2                !
 ! A41   A(13,12,26)           109.4966         estimate D2E/DX2                !
 ! A42   A(25,12,26)           107.7461         estimate D2E/DX2                !
 ! A43   A(7,13,12)            105.8023         estimate D2E/DX2                !
 ! A44   A(7,13,14)            111.1461         estimate D2E/DX2                !
 ! A45   A(7,13,15)            113.5034         estimate D2E/DX2                !
 ! A46   A(12,13,14)           107.6903         estimate D2E/DX2                !
 ! A47   A(12,13,15)           108.4083         estimate D2E/DX2                !
 ! A48   A(14,13,15)           110.0103         estimate D2E/DX2                !
 ! A49   A(13,15,16)           119.1416         estimate D2E/DX2                !
 ! A50   A(4,16,15)            128.7637         estimate D2E/DX2                !
 ! A51   A(4,16,27)            113.408          estimate D2E/DX2                !
 ! A52   A(15,16,27)           117.8171         estimate D2E/DX2                !
 ! D1    D(1,2,4,5)           -173.3102         estimate D2E/DX2                !
 ! D2    D(1,2,4,16)             8.2575         Frozen                          !
 ! D3    D(3,2,4,5)              7.7745         estimate D2E/DX2                !
 ! D4    D(3,2,4,16)          -170.6578         estimate D2E/DX2                !
 ! D5    D(2,4,5,6)            175.64           estimate D2E/DX2                !
 ! D6    D(2,4,5,17)            -1.5124         estimate D2E/DX2                !
 ! D7    D(16,4,5,6)            -6.1108         estimate D2E/DX2                !
 ! D8    D(16,4,5,17)          176.7367         estimate D2E/DX2                !
 ! D9    D(2,4,16,15)         -151.693          Frozen                          !
 ! D10   D(2,4,16,27)           27.0518         estimate D2E/DX2                !
 ! D11   D(5,4,16,15)           30.0583         estimate D2E/DX2                !
 ! D12   D(5,4,16,27)         -151.1969         estimate D2E/DX2                !
 ! D13   D(4,5,6,7)            -10.0246         estimate D2E/DX2                !
 ! D14   D(4,5,6,18)           151.7197         estimate D2E/DX2                !
 ! D15   D(17,5,6,7)           167.1933         estimate D2E/DX2                !
 ! D16   D(17,5,6,18)          -31.0623         estimate D2E/DX2                !
 ! D17   D(5,6,7,8)           -140.0602         estimate D2E/DX2                !
 ! D18   D(5,6,7,9)            103.5576         estimate D2E/DX2                !
 ! D19   D(5,6,7,13)           -25.0408         estimate D2E/DX2                !
 ! D20   D(18,6,7,8)            56.232          estimate D2E/DX2                !
 ! D21   D(18,6,7,9)           -60.1502         estimate D2E/DX2                !
 ! D22   D(18,6,7,13)          171.2514         estimate D2E/DX2                !
 ! D23   D(6,7,9,10)           168.6975         estimate D2E/DX2                !
 ! D24   D(6,7,9,19)           -70.2848         estimate D2E/DX2                !
 ! D25   D(6,7,9,20)            48.7216         estimate D2E/DX2                !
 ! D26   D(8,7,9,10)            52.7787         estimate D2E/DX2                !
 ! D27   D(8,7,9,19)           173.7965         estimate D2E/DX2                !
 ! D28   D(8,7,9,20)           -67.1972         estimate D2E/DX2                !
 ! D29   D(13,7,9,10)          -61.8578         estimate D2E/DX2                !
 ! D30   D(13,7,9,19)           59.16           estimate D2E/DX2                !
 ! D31   D(13,7,9,20)          178.1663         estimate D2E/DX2                !
 ! D32   D(6,7,13,12)         -166.2305         estimate D2E/DX2                !
 ! D33   D(6,7,13,14)          -49.6101         estimate D2E/DX2                !
 ! D34   D(6,7,13,15)           75.0214         Frozen                          !
 ! D35   D(8,7,13,12)          -51.6014         estimate D2E/DX2                !
 ! D36   D(8,7,13,14)           65.019          estimate D2E/DX2                !
 ! D37   D(8,7,13,15)         -170.3494         estimate D2E/DX2                !
 ! D38   D(9,7,13,12)           63.1373         estimate D2E/DX2                !
 ! D39   D(9,7,13,14)          179.7577         estimate D2E/DX2                !
 ! D40   D(9,7,13,15)          -55.6107         estimate D2E/DX2                !
 ! D41   D(7,9,10,11)           54.8124         Frozen                          !
 ! D42   D(7,9,10,21)          176.6049         estimate D2E/DX2                !
 ! D43   D(7,9,10,22)          -65.1796         estimate D2E/DX2                !
 ! D44   D(19,9,10,11)         -66.3238         estimate D2E/DX2                !
 ! D45   D(19,9,10,21)          55.4687         estimate D2E/DX2                !
 ! D46   D(19,9,10,22)         173.6842         estimate D2E/DX2                !
 ! D47   D(20,9,10,11)         175.438          estimate D2E/DX2                !
 ! D48   D(20,9,10,21)         -62.7695         estimate D2E/DX2                !
 ! D49   D(20,9,10,22)          55.446          estimate D2E/DX2                !
 ! D50   D(9,10,11,12)         -52.8223         Frozen                          !
 ! D51   D(9,10,11,23)          67.7899         estimate D2E/DX2                !
 ! D52   D(9,10,11,24)        -174.6705         estimate D2E/DX2                !
 ! D53   D(21,10,11,12)       -174.71           estimate D2E/DX2                !
 ! D54   D(21,10,11,23)        -54.0978         estimate D2E/DX2                !
 ! D55   D(21,10,11,24)         63.4419         estimate D2E/DX2                !
 ! D56   D(22,10,11,12)         67.3907         estimate D2E/DX2                !
 ! D57   D(22,10,11,23)       -171.9971         estimate D2E/DX2                !
 ! D58   D(22,10,11,24)        -54.4575         estimate D2E/DX2                !
 ! D59   D(10,11,12,13)         56.5768         estimate D2E/DX2                !
 ! D60   D(10,11,12,25)        177.4391         estimate D2E/DX2                !
 ! D61   D(10,11,12,26)        -64.829          estimate D2E/DX2                !
 ! D62   D(23,11,12,13)        -63.8999         estimate D2E/DX2                !
 ! D63   D(23,11,12,25)         56.9624         estimate D2E/DX2                !
 ! D64   D(23,11,12,26)        174.6943         estimate D2E/DX2                !
 ! D65   D(24,11,12,13)        178.4959         estimate D2E/DX2                !
 ! D66   D(24,11,12,25)        -60.6418         estimate D2E/DX2                !
 ! D67   D(24,11,12,26)         57.0901         estimate D2E/DX2                !
 ! D68   D(11,12,13,7)         -60.2189         estimate D2E/DX2                !
 ! D69   D(11,12,13,14)       -179.1525         estimate D2E/DX2                !
 ! D70   D(11,12,13,15)         61.8549         estimate D2E/DX2                !
 ! D71   D(25,12,13,7)         178.9229         estimate D2E/DX2                !
 ! D72   D(25,12,13,14)         59.9893         estimate D2E/DX2                !
 ! D73   D(25,12,13,15)        -59.0033         estimate D2E/DX2                !
 ! D74   D(26,12,13,7)          61.1659         estimate D2E/DX2                !
 ! D75   D(26,12,13,14)        -57.7677         estimate D2E/DX2                !
 ! D76   D(26,12,13,15)       -176.7603         estimate D2E/DX2                !
 ! D77   D(7,13,15,16)         -67.16           Frozen                          !
 ! D78   D(12,13,15,16)        175.6008         estimate D2E/DX2                !
 ! D79   D(14,13,15,16)         58.0821         estimate D2E/DX2                !
 ! D80   D(13,15,16,4)           5.906          estimate D2E/DX2                !
 ! D81   D(13,15,16,27)       -172.7917         estimate D2E/DX2                !
 --------------------------------------------------------------------------------
 Trust Radius=3.00D-01 FncErr=1.00D-07 GrdErr=1.00D-07 EigMax=2.50D+02 EigMin=1.00D-04
 Number of steps in this run=     20 maximum allowed number of steps=    162.
 GradGradGradGradGradGradGradGradGradGradGradGradGradGradGradGradGradGrad

                          Input orientation:                          
 ---------------------------------------------------------------------
 Center     Atomic      Atomic             Coordinates (Angstroms)
 Number     Number       Type             X           Y           Z
 ---------------------------------------------------------------------
      1          8           0       -3.604260   -1.464000   -0.137200
      2          7           0       -3.252940   -0.295490    0.016300
      3          8           0       -4.037760    0.636430    0.195990
      4          6           0       -1.758190    0.009260   -0.046470
      5          6           0       -1.371610    1.315860    0.273550
      6          7           0       -0.082370    1.774790    0.361030
      7          6           0        1.195400    0.998260    0.346950
      8          1           0        1.850610    1.493500    1.109900
      9          6           0        1.977470    1.049870   -0.989170
     10          6           0        3.385160    0.458800   -0.782990
     11          6           0        3.311350   -0.958230   -0.192610
     12          6           0        2.446480   -0.992250    1.085970
     13          6           0        1.014280   -0.451140    0.823640
     14          1           0        0.455150   -0.490670    1.787880
     15          7           0        0.367410   -1.315380   -0.166740
     16          6           0       -0.869740   -1.102480   -0.475730
     17          1           0       -2.157710    2.047400    0.524120
     18          1           0        0.148480    2.753850    0.175470
     19          1           0        1.436390    0.476560   -1.771750
     20          1           0        2.071650    2.100330   -1.337510
     21          1           0        3.932310    0.435350   -1.750800
     22          1           0        3.955260    1.109360   -0.082680
     23          1           0        2.871490   -1.644440   -0.951180
     24          1           0        4.335320   -1.325830    0.036680
     25          1           0        2.380090   -2.039290    1.454810
     26          1           0        2.932840   -0.384750    1.877770
     27          1           0       -1.369540   -1.834650   -1.128240
 ---------------------------------------------------------------------
                    Distance matrix (angstroms):
                    1          2          3          4          5
     1  O    0.000000
     2  N    1.229798   0.000000
     3  O    2.170425   1.231546   0.000000
     4  C    2.363620   1.526791   2.376672   0.000000
     5  C    3.589020   2.490387   2.752453   1.399664   0.000000
     6  N    4.810582   3.802290   4.119249   2.468102   1.371280
     7  C    5.416074   4.644443   5.247826   3.139521   2.587624
     8  H    6.329113   5.517488   6.020191   4.069840   3.333727
     9  C    6.180704   5.493465   6.144797   3.990828   3.589088
    10  C    7.277788   6.728461   7.489305   5.215227   4.947493
    11  C    6.934301   6.600967   7.530164   5.163103   5.226749
    12  C    6.191135   5.840638   6.744630   4.468187   4.534888
    13  C    4.824936   4.345710   5.205753   2.942049   3.019496
    14  H    4.596968   4.114186   4.898031   2.917815   2.982247
    15  N    3.974559   3.765716   4.831838   2.507451   3.184567
    16  C    2.779010   2.563780   3.675781   1.486463   2.581020
    17  H    3.854839   2.635630   2.373414   2.153881   1.102674
    18  H    5.654297   4.570937   4.691321   3.349242   2.094781
    19  H    5.643198   5.077696   5.819268   3.660642   3.573869
    20  H    6.808902   5.993664   6.466801   4.550498   3.881617
    21  H    7.937955   7.435361   8.206853   5.955509   5.744985
    22  H    7.985706   7.344491   8.011847   5.818509   5.342760
    23  H    6.529201   6.345418   7.365874   4.998716   5.316694
    24  H    7.942686   7.657918   8.601413   6.238609   6.293146
    25  H    6.219156   6.069693   7.066322   4.855488   5.169880
    26  H    6.925212   6.460411   7.242959   5.085637   4.898355
    27  H    2.472552   2.688156   3.870300   2.172850   3.448294
                    6          7          8          9         10
     6  N    0.000000
     7  C    1.495290   0.000000
     8  H    2.091971   1.121006   0.000000
     9  C    2.567390   1.549036   2.149185   0.000000
    10  C    3.881285   2.522465   2.647353   1.540605   0.000000
    11  C    4.392408   2.931932   3.137080   2.538939   1.536870
    12  C    3.818001   2.464444   2.556284   2.948971   2.545521
    13  C    2.524166   1.536489   2.136122   2.543039   3.005050
    14  H    2.730776   2.200264   2.518709   3.521751   4.011960
    15  N    3.167017   2.510453   3.423375   2.977095   3.554475
    16  C    3.098193   3.058548   4.080887   3.605945   4.542706
    17  H    2.099512   3.517873   4.088591   4.514956   5.912326
    18  H    1.022880   2.051230   2.314927   2.757742   4.081911
    19  H    2.922462   2.195253   3.083772   1.110803   2.185330
    20  H    2.762393   2.195399   2.531189   1.110710   2.174263
    21  H    4.729861   3.494009   3.692799   2.186119   1.112016
    22  H    4.116082   2.795309   2.449360   2.176446   1.112958
    23  H    4.705137   3.387961   3.890619   2.839018   2.171581
    24  H    5.406943   3.918770   3.908223   3.500825   2.181643
    25  H    4.669825   3.443480   3.588860   3.959552   3.501195
    26  H    4.006945   2.697188   2.299711   3.345177   2.827687
    27  H    4.111300   4.096399   5.143464   4.420664   5.290206
                   11         12         13         14         15
    11  C    0.000000
    12  C    1.543996   0.000000
    13  C    2.562506   1.553324   0.000000
    14  H    3.506969   2.170174   1.115324   0.000000
    15  N    2.965638   2.448720   1.464993   2.123296   0.000000
    16  C    4.193147   3.667202   2.379525   2.693246   1.292804
    17  H    6.281571   5.545603   4.048942   3.855636   4.261667
    18  H    4.890682   4.488104   3.382557   3.636045   4.089458
    19  H    2.840384   3.368122   2.788342   3.816979   2.632456
    20  H    3.493199   3.946873   3.506936   4.369716   3.992770
    21  H    2.180737   3.506137   3.991053   5.046822   4.275841
    22  H    2.168325   2.838824   3.450498   4.279002   4.331177
    23  H    1.113458   2.180818   2.832522   3.830448   2.644625
    24  H    1.111854   2.186321   3.523307   4.338192   3.973135
    25  H    2.179433   1.112090   2.187700   2.492901   2.684092
    26  H    2.181427   1.110202   2.190085   2.481582   3.409916
    27  H    4.853272   4.491589   3.377356   3.693174   2.052101
                   16         17         18         19         20
    16  C    0.000000
    17  H    3.546873   0.000000
    18  H    4.041301   2.437035   0.000000
    19  H    3.080791   4.544900   3.261354   0.000000
    20  H    4.433106   4.621250   2.532742   1.796872   0.000000
    21  H    5.201001   6.697933   4.837699   2.496348   2.530815
    22  H    5.322344   6.214220   4.154824   3.098080   2.470750
    23  H    3.810062   6.410854   5.294250   2.689143   3.848675
    24  H    5.234988   7.333193   5.847451   3.863007   4.330262
    25  H    3.894354   6.177285   5.439760   4.198900   5.002863
    26  H    4.529207   5.801846   4.527836   4.037352   4.153949
    27  H    1.100746   4.292065   5.005834   3.691753   5.231601
                   21         22         23         24         25
    21  H    0.000000
    22  H    1.799289   0.000000
    23  H    2.467845   3.084196   0.000000
    24  H    2.541507   2.467558   1.794485   0.000000
    25  H    4.336953   3.841749   2.487201   2.518540   0.000000
    26  H    3.852016   2.668534   3.097344   2.498438   1.794974
    27  H    5.800870   6.173644   4.248984   5.844772   4.557823
                   26         27
    26  H    0.000000
    27  H    5.445069   0.000000
 Symmetry turned off by external request.
 Stoichiometry    C9H13N3O2
 Framework group  C1[X(C9H13N3O2)]
 Deg. of freedom    75
 Full point group                 C1      NOp   1
 Rotational constants (GHZ):           1.6783598           0.4007184           0.3554041
 Standard basis: 6-31G(d) (6D, 7F)
   236 basis functions,   444 primitive gaussians,   236 cartesian basis functions
    52 alpha electrons       52 beta electrons
       nuclear repulsion energy       917.6914744982 Hartrees.
 NAtoms=   27 NActive=   27 NUniq=   27 SFac= 1.00D+00 NAtFMM=   60 NAOKFM=F Big=F
 Integral buffers will be    131072 words long.
 Raffenetti 1 integral format.
 Two-electron integral symmetry is turned off.
 One-electron integrals computed using PRISM.
 NBasis=   236 RedAO= T EigKep=  1.28D-03  NBF=   236
 NBsUse=   236 1.00D-06 EigRej= -1.00D+00 NBFU=   236
 ExpMin= 1.61D-01 ExpMax= 5.48D+03 ExpMxC= 8.25D+02 IAcc=3 IRadAn=         5 AccDes= 0.00D+00
 Harris functional with IExCor=  205 and IRadAn=       5 diagonalized for initial guess.
 HarFok:  IExCor=  205 AccDes= 0.00D+00 IRadAn=         5 IDoV= 1 UseB2=F ITyADJ=14
 ICtDFT=  3500011 ScaDFX=  1.000000  1.000000  1.000000  1.000000
 FoFCou: FMM=F IPFlag=           0 FMFlag=      100000 FMFlg1=           0
         NFxFlg=           0 DoJE=T BraDBF=F KetDBF=T FulRan=T
         wScrn=  0.000000 ICntrl=       500 IOpCl=  0 I1Cent=   200000004 NGrid=           0
         NMat0=    1 NMatS0=      1 NMatT0=    0 NMatD0=    1 NMtDS0=    0 NMtDT0=    0
 Symmetry not used in FoFCou.
 Keep R1 ints in memory in canonical form, NReq=397720213.
 Requested convergence on RMS density matrix=1.00D-08 within 128 cycles.
 Requested convergence on MAX density matrix=1.00D-06.
 Requested convergence on             energy=1.00D-06.
 No special actions if energy rises.
 SCF Done:  E(RHF) =  -661.280253281     A.U. after   16 cycles
            NFock= 16  Conv=0.83D-08     -V/T= 2.0037
 ExpMin= 1.61D-01 ExpMax= 5.48D+03 ExpMxC= 8.25D+02 IAcc=3 IRadAn=         5 AccDes= 0.00D+00
 HarFok:  IExCor=  205 AccDes= 0.00D+00 IRadAn=         5 IDoV=-2 UseB2=F ITyADJ=14
 ICtDFT= 12500011 ScaDFX=  1.000000  1.000000  1.000000  1.000000
 Range of M.O.s used for correlation:    15   236
 NBasis=   236 NAE=    52 NBE=    52 NFC=    14 NFV=     0
 NROrb=    222 NOA=    38 NOB=    38 NVA=   184 NVB=   184
 Fully direct method using O(ONN) memory.
 JobTyp=1 Pass  1:  I=  15 to  52 NPSUse=  4 ParTrn=T ParDer=T DoDerP=T.
 Spin components of T(2) and E(2):
     alpha-alpha T2 =       0.9195874171D-01 E2=     -0.2717470777D+00
     alpha-beta  T2 =       0.4998141917D+00 E2=     -0.1493886652D+01
     beta-beta   T2 =       0.9195874171D-01 E2=     -0.2717470777D+00
 ANorm=    0.1297586866D+01
 E2 =    -0.2037380807D+01 EUMP2 =    -0.66331763408826D+03
          IDoAtm=111111111111111111111111111
          Differentiating once with respect to electric field.
                with respect to dipole field.
          Differentiating once with respect to nuclear coordinates.
 Keep R1 ints in memory in canonical form, NReq=397723379.
          There are     1 degrees of freedom in the 1st order CPHF.  IDoFFX=0 NUNeed=     1.
 LinEq1:  Iter=  0 NonCon=     1 RMS=4.60D-03 Max=1.11D-01 NDo=     1
 AX will form     1 AO Fock derivatives at one time.
 LinEq1:  Iter=  1 NonCon=     1 RMS=1.56D-03 Max=3.12D-02 NDo=     1
 LinEq1:  Iter=  2 NonCon=     1 RMS=6.39D-04 Max=1.79D-02 NDo=     1
 LinEq1:  Iter=  3 NonCon=     1 RMS=2.94D-04 Max=9.07D-03 NDo=     1
 LinEq1:  Iter=  4 NonCon=     1 RMS=9.02D-05 Max=2.06D-03 NDo=     1
 LinEq1:  Iter=  5 NonCon=     1 RMS=3.75D-05 Max=1.90D-03 NDo=     1
 LinEq1:  Iter=  6 NonCon=     1 RMS=1.54D-05 Max=5.85D-04 NDo=     1
 LinEq1:  Iter=  7 NonCon=     1 RMS=5.95D-06 Max=1.04D-04 NDo=     1
 LinEq1:  Iter=  8 NonCon=     1 RMS=2.38D-06 Max=6.14D-05 NDo=     1
 LinEq1:  Iter=  9 NonCon=     1 RMS=8.89D-07 Max=2.55D-05 NDo=     1
 LinEq1:  Iter= 10 NonCon=     1 RMS=4.38D-07 Max=1.52D-05 NDo=     1
 LinEq1:  Iter= 11 NonCon=     1 RMS=1.55D-07 Max=5.75D-06 NDo=     1
 LinEq1:  Iter= 12 NonCon=     1 RMS=5.43D-08 Max=7.72D-07 NDo=     1
 LinEq1:  Iter= 13 NonCon=     1 RMS=1.72D-08 Max=3.43D-07 NDo=     1
 LinEq1:  Iter= 14 NonCon=     1 RMS=5.51D-09 Max=1.44D-07 NDo=     1
 LinEq1:  Iter= 15 NonCon=     1 RMS=2.05D-09 Max=4.77D-08 NDo=     1
 LinEq1:  Iter= 16 NonCon=     1 RMS=7.78D-10 Max=1.28D-08 NDo=     1
 LinEq1:  Iter= 17 NonCon=     1 RMS=2.58D-10 Max=3.78D-09 NDo=     1
 LinEq1:  Iter= 18 NonCon=     1 RMS=8.91D-11 Max=1.04D-09 NDo=     1
 LinEq1:  Iter= 19 NonCon=     0 RMS=2.96D-11 Max=4.14D-10 NDo=     1
 Linear equations converged to 1.000D-10 1.000D-09 after    19 iterations.
 End of Minotr F.D. properties file   721 does not exist.
 End of Minotr F.D. properties file   722 does not exist.
 End of Minotr F.D. properties file   788 does not exist.

 **********************************************************************

            Population analysis using the SCF Density.

 **********************************************************************

 Alpha  occ. eigenvalues --  -20.59853 -20.59401 -15.85288 -15.63215 -15.56958
 Alpha  occ. eigenvalues --  -11.35821 -11.30492 -11.30085 -11.30076 -11.27713
 Alpha  occ. eigenvalues --  -11.24619 -11.23874 -11.23412 -11.22856  -1.58499
 Alpha  occ. eigenvalues --   -1.38006  -1.28519  -1.22766  -1.13268  -1.08366
 Alpha  occ. eigenvalues --   -1.01815  -1.00654  -0.93563  -0.88975  -0.84928
 Alpha  occ. eigenvalues --   -0.81544  -0.78038  -0.76936  -0.74282  -0.71095
 Alpha  occ. eigenvalues --   -0.70350  -0.69780  -0.67410  -0.64402  -0.63285
 Alpha  occ. eigenvalues --   -0.61616  -0.60436  -0.57420  -0.56453  -0.54894
 Alpha  occ. eigenvalues --   -0.53525  -0.50741  -0.49294  -0.48472  -0.47761
 Alpha  occ. eigenvalues --   -0.47660  -0.46118  -0.45715  -0.44011  -0.42091
 Alpha  occ. eigenvalues --   -0.40069  -0.33815
 Alpha virt. eigenvalues --    0.07323   0.11776   0.18303   0.21340   0.23301
 Alpha virt. eigenvalues --    0.24185   0.26284   0.27732   0.28566   0.28871
 Alpha virt. eigenvalues --    0.29960   0.31036   0.31860   0.32256   0.33351
 Alpha virt. eigenvalues --    0.33761   0.34242   0.35480   0.37557   0.38582
 Alpha virt. eigenvalues --    0.40651   0.41836   0.44556   0.45286   0.45698
 Alpha virt. eigenvalues --    0.45959   0.49677   0.53145   0.57591   0.58964
 Alpha virt. eigenvalues --    0.63260   0.69137   0.69325   0.72180   0.74006
 Alpha virt. eigenvalues --    0.74963   0.75737   0.75842   0.77716   0.79347
 Alpha virt. eigenvalues --    0.80517   0.83654   0.85119   0.85350   0.88018
 Alpha virt. eigenvalues --    0.89024   0.90124   0.90789   0.91815   0.93887
 Alpha virt. eigenvalues --    0.95222   0.97187   0.98740   1.00335   1.01943
 Alpha virt. eigenvalues --    1.02736   1.05116   1.06427   1.06959   1.08641
 Alpha virt. eigenvalues --    1.09535   1.10454   1.11176   1.11947   1.13258
 Alpha virt. eigenvalues --    1.13810   1.14203   1.15307   1.16363   1.17326
 Alpha virt. eigenvalues --    1.17883   1.19887   1.21112   1.22260   1.23057
 Alpha virt. eigenvalues --    1.23572   1.24186   1.25756   1.27185   1.27495
 Alpha virt. eigenvalues --    1.29437   1.31207   1.32949   1.35829   1.39917
 Alpha virt. eigenvalues --    1.42691   1.46058   1.47147   1.48740   1.52538
 Alpha virt. eigenvalues --    1.54171   1.55294   1.60727   1.61347   1.65827
 Alpha virt. eigenvalues --    1.68826   1.70314   1.72797   1.73452   1.77267
 Alpha virt. eigenvalues --    1.77773   1.79643   1.84337   1.89178   1.92635
 Alpha virt. eigenvalues --    1.93621   1.96133   1.97579   1.98964   2.00658
 Alpha virt. eigenvalues --    2.03047   2.03873   2.05954   2.08819   2.11934
 Alpha virt. eigenvalues --    2.12799   2.14065   2.17747   2.18976   2.19232
 Alpha virt. eigenvalues --    2.20855   2.22057   2.24207   2.25136   2.26504
 Alpha virt. eigenvalues --    2.29144   2.32363   2.33668   2.35665   2.35904
 Alpha virt. eigenvalues --    2.38431   2.39773   2.41406   2.43094   2.46318
 Alpha virt. eigenvalues --    2.48675   2.50374   2.50899   2.56778   2.57222
 Alpha virt. eigenvalues --    2.60812   2.62739   2.66134   2.68498   2.68813
 Alpha virt. eigenvalues --    2.69818   2.70369   2.74771   2.77511   2.80921
 Alpha virt. eigenvalues --    2.84546   2.86673   2.90046   2.91456   2.95331
 Alpha virt. eigenvalues --    2.97594   2.98403   3.02158   3.03362   3.05604
 Alpha virt. eigenvalues --    3.06985   3.12494   3.19368   3.22615   3.27186
 Alpha virt. eigenvalues --    3.30282   3.33684   3.37088   3.43441   3.59545
 Alpha virt. eigenvalues --    4.09787   4.23180   4.31993   4.36215   4.42952
 Alpha virt. eigenvalues --    4.52739   4.59731   4.60111   4.70821   4.77482
 Alpha virt. eigenvalues --    4.96131   4.99225   5.02664   5.10024
          Condensed to atoms (all electrons):
               1          2          3          4          5          6
     1  O    8.299223   0.313740  -0.089552  -0.079478   0.003482  -0.000013
     2  N    0.313740   5.683533   0.308492   0.265274  -0.045590   0.000874
     3  O   -0.089552   0.308492   8.330843  -0.087225   0.007981   0.000457
     4  C   -0.079478   0.265274  -0.087225   5.243612   0.567758  -0.048284
     5  C    0.003482  -0.045590   0.007981   0.567758   4.669938   0.307031
     6  N   -0.000013   0.000874   0.000457  -0.048284   0.307031   7.193623
     7  C    0.000003  -0.000093   0.000002   0.003795  -0.029446   0.198196
     8  H   -0.000000   0.000002  -0.000000  -0.000157   0.002198  -0.050487
     9  C   -0.000000  -0.000003   0.000000   0.000435   0.001765  -0.055757
    10  C   -0.000000   0.000000  -0.000000  -0.000017  -0.000065   0.003323
    11  C   -0.000000  -0.000000  -0.000000  -0.000016   0.000015  -0.000154
    12  C   -0.000000   0.000002  -0.000000  -0.000074  -0.000117   0.003577
    13  C   -0.000021  -0.000031  -0.000003  -0.010913   0.000487  -0.043803
    14  H   -0.000003  -0.000054   0.000000   0.003115   0.004993  -0.005590
    15  N    0.000125   0.001663  -0.000014  -0.061400  -0.003665   0.001828
    16  C    0.003801  -0.027675   0.001917   0.319064  -0.040850  -0.001478
    17  H    0.000120  -0.003948   0.011696  -0.027959   0.378000  -0.034234
    18  H    0.000000  -0.000035   0.000008   0.000906  -0.024071   0.328013
    19  H    0.000000   0.000000   0.000000  -0.000710   0.000589   0.000726
    20  H    0.000000  -0.000000   0.000000  -0.000024   0.000032  -0.001827
    21  H   -0.000000  -0.000000   0.000000   0.000000   0.000001  -0.000058
    22  H   -0.000000   0.000000  -0.000000  -0.000000  -0.000002  -0.000098
    23  H    0.000000  -0.000000   0.000000   0.000025  -0.000000  -0.000024
    24  H    0.000000   0.000000   0.000000   0.000000  -0.000000   0.000004
    25  H    0.000000  -0.000000   0.000000   0.000019  -0.000001  -0.000071
    26  H    0.000000  -0.000000   0.000000   0.000006  -0.000001  -0.000067
    27  H    0.005059  -0.000290  -0.000007  -0.065830   0.002189   0.000054
               7          8          9         10         11         12
     1  O    0.000003  -0.000000  -0.000000  -0.000000  -0.000000  -0.000000
     2  N   -0.000093   0.000002  -0.000003   0.000000  -0.000000   0.000002
     3  O    0.000002  -0.000000   0.000000  -0.000000  -0.000000  -0.000000
     4  C    0.003795  -0.000157   0.000435  -0.000017  -0.000016  -0.000074
     5  C   -0.029446   0.002198   0.001765  -0.000065   0.000015  -0.000117
     6  N    0.198196  -0.050487  -0.055757   0.003323  -0.000154   0.003577
     7  C    4.998921   0.417107   0.340502  -0.049301  -0.007670  -0.063942
     8  H    0.417107   0.548233  -0.060878   0.001536  -0.000345  -0.002791
     9  C    0.340502  -0.060878   5.181753   0.317753  -0.053003  -0.006301
    10  C   -0.049301   0.001536   0.317753   5.126795   0.332741  -0.060059
    11  C   -0.007670  -0.000345  -0.053003   0.332741   5.123814   0.330678
    12  C   -0.063942  -0.002791  -0.006301  -0.060059   0.330678   5.136725
    13  C    0.333924  -0.040816  -0.049801  -0.001836  -0.047910   0.367862
    14  H   -0.040022  -0.000937   0.003862  -0.000391   0.003951  -0.040731
    15  N   -0.057777   0.004054  -0.012896   0.001472  -0.007725  -0.073940
    16  C   -0.002588   0.000041  -0.000987  -0.000017   0.000001   0.002607
    17  H    0.001438  -0.000015  -0.000065   0.000001   0.000000   0.000001
    18  H   -0.028254  -0.002498   0.000806  -0.000121   0.000011  -0.000133
    19  H   -0.034992   0.004119   0.385726  -0.032519  -0.002286   0.000641
    20  H   -0.041579  -0.001867   0.397280  -0.037406   0.004142  -0.000359
    21  H    0.004037  -0.000081  -0.035829   0.400160  -0.035853   0.004208
    22  H   -0.004187   0.003509  -0.045687   0.395984  -0.045621  -0.001237
    23  H    0.000420   0.000034  -0.002006  -0.040095   0.396715  -0.036665
    24  H   -0.000141  -0.000097   0.004393  -0.038478   0.400297  -0.037861
    25  H    0.004961  -0.000004  -0.000368   0.004096  -0.033966   0.395526
    26  H   -0.004455   0.001630   0.001031  -0.002396  -0.042303   0.394726
    27  H   -0.000402   0.000009  -0.000061   0.000005   0.000004  -0.000019
              13         14         15         16         17         18
     1  O   -0.000021  -0.000003   0.000125   0.003801   0.000120   0.000000
     2  N   -0.000031  -0.000054   0.001663  -0.027675  -0.003948  -0.000035
     3  O   -0.000003   0.000000  -0.000014   0.001917   0.011696   0.000008
     4  C   -0.010913   0.003115  -0.061400   0.319064  -0.027959   0.000906
     5  C    0.000487   0.004993  -0.003665  -0.040850   0.378000  -0.024071
     6  N   -0.043803  -0.005590   0.001828  -0.001478  -0.034234   0.328013
     7  C    0.333924  -0.040022  -0.057777  -0.002588   0.001438  -0.028254
     8  H   -0.040816  -0.000937   0.004054   0.000041  -0.000015  -0.002498
     9  C   -0.049801   0.003862  -0.012896  -0.000987  -0.000065   0.000806
    10  C   -0.001836  -0.000391   0.001472  -0.000017   0.000001  -0.000121
    11  C   -0.047910   0.003951  -0.007725   0.000001   0.000000   0.000011
    12  C    0.367862  -0.040731  -0.073940   0.002607   0.000001  -0.000133
    13  C    5.025960   0.401733   0.239100  -0.070034  -0.000041   0.003643
    14  H    0.401733   0.519357  -0.035837  -0.004795   0.000072   0.000011
    15  N    0.239100  -0.035837   6.932936   0.587181  -0.000062  -0.000119
    16  C   -0.070034  -0.004795   0.587181   4.700818   0.001665  -0.000219
    17  H   -0.000041   0.000072  -0.000062   0.001665   0.387393  -0.001782
    18  H    0.003643   0.000011  -0.000119  -0.000219  -0.001782   0.324185
    19  H   -0.006326   0.000065   0.006974   0.002576   0.000011  -0.000124
    20  H    0.003854  -0.000049   0.000077  -0.000031  -0.000001   0.002936
    21  H   -0.000372   0.000009  -0.000028   0.000002  -0.000000  -0.000000
    22  H    0.000321  -0.000044   0.000002  -0.000001   0.000000   0.000002
    23  H   -0.005822   0.000008   0.006728   0.000054   0.000000   0.000000
    24  H    0.004136  -0.000058   0.000046   0.000005   0.000000  -0.000000
    25  H   -0.034522  -0.002651   0.000693  -0.000062  -0.000000   0.000002
    26  H   -0.044756  -0.000913   0.004177  -0.000060   0.000000  -0.000001
    27  H    0.004899  -0.000178  -0.039726   0.402153  -0.000058   0.000002
              19         20         21         22         23         24
     1  O    0.000000   0.000000  -0.000000  -0.000000   0.000000   0.000000
     2  N    0.000000  -0.000000  -0.000000   0.000000  -0.000000   0.000000
     3  O    0.000000   0.000000   0.000000  -0.000000   0.000000   0.000000
     4  C   -0.000710  -0.000024   0.000000  -0.000000   0.000025   0.000000
     5  C    0.000589   0.000032   0.000001  -0.000002  -0.000000  -0.000000
     6  N    0.000726  -0.001827  -0.000058  -0.000098  -0.000024   0.000004
     7  C   -0.034992  -0.041579   0.004037  -0.004187   0.000420  -0.000141
     8  H    0.004119  -0.001867  -0.000081   0.003509   0.000034  -0.000097
     9  C    0.385726   0.397280  -0.035829  -0.045687  -0.002006   0.004393
    10  C   -0.032519  -0.037406   0.400160   0.395984  -0.040095  -0.038478
    11  C   -0.002286   0.004142  -0.035853  -0.045621   0.396715   0.400297
    12  C    0.000641  -0.000359   0.004208  -0.001237  -0.036665  -0.037861
    13  C   -0.006326   0.003854  -0.000372   0.000321  -0.005822   0.004136
    14  H    0.000065  -0.000049   0.000009  -0.000044   0.000008  -0.000058
    15  N    0.006974   0.000077  -0.000028   0.000002   0.006728   0.000046
    16  C    0.002576  -0.000031   0.000002  -0.000001   0.000054   0.000005
    17  H    0.000011  -0.000001  -0.000000   0.000000   0.000000   0.000000
    18  H   -0.000124   0.002936  -0.000000   0.000002   0.000000  -0.000000
    19  H    0.507112  -0.024056  -0.002596   0.003758   0.001642  -0.000069
    20  H   -0.024056   0.550301  -0.002608  -0.002971  -0.000050  -0.000090
    21  H   -0.002596  -0.002608   0.526150  -0.024698  -0.002815  -0.002057
    22  H    0.003758  -0.002971  -0.024698   0.568721   0.004062  -0.003596
    23  H    0.001642  -0.000050  -0.002815   0.004062   0.509812  -0.024996
    24  H   -0.000069  -0.000090  -0.002057  -0.003596  -0.024996   0.541008
    25  H   -0.000027   0.000011  -0.000086  -0.000082  -0.002099  -0.002377
    26  H    0.000023  -0.000035  -0.000074   0.002467   0.003822  -0.002770
    27  H    0.000077  -0.000000  -0.000000   0.000000  -0.000021  -0.000000
              25         26         27
     1  O    0.000000   0.000000   0.005059
     2  N   -0.000000  -0.000000  -0.000290
     3  O    0.000000   0.000000  -0.000007
     4  C    0.000019   0.000006  -0.065830
     5  C   -0.000001  -0.000001   0.002189
     6  N   -0.000071  -0.000067   0.000054
     7  C    0.004961  -0.004455  -0.000402
     8  H   -0.000004   0.001630   0.000009
     9  C   -0.000368   0.001031  -0.000061
    10  C    0.004096  -0.002396   0.000005
    11  C   -0.033966  -0.042303   0.000004
    12  C    0.395526   0.394726  -0.000019
    13  C   -0.034522  -0.044756   0.004899
    14  H   -0.002651  -0.000913  -0.000178
    15  N    0.000693   0.004177  -0.039726
    16  C   -0.000062  -0.000060   0.402153
    17  H   -0.000000   0.000000  -0.000058
    18  H    0.000002  -0.000001   0.000002
    19  H   -0.000027   0.000023   0.000077
    20  H    0.000011  -0.000035  -0.000000
    21  H   -0.000086  -0.000074  -0.000000
    22  H   -0.000082   0.002467   0.000000
    23  H   -0.002099   0.003822  -0.000021
    24  H   -0.002377  -0.002770  -0.000000
    25  H    0.510524  -0.023089  -0.000010
    26  H   -0.023089   0.560595   0.000001
    27  H   -0.000010   0.000001   0.454028
 Mulliken charges:
               1
     1  O   -0.456486
     2  N    0.504138
     3  O   -0.484597
     4  C   -0.021923
     5  C    0.197347
     6  N   -0.795760
     7  C    0.061543
     8  H    0.178503
     9  C   -0.311664
    10  C   -0.321166
    11  C   -0.315516
    12  C   -0.312324
    13  C   -0.028913
    14  H    0.195078
    15  N   -0.493867
    16  C    0.126913
    17  H    0.287768
    18  H    0.396832
    19  H    0.189667
    20  H    0.154320
    21  H    0.172590
    22  H    0.149398
    23  H    0.191272
    24  H    0.162701
    25  H    0.183582
    26  H    0.152442
    27  H    0.238121
 Sum of Mulliken charges =  -0.00000
 Mulliken charges with hydrogens summed into heavy atoms:
               1
     1  O   -0.456486
     2  N    0.504138
     3  O   -0.484597
     4  C   -0.021923
     5  C    0.485115
     6  N   -0.398928
     7  C    0.240046
     9  C    0.032324
    10  C    0.000823
    11  C    0.038457
    12  C    0.023699
    13  C    0.166165
    15  N   -0.493867
    16  C    0.365034
 Electronic spatial extent (au):  <R**2>=           3123.0655
 Charge=              0.0000 electrons
 Dipole moment (field-independent basis, Debye):
    X=              5.3363    Y=              4.4986    Z=              0.3997  Tot=              6.9909
 Quadrupole moment (field-independent basis, Debye-Ang):
   XX=           -105.3521   YY=            -80.3644   ZZ=            -82.1996
   XY=             -2.0264   XZ=              1.3550   YZ=             -0.0103
 Traceless Quadrupole moment (field-independent basis, Debye-Ang):
   XX=            -16.0467   YY=              8.9409   ZZ=              7.1058
   XY=             -2.0264   XZ=              1.3550   YZ=             -0.0103
 Octapole moment (field-independent basis, Debye-Ang**2):
  XXX=            100.5944  YYY=             37.1850  ZZZ=             -5.8468  XYY=             -1.2447
  XXY=             12.3259  XXZ=             -2.7446  XZZ=             -8.4987  YZZ=             -2.8770
  YYZ=              0.1367  XYZ=             -1.7718
 Hexadecapole moment (field-independent basis, Debye-Ang**3):
 XXXX=          -3554.2432 YYYY=           -621.0140 ZZZZ=           -298.2148 XXXY=            -46.2233
 XXXZ=             43.9295 YYYX=            -24.9800 YYYZ=             10.7593 ZZZX=             29.8086
 ZZZY=              9.8587 XXYY=           -656.6503 XXZZ=           -542.8944 YYZZ=           -164.3052
 XXYZ=              3.0651 YYXZ=             13.4579 ZZXY=              1.7125
 N-N= 9.176914744982D+02 E-N=-3.381394479987D+03  KE= 6.588556955993D+02
 Calling FoFJK, ICntrl=  10002127 FMM=F ISym2X=0 I1Cent= 0 IOpClX= 0 NMat=1 NMatS=1 NMatT=0.
 -------------------------------------------------------------------
 Center     Atomic                   Forces (Hartrees/Bohr)
 Number     Number              X              Y              Z
 -------------------------------------------------------------------
      1        8           0.002553429   -0.019379400   -0.003160648
      2        7           0.038915667    0.014544673   -0.003550712
      3        8          -0.005448887    0.015612583    0.004005858
      4        6          -0.002881188    0.009678206    0.010353038
      5        6           0.002780743   -0.017118042   -0.005471024
      6        7           0.014982665   -0.010794689   -0.005990305
      7        6          -0.004727696    0.005297549    0.002851324
      8        1          -0.009801665   -0.001788677   -0.007714716
      9        6          -0.003993813    0.000037938   -0.002143583
     10        6           0.002855420   -0.000831947    0.001028490
     11        6          -0.001095103   -0.004640903   -0.002474213
     12        6           0.000888677   -0.008682814   -0.002834472
     13        6           0.009088877   -0.002128127    0.005114547
     14        1           0.000824354    0.004583167   -0.009833931
     15        7          -0.000075611    0.002102722   -0.000310137
     16        6          -0.020999555    0.006153972    0.005341171
     17        1           0.006958678   -0.005683334   -0.006948079
     18        1          -0.017378900   -0.001625734    0.006698913
     19        1           0.003060419    0.005907198    0.007726248
     20        1          -0.003300822   -0.007312263    0.002570184
     21        1          -0.004461996    0.002400891    0.009576709
     22        1          -0.003911389   -0.003972177   -0.007459423
     23        1           0.003928647    0.006128755    0.009338669
     24        1          -0.009355435    0.002651247   -0.002221263
     25        1          -0.000715726    0.010584220   -0.002388322
     26        1          -0.004764375   -0.004808348   -0.004427787
     27        1           0.006074581    0.003083334    0.002323465
 -------------------------------------------------------------------
 Cartesian Forces:  Max     0.038915667 RMS     0.008443036

 GradGradGradGradGradGradGradGradGradGradGradGradGradGradGradGradGradGrad
 Berny optimization.
 FormGI is forming the generalized inverse of G from B-inverse, IUseBI=4.
 Internal  Forces:  Max     0.037526807 RMS     0.006860922
 Search for a local minimum.
 Step number   1 out of a maximum of   20
 All quantities printed in internal units (Hartrees-Bohrs-Radians)
 Mixed Optimization -- RFO/linear search
 Second derivative matrix not updated -- first step.
 ITU=  0
     Eigenvalues ---    0.00231   0.00768   0.01072   0.01172   0.01366
     Eigenvalues ---    0.01529   0.01602   0.01799   0.02009   0.02085
     Eigenvalues ---    0.02684   0.03644   0.04504   0.04687   0.04837
     Eigenvalues ---    0.05076   0.05137   0.05302   0.05893   0.06266
     Eigenvalues ---    0.07188   0.07702   0.07725   0.07877   0.07993
     Eigenvalues ---    0.08051   0.08063   0.10460   0.11728   0.12245
     Eigenvalues ---    0.13321   0.15084   0.15562   0.15989   0.15999
     Eigenvalues ---    0.20077   0.21893   0.23032   0.24984   0.25000
     Eigenvalues ---    0.25000   0.25355   0.26178   0.26652   0.27981
     Eigenvalues ---    0.28085   0.28450   0.29722   0.31462   0.31471
     Eigenvalues ---    0.32043   0.32237   0.32289   0.32380   0.32388
     Eigenvalues ---    0.32405   0.32515   0.32525   0.32579   0.33310
     Eigenvalues ---    0.33388   0.33600   0.35262   0.43882   0.44213
     Eigenvalues ---    0.48963   0.66678   0.90445   0.911701000.00000
     Eigenvalues --- 1000.000001000.000001000.000001000.000001000.00000
     Eigenvalues --- 1000.000001000.000001000.000001000.000001000.00000
     Eigenvalues --- 1000.000001000.000001000.000001000.000001000.00000
     Eigenvalues --- 1000.000001000.000001000.000001000.000001000.00000
     Eigenvalues --- 1000.000001000.000001000.000001000.000001000.00000
     Eigenvalues --- 1000.000001000.000001000.000001000.000001000.00000
     Eigenvalues --- 1000.000001000.000001000.000001000.000001000.00000
     Eigenvalues --- 1000.000001000.000001000.000001000.000001000.00000
     Eigenvalues --- 1000.000001000.000001000.000001000.000001000.00000
     Eigenvalues --- 1000.000001000.000001000.000001000.000001000.00000
     Eigenvalues --- 1000.000001000.000001000.000001000.000001000.00000
     Eigenvalues --- 1000.000001000.000001000.000001000.000001000.00000
     Eigenvalues --- 1000.000001000.000001000.000001000.000001000.00000
     Eigenvalues --- 1000.000001000.000001000.000001000.000001000.00000
     Eigenvalues --- 1000.000001000.000001000.000001000.000001000.00000
     Eigenvalues --- 1000.000001000.000001000.000001000.000001000.00000
     Eigenvalues --- 1000.000001000.000001000.000001000.000001000.00000
     Eigenvalues --- 1000.000001000.000001000.000001000.000001000.00000
     Eigenvalues --- 1000.00000
 RFO step:  Lambda=-2.35487216D-02 EMin= 2.31293177D-03
 Linear search not attempted -- first point.
 Iteration  1 RMS(Cart)=  0.05537969 RMS(Int)=  0.00109372
 Iteration  2 RMS(Cart)=  0.00117438 RMS(Int)=  0.00026833
 Iteration  3 RMS(Cart)=  0.00000127 RMS(Int)=  0.00026833
 Iteration  4 RMS(Cart)=  0.00000000 RMS(Int)=  0.00026833
 Iteration  1 RMS(Cart)=  0.00005510 RMS(Int)=  0.00002612
 Iteration  2 RMS(Cart)=  0.00003437 RMS(Int)=  0.00002894
 Iteration  3 RMS(Cart)=  0.00002182 RMS(Int)=  0.00003303
 Iteration  4 RMS(Cart)=  0.00001409 RMS(Int)=  0.00003623
 Iteration  5 RMS(Cart)=  0.00000929 RMS(Int)=  0.00003847
 Iteration  6 RMS(Cart)=  0.00000627 RMS(Int)=  0.00004000
 Iteration  7 RMS(Cart)=  0.00000436 RMS(Int)=  0.00004105
 Iteration  8 RMS(Cart)=  0.00000314 RMS(Int)=  0.00004177
 Iteration  9 RMS(Cart)=  0.00000234 RMS(Int)=  0.00004229
 Iteration 10 RMS(Cart)=  0.00000180 RMS(Int)=  0.00004267
 Iteration 11 RMS(Cart)=  0.00000143 RMS(Int)=  0.00004295
 Iteration 12 RMS(Cart)=  0.00000116 RMS(Int)=  0.00004317
 Iteration 13 RMS(Cart)=  0.00000096 RMS(Int)=  0.00004335
 Variable       Old X    -DE/DX   Delta X   Delta X   Delta X     New X
                                 (Linear)    (Quad)   (Total)
    R1        2.32398   0.01808   0.00000   0.01933   0.01933   2.34331
    R2        2.32728   0.01587   0.00000   0.01710   0.01710   2.34439
    R3        2.88522  -0.03753   0.00000  -0.11699  -0.11699   2.76823
    R4        2.64498  -0.03512   0.00000  -0.07613  -0.07592   2.56906
    R5        2.80901  -0.02105   0.00000  -0.06116  -0.06099   2.74801
    R6        2.59134  -0.02399   0.00000  -0.04629  -0.04616   2.54519
    R7        2.08375  -0.01031   0.00000  -0.02885  -0.02885   2.05491
    R8        2.82569  -0.01951   0.00000  -0.05327  -0.05326   2.77243
    R9        1.93296  -0.00669   0.00000  -0.01448  -0.01448   1.91849
   R10        2.11840  -0.01177   0.00000  -0.03480  -0.03480   2.08359
   R11        2.92725  -0.01304   0.00000  -0.04448  -0.04452   2.88273
   R12        2.90354  -0.00484   0.00000  -0.00934  -0.00928   2.89427
   R13        2.91132  -0.00466   0.00000  -0.01429  -0.01432   2.89700
   R14        2.09911  -0.00998   0.00000  -0.02863  -0.02863   2.07048
   R15        2.09894  -0.00800   0.00000  -0.02294  -0.02294   2.07600
   R16        2.90426  -0.00186   0.00000  -0.00710  -0.00712   2.89714
   R17        2.10141  -0.01058   0.00000  -0.03046  -0.03046   2.07095
   R18        2.10319  -0.00902   0.00000  -0.02603  -0.02603   2.07715
   R19        2.91773  -0.00907   0.00000  -0.02869  -0.02865   2.88908
   R20        2.10413  -0.01169   0.00000  -0.03380  -0.03380   2.07033
   R21        2.10110  -0.00995   0.00000  -0.02863  -0.02863   2.07247
   R22        2.93536  -0.01052   0.00000  -0.03643  -0.03640   2.89895
   R23        2.10154  -0.01071   0.00000  -0.03085  -0.03085   2.07070
   R24        2.09798  -0.00788   0.00000  -0.02255  -0.02255   2.07543
   R25        2.10766  -0.00908   0.00000  -0.02639  -0.02639   2.08127
   R26        2.76844  -0.00524   0.00000  -0.01123  -0.01163   2.75681
   R27        2.44304  -0.00623   0.00000  -0.00899  -0.00914   2.43390
   R28        2.08011  -0.00619   0.00000  -0.01721  -0.01721   2.06290
    A1        2.15935   0.01088   0.00000   0.04004   0.03960   2.19895
    A2        2.05353  -0.00790   0.00000  -0.02859  -0.02902   2.02451
    A3        2.07014  -0.00296   0.00000  -0.01053  -0.01096   2.05918
    A4        2.03457  -0.00696   0.00000  -0.02140  -0.02149   2.01308
    A5        2.03503  -0.00333   0.00000  -0.00848  -0.00861   2.02642
    A6        2.21321   0.01025   0.00000   0.02966   0.02985   2.24306
    A7        2.19775   0.00590   0.00000   0.01735   0.01761   2.21536
    A8        2.06504  -0.00317   0.00000  -0.00964  -0.00979   2.05525
    A9        2.01942  -0.00268   0.00000  -0.00713  -0.00733   2.01209
   A10        2.25107  -0.00517   0.00000  -0.01692  -0.01700   2.23407
   A11        2.11876  -0.01254   0.00000  -0.07103  -0.07160   2.04715
   A12        1.87812   0.01789   0.00000   0.09724   0.09738   1.97549
   A13        1.83757  -0.00142   0.00000  -0.01661  -0.01641   1.82117
   A14        2.00672  -0.00128   0.00000  -0.01201  -0.01202   1.99470
   A15        1.96734   0.00103   0.00000   0.00064   0.00014   1.96748
   A16        1.85171   0.00266   0.00000   0.02364   0.02351   1.87522
   A17        1.84885   0.00070   0.00000   0.01773   0.01749   1.86634
   A18        1.93751  -0.00136   0.00000  -0.00913  -0.00878   1.92873
   A19        1.91038   0.00013   0.00000  -0.00490  -0.00506   1.90533
   A20        1.92256  -0.00073   0.00000  -0.01271  -0.01267   1.90989
   A21        1.92286  -0.00164   0.00000  -0.00722  -0.00720   1.91566
   A22        1.91915  -0.00037   0.00000   0.00579   0.00575   1.92491
   A23        1.90429   0.00303   0.00000   0.02450   0.02451   1.92880
   A24        1.88439  -0.00039   0.00000  -0.00503  -0.00529   1.87910
   A25        1.94043  -0.00088   0.00000   0.00556   0.00548   1.94590
   A26        1.91899  -0.00070   0.00000  -0.00676  -0.00678   1.91221
   A27        1.90498   0.00032   0.00000  -0.00293  -0.00300   1.90197
   A28        1.91614   0.00082   0.00000   0.00715   0.00719   1.92332
   A29        1.89847   0.00168   0.00000   0.01109   0.01111   1.90957
   A30        1.88380  -0.00123   0.00000  -0.01459  -0.01467   1.86914
   A31        1.94478   0.00055   0.00000   0.00522   0.00531   1.95009
   A32        1.90233   0.00065   0.00000   0.00573   0.00571   1.90804
   A33        1.91753   0.00039   0.00000   0.00530   0.00527   1.92280
   A34        1.90636  -0.00108   0.00000  -0.01396  -0.01399   1.89237
   A35        1.91539  -0.00047   0.00000  -0.00002  -0.00009   1.91530
   A36        1.87607  -0.00008   0.00000  -0.00266  -0.00270   1.87337
   A37        1.94867  -0.00292   0.00000  -0.01822  -0.01821   1.93046
   A38        1.90587   0.00254   0.00000   0.01692   0.01679   1.92266
   A39        1.91044   0.00137   0.00000   0.01342   0.01335   1.92379
   A40        1.90599   0.00016   0.00000  -0.00281  -0.00268   1.90331
   A41        1.91108  -0.00021   0.00000  -0.00486  -0.00479   1.90628
   A42        1.88052  -0.00087   0.00000  -0.00396  -0.00414   1.87638
   A43        1.84660   0.00448   0.00000   0.02376   0.02374   1.87034
   A44        1.93987  -0.00433   0.00000  -0.03166  -0.03212   1.90774
   A45        1.98101   0.00084   0.00000   0.00961   0.00993   1.99094
   A46        1.87955   0.00228   0.00000   0.03124   0.03158   1.91114
   A47        1.89208  -0.00375   0.00000  -0.02760  -0.02765   1.86443
   A48        1.92004   0.00069   0.00000  -0.00286  -0.00283   1.91721
   A49        2.07941  -0.00618   0.00000  -0.01443  -0.01486   2.06455
   A50        2.24735  -0.00465   0.00000  -0.02123  -0.02108   2.22627
   A51        1.97934   0.00587   0.00000   0.02999   0.02980   2.00914
   A52        2.05630  -0.00117   0.00000  -0.00834  -0.00853   2.04777
    D1       -3.02483  -0.00074   0.00000  -0.00756  -0.00742  -3.03225
    D2        0.14412   0.00055   0.00000   0.00000  -0.00000   0.14412
    D3        0.13569  -0.00210   0.00000  -0.05981  -0.05973   0.07596
    D4       -2.97854  -0.00080   0.00000  -0.05225  -0.05231  -3.03085
    D5        3.06550   0.00061   0.00000  -0.02035  -0.02070   3.04480
    D6       -0.02640  -0.00054   0.00000  -0.03472  -0.03520  -0.06160
    D7       -0.10665  -0.00112   0.00000  -0.02960  -0.03006  -0.13672
    D8        3.08464  -0.00227   0.00000  -0.04397  -0.04456   3.04007
    D9       -2.64754  -0.00251   0.00000   0.00000  -0.00000  -2.64755
   D10        0.47214   0.00032   0.00000   0.02389   0.02394   0.49609
   D11        0.52462  -0.00073   0.00000   0.00945   0.00961   0.53422
   D12       -2.63888   0.00211   0.00000   0.03334   0.03356  -2.60533
   D13       -0.17496   0.00015   0.00000   0.01898   0.01905  -0.15591
   D14        2.64801   0.00384   0.00000   0.07552   0.07406   2.72207
   D15        2.91807   0.00125   0.00000   0.03294   0.03316   2.95124
   D16       -0.54214   0.00494   0.00000   0.08948   0.08817  -0.45397
   D17       -2.44451  -0.00083   0.00000  -0.01288  -0.01239  -2.45690
   D18        1.80742  -0.00248   0.00000  -0.02455  -0.02413   1.78329
   D19       -0.43704  -0.00033   0.00000  -0.00121  -0.00116  -0.43821
   D20        0.98143  -0.00020   0.00000  -0.04128  -0.04208   0.93935
   D21       -1.04982  -0.00184   0.00000  -0.05296  -0.05382  -1.10364
   D22        2.98890   0.00030   0.00000  -0.02961  -0.03086   2.95804
   D23        2.94433   0.00234   0.00000   0.02617   0.02607   2.97040
   D24       -1.22670   0.00150   0.00000   0.02216   0.02208  -1.20462
   D25        0.85035  -0.00046   0.00000   0.00353   0.00353   0.85388
   D26        0.92116   0.00305   0.00000   0.03763   0.03759   0.95876
   D27        3.03332   0.00220   0.00000   0.03362   0.03360   3.06692
   D28       -1.17281   0.00024   0.00000   0.01499   0.01505  -1.15777
   D29       -1.07962   0.00142   0.00000   0.00811   0.00810  -1.07152
   D30        1.03254   0.00058   0.00000   0.00410   0.00411   1.03664
   D31        3.10959  -0.00138   0.00000  -0.01454  -0.01445   3.09514
   D32       -2.90127  -0.00116   0.00000  -0.01298  -0.01273  -2.91400
   D33       -0.86586   0.00191   0.00000   0.02161   0.02145  -0.84441
   D34        1.30937   0.00004   0.00000   0.00000   0.00001   1.30938
   D35       -0.90061  -0.00193   0.00000  -0.02204  -0.02197  -0.92258
   D36        1.13480   0.00115   0.00000   0.01255   0.01221   1.14701
   D37       -2.97316  -0.00072   0.00000  -0.00906  -0.00923  -2.98238
   D38        1.10195   0.00092   0.00000   0.01117   0.01126   1.11321
   D39        3.13736   0.00399   0.00000   0.04576   0.04544  -3.10038
   D40       -0.97059   0.00213   0.00000   0.02415   0.02400  -0.94659
   D41        0.95666   0.00062   0.00000   0.00000   0.00000   0.95666
   D42        3.08234   0.00059   0.00000   0.00814   0.00810   3.09044
   D43       -1.13760  -0.00112   0.00000  -0.01533  -0.01530  -1.15290
   D44       -1.15757   0.00168   0.00000   0.01519   0.01526  -1.14231
   D45        0.96811   0.00164   0.00000   0.02333   0.02336   0.99147
   D46        3.03136  -0.00007   0.00000  -0.00014  -0.00005   3.03132
   D47        3.06197   0.00056   0.00000   0.00325   0.00320   3.06517
   D48       -1.09553   0.00053   0.00000   0.01139   0.01130  -1.08423
   D49        0.96772  -0.00119   0.00000  -0.01208  -0.01210   0.95561
   D50       -0.92192  -0.00082   0.00000   0.00000   0.00000  -0.92192
   D51        1.18316  -0.00138   0.00000  -0.01032  -0.01032   1.17283
   D52       -3.04858  -0.00087   0.00000  -0.00711  -0.00714  -3.05571
   D53       -3.04926   0.00009   0.00000  -0.00003  -0.00002  -3.04929
   D54       -0.94418  -0.00047   0.00000  -0.01035  -0.01035  -0.95453
   D55        1.10727   0.00004   0.00000  -0.00715  -0.00716   1.10010
   D56        1.17619   0.00011   0.00000   0.00697   0.00700   1.18319
   D57       -3.00192  -0.00045   0.00000  -0.00334  -0.00332  -3.00524
   D58       -0.95046   0.00006   0.00000  -0.00014  -0.00014  -0.95060
   D59        0.98745  -0.00078   0.00000  -0.01210  -0.01211   0.97534
   D60        3.09690  -0.00076   0.00000  -0.01599  -0.01610   3.08079
   D61       -1.13148   0.00047   0.00000  -0.00315  -0.00310  -1.13458
   D62       -1.11526  -0.00124   0.00000  -0.01335  -0.01333  -1.12859
   D63        0.99418  -0.00121   0.00000  -0.01724  -0.01732   0.97686
   D64        3.04899   0.00001   0.00000  -0.00440  -0.00431   3.04468
   D65        3.11534  -0.00024   0.00000  -0.00192  -0.00192   3.11342
   D66       -1.05840  -0.00021   0.00000  -0.00581  -0.00591  -1.06431
   D67        0.99641   0.00101   0.00000   0.00703   0.00710   1.00351
   D68       -1.05102   0.00004   0.00000   0.00018   0.00026  -1.05076
   D69       -3.12680   0.00159   0.00000   0.00899   0.00865  -3.11815
   D70        1.07957   0.00156   0.00000   0.01014   0.01016   1.08974
   D71        3.12279  -0.00138   0.00000  -0.00743  -0.00731   3.11549
   D72        1.04701   0.00018   0.00000   0.00139   0.00109   1.04810
   D73       -1.02980   0.00014   0.00000   0.00253   0.00260  -1.02720
   D74        1.06755  -0.00030   0.00000   0.00182   0.00199   1.06953
   D75       -1.00824   0.00126   0.00000   0.01063   0.01038  -0.99786
   D76       -3.08505   0.00122   0.00000   0.01178   0.01189  -3.07316
   D77       -1.17216   0.00351   0.00000   0.00000   0.00001  -1.17215
   D78        3.06481  -0.00009   0.00000  -0.01707  -0.01697   3.04785
   D79        1.01372  -0.00104   0.00000  -0.03698  -0.03722   0.97650
   D80        0.10308   0.00270   0.00000   0.00993   0.00983   0.11291
   D81       -3.01578  -0.00031   0.00000  -0.01525  -0.01498  -3.03076
         Item               Value     Threshold  Converged?
 Maximum Force            0.037527     0.000450     NO 
 RMS     Force            0.006950     0.000300     NO 
 Maximum Displacement     0.287236     0.001800     NO 
 RMS     Displacement     0.055634     0.001200     NO 
 Predicted change in Energy=-1.316451D-02
 GradGradGradGradGradGradGradGradGradGradGradGradGradGradGradGradGradGrad

                          Input orientation:                          
 ---------------------------------------------------------------------
 Center     Atomic      Atomic             Coordinates (Angstroms)
 Number     Number       Type             X           Y           Z
 ---------------------------------------------------------------------
      1          8           0       -3.455430   -1.457511   -0.132344
      2          7           0       -3.121921   -0.272823    0.019165
      3          8           0       -3.885761    0.674408    0.260785
      4          6           0       -1.685432    0.004362   -0.055311
      5          6           0       -1.322719    1.280026    0.243565
      6          7           0       -0.069225    1.761168    0.349752
      7          6           0        1.190219    1.008700    0.349272
      8          1           0        1.812438    1.517033    1.104351
      9          6           0        1.948067    1.054618   -0.973843
     10          6           0        3.342484    0.448960   -0.776490
     11          6           0        3.262783   -0.964705   -0.188613
     12          6           0        2.416722   -1.001579    1.084240
     13          6           0        1.014729   -0.439068    0.817151
     14          1           0        0.429598   -0.451824    1.750131
     15          7           0        0.390616   -1.312234   -0.170918
     16          6           0       -0.841648   -1.101068   -0.480413
     17          1           0       -2.114218    1.995970    0.451923
     18          1           0        0.060541    2.757827    0.206572
     19          1           0        1.392772    0.490866   -1.731661
     20          1           0        2.025449    2.093801   -1.321647
     21          1           0        3.873647    0.430810   -1.734890
     22          1           0        3.919817    1.094177   -0.099302
     23          1           0        2.810480   -1.638441   -0.924672
     24          1           0        4.269879   -1.342730    0.024967
     25          1           0        2.325712   -2.031362    1.447514
     26          1           0        2.897559   -0.412846    1.876951
     27          1           0       -1.324138   -1.825515   -1.139245
 ---------------------------------------------------------------------
                    Distance matrix (angstroms):
                    1          2          3          4          5
     1  O    0.000000
     2  N    1.240027   0.000000
     3  O    2.210161   1.240596   0.000000
     4  C    2.296933   1.464882   2.321708   0.000000
     5  C    3.490541   2.387221   2.633677   1.359488   0.000000
     6  N    4.696668   3.683118   3.969246   2.421274   1.346856
     7  C    5.281686   4.510634   5.087746   3.072743   2.529753
     8  H    6.174768   5.359954   5.821606   3.983476   3.259805
     9  C    6.018031   5.334130   5.975150   3.892179   3.497275
    10  C    7.089513   6.553058   7.305771   5.098795   4.847195
    11  C    6.736498   6.425443   7.347811   5.043975   5.123712
    12  C    6.014161   5.687006   6.573303   4.374719   4.460480
    13  C    4.681996   4.216194   5.056103   2.872052   2.957693
    14  H    4.432670   3.954943   4.702008   2.817992   2.887848
    15  N    3.848983   3.668027   4.735031   2.461049   3.134825
    16  C    2.660838   2.476936   3.601155   1.454186   2.534794
    17  H    3.750567   2.519954   2.218429   2.099440   1.087409
    18  H    5.499636   4.398639   4.462833   3.270868   2.024518
    19  H    5.464344   4.902149   5.645037   3.538669   3.449374
    20  H    6.638245   5.821864   6.281813   4.442972   3.784488
    21  H    7.736232   7.246363   8.015640   5.822903   5.624738
    22  H    7.804260   7.174176   7.825147   5.710381   5.257022
    23  H    6.318398   6.160286   7.182912   4.864958   5.192838
    24  H    7.727763   7.468831   8.404696   6.106294   6.180921
    25  H    6.020537   5.899945   6.878367   4.742566   5.072065
    26  H    6.744558   6.301199   7.057446   4.991142   4.831616
    27  H    2.385725   2.642875   3.843386   2.157289   3.399493
                    6          7          8          9         10
     6  N    0.000000
     7  C    1.467108   0.000000
     8  H    2.041978   1.102589   0.000000
     9  C    2.514077   1.525476   2.133334   0.000000
    10  C    3.824927   2.492567   2.649412   1.533026   0.000000
    11  C    4.338490   2.911901   3.151869   2.534310   1.533102
    12  C    3.788427   2.466924   2.590168   2.946742   2.534446
    13  C    2.496888   1.531580   2.131936   2.511946   2.957487
    14  H    2.665936   2.161962   2.491119   3.463401   3.959814
    15  N    3.150928   2.509322   3.413596   2.944881   3.490279
    16  C    3.078669   3.044336   4.050938   3.559911   4.471824
    17  H    2.060963   3.450296   4.009197   4.406939   5.803260
    18  H    1.015219   2.087098   2.326954   2.803044   4.131395
    19  H    2.843129   2.153941   3.045012   1.095653   2.171517
    20  H    2.700348   2.160329   2.502698   1.098571   2.176529
    21  H    4.654227   3.446517   3.672840   2.162449   1.095900
    22  H    4.069273   2.767531   2.463460   2.157356   1.099182
    23  H    4.634026   3.354927   3.882015   2.828205   2.159220
    24  H    5.344856   3.888277   3.922031   3.483634   2.170840
    25  H    4.617801   3.425998   3.601711   3.940667   3.483105
    26  H    3.982521   2.696220   2.344959   3.343951   2.825140
    27  H    4.081202   4.070682   5.103377   4.362322   5.204055
                   11         12         13         14         15
    11  C    0.000000
    12  C    1.528834   0.000000
    13  C    2.518254   1.534061   0.000000
    14  H    3.471125   2.166634   1.101359   0.000000
    15  N    2.893169   2.403547   1.458840   2.105292   0.000000
    16  C    4.117049   3.615939   2.359671   2.648190   1.287965
    17  H    6.171549   5.469419   3.981596   3.761388   4.195991
    18  H    4.926233   4.522723   3.391668   3.580591   4.100834
    19  H    2.827831   3.347412   2.739367   3.733529   2.586775
    20  H    3.488441   3.939894   3.465751   4.296832   3.949421
    21  H    2.170621   3.481647   3.929760   4.978543   4.197108
    22  H    2.163023   2.837651   3.410317   4.241715   4.272142
    23  H    1.095573   2.143914   2.774377   3.772430   2.555445
    24  H    1.096705   2.161628   3.469894   4.303215   3.884325
    25  H    2.166280   1.095766   2.156720   2.486316   2.623179
    26  H    2.168983   1.098271   2.160767   2.471524   3.359677
    27  H    4.762828   4.429085   3.349629   3.648439   2.035066
                   16         17         18         19         20
    16  C    0.000000
    17  H    3.475677   0.000000
    18  H    4.022060   2.317369   0.000000
    19  H    3.015379   4.396857   3.266603   0.000000
    20  H    4.374369   4.504660   2.576286   1.771381   0.000000
    21  H    5.114135   6.564023   4.870735   2.481604   2.520346
    22  H    5.256985   6.125900   4.213703   3.068312   2.466172
    23  H    3.718088   6.273485   5.307452   2.682365   3.834514
    24  H    5.142131   7.217056   5.879291   3.837390   4.319789
    25  H    3.822894   6.076478   5.441256   4.164033   4.977487
    26  H    4.473531   5.740297   4.570776   4.012874   4.156306
    27  H    1.091641   4.214237   4.973488   3.619141   5.158880
                   21         22         23         24         25
    21  H    0.000000
    22  H    1.765598   0.000000
    23  H    2.463449   3.062526   0.000000
    24  H    2.529731   2.465056   1.766098   0.000000
    25  H    4.311159   3.834424   2.452887   2.505522   0.000000
    26  H    3.835349   2.687323   3.059208   2.485516   1.769469
    27  H    5.697611   6.091399   4.144406   5.734239   4.478292
                   26         27
    26  H    0.000000
    27  H    5.377341   0.000000
 Symmetry turned off by external request.
 Stoichiometry    C9H13N3O2
 Framework group  C1[X(C9H13N3O2)]
 Deg. of freedom    75
 Full point group                 C1      NOp   1
 Rotational constants (GHZ):           1.6909457           0.4226851           0.3726055
 Standard basis: 6-31G(d) (6D, 7F)
   236 basis functions,   444 primitive gaussians,   236 cartesian basis functions
    52 alpha electrons       52 beta electrons
       nuclear repulsion energy       932.4633187157 Hartrees.
 NAtoms=   27 NActive=   27 NUniq=   27 SFac= 1.00D+00 NAtFMM=   60 NAOKFM=F Big=F
 Integral buffers will be    131072 words long.
 Raffenetti 1 integral format.
 Two-electron integral symmetry is turned off.
 One-electron integrals computed using PRISM.
 NBasis=   236 RedAO= T EigKep=  1.01D-03  NBF=   236
 NBsUse=   236 1.00D-06 EigRej= -1.00D+00 NBFU=   236
 Initial guess from the checkpoint file:  "/home/alexey/tmp/Gau-1423675.chk"
 B after Tr=     0.055941    0.003528    0.005219
         Rot=    0.999999   -0.000333   -0.001206    0.000518 Ang=  -0.16 deg.
 ExpMin= 1.61D-01 ExpMax= 5.48D+03 ExpMxC= 8.25D+02 IAcc=3 IRadAn=         5 AccDes= 0.00D+00
 Harris functional with IExCor=  205 and IRadAn=       5 diagonalized for initial guess.
 HarFok:  IExCor=  205 AccDes= 0.00D+00 IRadAn=         5 IDoV= 1 UseB2=F ITyADJ=14
 ICtDFT=  3500011 ScaDFX=  1.000000  1.000000  1.000000  1.000000
 FoFCou: FMM=F IPFlag=           0 FMFlag=      100000 FMFlg1=           0
         NFxFlg=           0 DoJE=T BraDBF=F KetDBF=T FulRan=T
         wScrn=  0.000000 ICntrl=       500 IOpCl=  0 I1Cent=   200000004 NGrid=           0
         NMat0=    1 NMatS0=      1 NMatT0=    0 NMatD0=    1 NMtDS0=    0 NMtDT0=    0
 Symmetry not used in FoFCou.
 Keep R1 ints in memory in canonical form, NReq=397720213.
 Requested convergence on RMS density matrix=1.00D-08 within 128 cycles.
 Requested convergence on MAX density matrix=1.00D-06.
 Requested convergence on             energy=1.00D-06.
 No special actions if energy rises.
 SCF Done:  E(RHF) =  -661.297341207     A.U. after   15 cycles
            NFock= 15  Conv=0.42D-08     -V/T= 2.0024
 ExpMin= 1.61D-01 ExpMax= 5.48D+03 ExpMxC= 8.25D+02 IAcc=3 IRadAn=         5 AccDes= 0.00D+00
 HarFok:  IExCor=  205 AccDes= 0.00D+00 IRadAn=         5 IDoV=-2 UseB2=F ITyADJ=14
 ICtDFT= 12500011 ScaDFX=  1.000000  1.000000  1.000000  1.000000
 Range of M.O.s used for correlation:    15   236
 NBasis=   236 NAE=    52 NBE=    52 NFC=    14 NFV=     0
 NROrb=    222 NOA=    38 NOB=    38 NVA=   184 NVB=   184
 Fully direct method using O(ONN) memory.
 JobTyp=1 Pass  1:  I=  15 to  52 NPSUse=  4 ParTrn=T ParDer=T DoDerP=T.
 Spin components of T(2) and E(2):
     alpha-alpha T2 =       0.9122417077D-01 E2=     -0.2722983177D+00
     alpha-beta  T2 =       0.4914188574D+00 E2=     -0.1488194554D+01
     beta-beta   T2 =       0.9122417077D-01 E2=     -0.2722983177D+00
 ANorm=    0.1293780197D+01
 E2 =    -0.2032791190D+01 EUMP2 =    -0.66333013239673D+03
          IDoAtm=111111111111111111111111111
          Differentiating once with respect to electric field.
                with respect to dipole field.
          Differentiating once with respect to nuclear coordinates.
 Keep R1 ints in memory in canonical form, NReq=397723379.
          There are     1 degrees of freedom in the 1st order CPHF.  IDoFFX=0 NUNeed=     1.
 LinEq1:  Iter=  0 NonCon=     1 RMS=4.56D-03 Max=1.05D-01 NDo=     1
 AX will form     1 AO Fock derivatives at one time.
 LinEq1:  Iter=  1 NonCon=     1 RMS=1.53D-03 Max=2.51D-02 NDo=     1
 LinEq1:  Iter=  2 NonCon=     1 RMS=6.40D-04 Max=1.78D-02 NDo=     1
 LinEq1:  Iter=  3 NonCon=     1 RMS=2.80D-04 Max=8.15D-03 NDo=     1
 LinEq1:  Iter=  4 NonCon=     1 RMS=8.68D-05 Max=1.89D-03 NDo=     1
 LinEq1:  Iter=  5 NonCon=     1 RMS=3.63D-05 Max=1.81D-03 NDo=     1
[...]
    27  H    4.730609   4.424045   3.354316   3.656404   2.030548
                   16         17         18         19         20
    16  C    0.000000
    17  H    3.464299   0.000000
    18  H    4.071303   2.239499   0.000000
    19  H    2.989890   4.382731   3.517707   0.000000
    20  H    4.365946   4.520496   2.885378   1.768152   0.000000
    21  H    5.097613   6.565751   5.088474   2.498913   2.521534
    22  H    5.242995   6.116507   4.311507   3.070207   2.461160
    23  H    3.703867   6.260367   5.422902   2.705327   3.843155
    24  H    5.137460   7.202795   5.935223   3.850437   4.317071
    25  H    3.822345   6.046041   5.367888   4.173010   4.985392
    26  H    4.489505   5.733675   4.483183   4.038903   4.184271
    27  H    1.090163   4.218531   5.053325   3.568671   5.126797
                   21         22         23         24         25
    21  H    0.000000
    22  H    1.758777   0.000000
    23  H    2.468922   3.061993   0.000000
    24  H    2.517187   2.459617   1.764543   0.000000
    25  H    4.312127   3.840214   2.444085   2.519866   0.000000
    26  H    3.847631   2.705879   3.060454   2.490512   1.767640
    27  H    5.649619   6.053554   4.103119   5.705455   4.468016
                   26         27
    26  H    0.000000
    27  H    5.380983   0.000000
 Symmetry turned off by external request.
 Stoichiometry    C9H13N3O2
 Framework group  C1[X(C9H13N3O2)]
 Deg. of freedom    75
 Full point group                 C1      NOp   1
 Rotational constants (GHZ):           1.6883464           0.4212176           0.3723780

 **********************************************************************

            Population analysis using the SCF Density.

 **********************************************************************

 Alpha  occ. eigenvalues --  -20.59241 -20.58905 -15.84698 -15.63933 -15.56350
 Alpha  occ. eigenvalues --  -11.34946 -11.29647 -11.29613 -11.28560 -11.27179
 Alpha  occ. eigenvalues --  -11.23678 -11.23197 -11.22734 -11.22109  -1.57094
 Alpha  occ. eigenvalues --   -1.36709  -1.30824  -1.23208  -1.14687  -1.09828
 Alpha  occ. eigenvalues --   -1.02795  -1.01299  -0.94474  -0.89677  -0.85545
 Alpha  occ. eigenvalues --   -0.82437  -0.78476  -0.77452  -0.75139  -0.71914
 Alpha  occ. eigenvalues --   -0.69859  -0.69396  -0.67789  -0.65027  -0.63725
 Alpha  occ. eigenvalues --   -0.62338  -0.60390  -0.57619  -0.57036  -0.55034
 Alpha  occ. eigenvalues --   -0.54565  -0.50806  -0.49966  -0.48620  -0.48099
 Alpha  occ. eigenvalues --   -0.47398  -0.46153  -0.46046  -0.43645  -0.41620
 Alpha  occ. eigenvalues --   -0.40080  -0.33949
 Alpha virt. eigenvalues --    0.07434   0.11966   0.17380   0.21697   0.23875
 Alpha virt. eigenvalues --    0.25453   0.27083   0.28763   0.29019   0.29620
 Alpha virt. eigenvalues --    0.30612   0.31734   0.31995   0.32703   0.33991
 Alpha virt. eigenvalues --    0.34346   0.35902   0.37257   0.38515   0.40268
 Alpha virt. eigenvalues --    0.41376   0.42619   0.45221   0.46188   0.46665
 Alpha virt. eigenvalues --    0.46926   0.48895   0.53782   0.57548   0.59486
 Alpha virt. eigenvalues --    0.63728   0.69517   0.70119   0.72811   0.74248
 Alpha virt. eigenvalues --    0.74939   0.75767   0.76843   0.78594   0.79583
 Alpha virt. eigenvalues --    0.81416   0.84670   0.85739   0.86121   0.88640
 Alpha virt. eigenvalues --    0.89516   0.90596   0.92116   0.92833   0.94532
 Alpha virt. eigenvalues --    0.95381   0.97992   0.99461   1.01839   1.02529
 Alpha virt. eigenvalues --    1.02884   1.05946   1.06604   1.07696   1.09130
 Alpha virt. eigenvalues --    1.10266   1.10843   1.11786   1.12522   1.13971
 Alpha virt. eigenvalues --    1.14750   1.14952   1.15614   1.16702   1.18678
 Alpha virt. eigenvalues --    1.19415   1.21100   1.21930   1.23575   1.24086
 Alpha virt. eigenvalues --    1.24730   1.26327   1.26762   1.27528   1.29473
 Alpha virt. eigenvalues --    1.30255   1.33093   1.35691   1.37155   1.41411
 Alpha virt. eigenvalues --    1.43452   1.47783   1.48249   1.49660   1.53600
 Alpha virt. eigenvalues --    1.55422   1.58045   1.60217   1.63450   1.65312
 Alpha virt. eigenvalues --    1.67676   1.69022   1.73284   1.74955   1.76883
 Alpha virt. eigenvalues --    1.82132   1.84597   1.86799   1.90765   1.93190
 Alpha virt. eigenvalues --    1.95418   1.97219   1.99402   2.00914   2.02699
 Alpha virt. eigenvalues --    2.04837   2.06320   2.08109   2.09581   2.12504
 Alpha virt. eigenvalues --    2.13616   2.15425   2.18558   2.19988   2.21787
 Alpha virt. eigenvalues --    2.23089   2.24551   2.25403   2.28266   2.29646
 Alpha virt. eigenvalues --    2.32774   2.34080   2.35418   2.36394   2.38246
 Alpha virt. eigenvalues --    2.40129   2.41432   2.42908   2.45773   2.48171
 Alpha virt. eigenvalues --    2.50914   2.51966   2.53199   2.55773   2.61754
 Alpha virt. eigenvalues --    2.62553   2.65021   2.67819   2.70208   2.70709
 Alpha virt. eigenvalues --    2.72799   2.73159   2.78004   2.78941   2.83424
 Alpha virt. eigenvalues --    2.88165   2.88523   2.92803   2.93547   2.96350
 Alpha virt. eigenvalues --    2.99764   3.01065   3.03748   3.05093   3.07699
 Alpha virt. eigenvalues --    3.09163   3.14585   3.21568   3.24713   3.27380
 Alpha virt. eigenvalues --    3.32320   3.37223   3.38637   3.52356   3.65113
 Alpha virt. eigenvalues --    4.12903   4.28148   4.34666   4.38633   4.45400
 Alpha virt. eigenvalues --    4.56318   4.61965   4.62195   4.73404   4.79146
 Alpha virt. eigenvalues --    4.99132   5.00860   5.04544   5.11279
          Condensed to atoms (all electrons):
               1          2          3          4          5          6
     1  O    8.315486   0.309475  -0.082296  -0.087576   0.004600  -0.000016
     2  N    0.309475   5.720098   0.301353   0.266420  -0.052588   0.000943
     3  O   -0.082296   0.301353   8.353117  -0.093208   0.005100   0.000739
     4  C   -0.087576   0.266420  -0.093208   5.221209   0.565502  -0.047983
     5  C    0.004600  -0.052588   0.005100   0.565502   4.702185   0.316730
     6  N   -0.000016   0.000943   0.000739  -0.047983   0.316730   7.195103
     7  C    0.000004  -0.000136   0.000003   0.003244  -0.030569   0.170314
     8  H   -0.000000   0.000003  -0.000000  -0.000187   0.002889  -0.051294
     9  C   -0.000000  -0.000004   0.000000   0.000750   0.000904  -0.060759
    10  C    0.000000   0.000000  -0.000000  -0.000032  -0.000057   0.003708
    11  C   -0.000000  -0.000000  -0.000000  -0.000036   0.000026  -0.000193
    12  C   -0.000000   0.000003  -0.000000  -0.000066  -0.000148   0.003847
    13  C   -0.000032  -0.000066  -0.000005  -0.012409  -0.000546  -0.046348
    14  H   -0.000006  -0.000101  -0.000000   0.003229   0.006590  -0.007145
    15  N    0.000137   0.002518  -0.000017  -0.063341  -0.006346   0.001545
    16  C    0.002333  -0.030347   0.002400   0.329223  -0.048379  -0.002359
    17  H    0.000198  -0.006713   0.016427  -0.024060   0.375265  -0.034517
    18  H    0.000001  -0.000051   0.000011   0.001600  -0.031378   0.338702
    19  H    0.000000  -0.000001   0.000000  -0.000993   0.000987  -0.000140
    20  H    0.000000  -0.000000   0.000000  -0.000068   0.000159  -0.000576
    21  H   -0.000000   0.000000   0.000000   0.000000   0.000001  -0.000075
    22  H   -0.000000   0.000000  -0.000000   0.000000  -0.000004  -0.000117
    23  H    0.000000  -0.000000   0.000000   0.000041  -0.000000  -0.000030
    24  H   -0.000000   0.000000   0.000000   0.000000  -0.000000   0.000006
    25  H    0.000000  -0.000000   0.000000   0.000026  -0.000000  -0.000090
    26  H   -0.000000  -0.000000   0.000000   0.000008  -0.000002  -0.000060
    27  H    0.005083  -0.001131  -0.000010  -0.062401   0.002433   0.000023
               7          8          9         10         11         12
     1  O    0.000004  -0.000000  -0.000000   0.000000  -0.000000  -0.000000
     2  N   -0.000136   0.000003  -0.000004   0.000000  -0.000000   0.000003
     3  O    0.000003  -0.000000   0.000000  -0.000000  -0.000000  -0.000000
     4  C    0.003244  -0.000187   0.000750  -0.000032  -0.000036  -0.000066
     5  C   -0.030569   0.002889   0.000904  -0.000057   0.000026  -0.000148
     6  N    0.170314  -0.051294  -0.060759   0.003708  -0.000193   0.003847
     7  C    5.011353   0.418940   0.349277  -0.054709  -0.008891  -0.060680
     8  H    0.418940   0.540210  -0.055826   0.000912  -0.000370  -0.002169
     9  C    0.349277  -0.055826   5.158928   0.324080  -0.050220  -0.005398
    10  C   -0.054709   0.000912   0.324080   5.120498   0.336798  -0.060773
    11  C   -0.008891  -0.000370  -0.050220   0.336798   5.119656   0.335927
    12  C   -0.060680  -0.002169  -0.005398  -0.060773   0.335927   5.118022
    13  C    0.343017  -0.038794  -0.059381  -0.000419  -0.050840   0.371078
    14  H   -0.046056  -0.000707   0.004409  -0.000405   0.004168  -0.036222
    15  N   -0.057327   0.003962  -0.014813   0.001598  -0.012835  -0.081333
    16  C   -0.001892   0.000039  -0.001552  -0.000005   0.000033   0.002827
    17  H    0.001669  -0.000041  -0.000073   0.000001   0.000000   0.000000
    18  H   -0.021365  -0.004377   0.001278  -0.000084   0.000004  -0.000115
    19  H   -0.036771   0.004414   0.389755  -0.032032  -0.002254   0.000704
    20  H   -0.042103  -0.002088   0.399589  -0.035460   0.003934  -0.000407
    21  H    0.004586  -0.000078  -0.036276   0.402444  -0.034905   0.004335
    22  H   -0.004807   0.003563  -0.046890   0.397715  -0.045480  -0.001024
    23  H    0.000552   0.000036  -0.001946  -0.039053   0.399185  -0.037869
    24  H   -0.000129  -0.000101   0.004374  -0.038411   0.402313  -0.038724
    25  H    0.005108  -0.000022  -0.000427   0.004184  -0.033483   0.398445
    26  H   -0.003970   0.001737   0.000950  -0.002208  -0.041427   0.396855
    27  H   -0.000408   0.000010  -0.000067   0.000007   0.000011  -0.000035
              13         14         15         16         17         18
     1  O   -0.000032  -0.000006   0.000137   0.002333   0.000198   0.000001
     2  N   -0.000066  -0.000101   0.002518  -0.030347  -0.006713  -0.000051
     3  O   -0.000005  -0.000000  -0.000017   0.002400   0.016427   0.000011
     4  C   -0.012409   0.003229  -0.063341   0.329223  -0.024060   0.001600
     5  C   -0.000546   0.006590  -0.006346  -0.048379   0.375265  -0.031378
     6  N   -0.046348  -0.007145   0.001545  -0.002359  -0.034517   0.338702
     7  C    0.343017  -0.046056  -0.057327  -0.001892   0.001669  -0.021365
     8  H   -0.038794  -0.000707   0.003962   0.000039  -0.000041  -0.004377
     9  C   -0.059381   0.004409  -0.014813  -0.001552  -0.000073   0.001278
    10  C   -0.000419  -0.000405   0.001598  -0.000005   0.000001  -0.000084
    11  C   -0.050840   0.004168  -0.012835   0.000033   0.000000   0.000004
    12  C    0.371078  -0.036222  -0.081333   0.002827   0.000000  -0.000115
    13  C    5.042362   0.401716   0.243532  -0.071904   0.000010   0.002953
    14  H    0.401716   0.526500  -0.037246  -0.004791   0.000122  -0.000099
    15  N    0.243532  -0.037246   6.954200   0.586143  -0.000091  -0.000125
    16  C   -0.071904  -0.004791   0.586143   4.706360   0.002050  -0.000193
    17  H    0.000010   0.000122  -0.000091   0.002050   0.379595  -0.002845
    18  H    0.002953  -0.000099  -0.000125  -0.000193  -0.002845   0.312019
    19  H   -0.007584   0.000108   0.007813   0.003045   0.000015  -0.000143
    20  H    0.004298  -0.000065   0.000122  -0.000037   0.000004   0.000779
    21  H   -0.000424   0.000010  -0.000038   0.000003  -0.000000   0.000001
    22  H    0.000056  -0.000056   0.000017  -0.000002   0.000000   0.000001
    23  H   -0.007391   0.000002   0.008446   0.000079   0.000000   0.000000
    24  H    0.004690  -0.000055   0.000140   0.000007   0.000000  -0.000000
    25  H   -0.035645  -0.002786   0.000225  -0.000021  -0.000000   0.000002
    26  H   -0.047250  -0.001055   0.004855  -0.000075   0.000000  -0.000000
    27  H    0.005200  -0.000191  -0.040831   0.402980  -0.000073   0.000001
              19         20         21         22         23         24
     1  O    0.000000   0.000000  -0.000000  -0.000000   0.000000  -0.000000
     2  N   -0.000001  -0.000000   0.000000   0.000000  -0.000000   0.000000
     3  O    0.000000   0.000000   0.000000  -0.000000   0.000000   0.000000
     4  C   -0.000993  -0.000068   0.000000   0.000000   0.000041   0.000000
     5  C    0.000987   0.000159   0.000001  -0.000004  -0.000000  -0.000000
     6  N   -0.000140  -0.000576  -0.000075  -0.000117  -0.000030   0.000006
     7  C   -0.036771  -0.042103   0.004586  -0.004807   0.000552  -0.000129
     8  H    0.004414  -0.002088  -0.000078   0.003563   0.000036  -0.000101
     9  C    0.389755   0.399589  -0.036276  -0.046890  -0.001946   0.004374
    10  C   -0.032032  -0.035460   0.402444   0.397715  -0.039053  -0.038411
    11  C   -0.002254   0.003934  -0.034905  -0.045480   0.399185   0.402313
    12  C    0.000704  -0.000407   0.004335  -0.001024  -0.037869  -0.038724
    13  C   -0.007584   0.004298  -0.000424   0.000056  -0.007391   0.004690
    14  H    0.000108  -0.000065   0.000010  -0.000056   0.000002  -0.000055
    15  N    0.007813   0.000122  -0.000038   0.000017   0.008446   0.000140
    16  C    0.003045  -0.000037   0.000003  -0.000002   0.000079   0.000007
    17  H    0.000015   0.000004  -0.000000   0.000000   0.000000   0.000000
    18  H   -0.000143   0.000779   0.000001   0.000001   0.000000  -0.000000
    19  H    0.505361  -0.024665  -0.002793   0.003957   0.001517  -0.000065
    20  H   -0.024665   0.540873  -0.002673  -0.002999  -0.000046  -0.000083
    21  H   -0.002793  -0.002673   0.524075  -0.027411  -0.002913  -0.002236
    22  H    0.003957  -0.002999  -0.027411   0.571380   0.004146  -0.003664
    23  H    0.001517  -0.000046  -0.002913   0.004146   0.499509  -0.025461
    24  H   -0.000065  -0.000083  -0.002236  -0.003664  -0.025461   0.538124
    25  H   -0.000028   0.000012  -0.000087  -0.000080  -0.002336  -0.002274
    26  H    0.000020  -0.000030  -0.000082   0.002379   0.004064  -0.003049
    27  H    0.000085   0.000000  -0.000000   0.000000  -0.000034  -0.000000
              25         26         27
     1  O    0.000000  -0.000000   0.005083
     2  N   -0.000000  -0.000000  -0.001131
     3  O    0.000000   0.000000  -0.000010
     4  C    0.000026   0.000008  -0.062401
     5  C   -0.000000  -0.000002   0.002433
     6  N   -0.000090  -0.000060   0.000023
     7  C    0.005108  -0.003970  -0.000408
     8  H   -0.000022   0.001737   0.000010
     9  C   -0.000427   0.000950  -0.000067
    10  C    0.004184  -0.002208   0.000007
    11  C   -0.033483  -0.041427   0.000011
    12  C    0.398445   0.396855  -0.000035
    13  C   -0.035645  -0.047250   0.005200
    14  H   -0.002786  -0.001055  -0.000191
    15  N    0.000225   0.004855  -0.040831
    16  C   -0.000021  -0.000075   0.402980
    17  H   -0.000000   0.000000  -0.000073
    18  H    0.000002  -0.000000   0.000001
    19  H   -0.000028   0.000020   0.000085
    20  H    0.000012  -0.000030   0.000000
    21  H   -0.000087  -0.000082  -0.000000
    22  H   -0.000080   0.002379   0.000000
    23  H   -0.002336   0.004064  -0.000034
    24  H   -0.002274  -0.003049  -0.000000
    25  H    0.506177  -0.024076  -0.000011
    26  H   -0.024076   0.561498   0.000001
    27  H   -0.000011   0.000001   0.447551
 Mulliken charges:
               1
     1  O   -0.467390
     2  N    0.490326
     3  O   -0.503612
     4  C    0.001110
     5  C    0.186645
     6  N   -0.779958
     7  C    0.061746
     8  H    0.179339
     9  C   -0.300664
    10  C   -0.328297
    11  C   -0.321120
    12  C   -0.307078
    13  C   -0.039873
    14  H    0.190133
    15  N   -0.500910
    16  C    0.124036
    17  H    0.293058
    18  H    0.403424
    19  H    0.189689
    20  H    0.161528
    21  H    0.174533
    22  H    0.149321
    23  H    0.199502
    24  H    0.164599
    25  H    0.187188
    26  H    0.150918
    27  H    0.241810
 Sum of Mulliken charges =  -0.00000
 Mulliken charges with hydrogens summed into heavy atoms:
               1
     1  O   -0.467390
     2  N    0.490326
     3  O   -0.503612
     4  C    0.001110
     5  C    0.479703
     6  N   -0.376534
     7  C    0.241085
     9  C    0.050553
    10  C   -0.004443
    11  C    0.042980
    12  C    0.031027
    13  C    0.150260
    15  N   -0.500910
    16  C    0.365846
 Electronic spatial extent (au):  <R**2>=           2998.4598
 Charge=             -0.0000 electrons
 Dipole moment (field-independent basis, Debye):
    X=              5.3852    Y=              4.8670    Z=              0.9398  Tot=              7.3192
 Quadrupole moment (field-independent basis, Debye-Ang):
   XX=           -105.8867   YY=            -79.4675   ZZ=            -81.3490
   XY=             -2.4073   XZ=              1.6389   YZ=              2.0548
 Traceless Quadrupole moment (field-independent basis, Debye-Ang):
   XX=            -16.9856   YY=              9.4336   ZZ=              7.5521
   XY=             -2.4073   XZ=              1.6389   YZ=              2.0548
 Octapole moment (field-independent basis, Debye-Ang**2):
  XXX=             90.8192  YYY=             38.0887  ZZZ=             -3.1890  XYY=             -3.9136
  XXY=             11.8118  XXZ=             -3.2105  XZZ=            -10.4683  YZZ=             -0.8149
  YYZ=              6.8372  XYZ=             -0.9545
 Hexadecapole moment (field-independent basis, Debye-Ang**3):
 XXXX=          -3370.2566 YYYY=           -605.6483 ZZZZ=           -297.9175 XXXY=            -37.6673
 XXXZ=             43.5038 YYYX=            -22.5720 YYYZ=             27.5062 ZZZX=             28.2107
 ZZZY=             11.0937 XXYY=           -628.2188 XXZZ=           -520.3425 YYZZ=           -156.8619
 XXYZ=             -0.3907 YYXZ=             13.0098 ZZXY=              3.3797
 N-N= 9.318036231976D+02 E-N=-3.410325792089D+03  KE= 6.596296508874D+02
 Unable to Open any file for archive entry.
 1\1\GINC-LOTUS\FOpt\RMP2-FC\6-31G(d)\C9H13N3O2\ALEXEY\02-Jul-2023\0\\#
 MP2/6-31G* SCF=Tight Opt=(ModRedun, MaxCycle=20 ) NoSymm\\MolName:\\0,
 1\O,-3.4650775307,-1.4588685308,-0.1722495787\N,-3.112552893,-0.275183
 6413,-0.0002815992\O,-3.9066537498,0.6579277053,0.2269739388\C,-1.6895
 536154,-0.0044068515,-0.057224077\C,-1.3083182794,1.2748217617,0.24553
 83657\N,-0.059927975,1.7679011925,0.3093414669\C,1.1996832969,1.029984
 2296,0.3208561633\H,1.8278146163,1.55192254,1.0590583043\C,1.949603371
 3,1.0411047056,-1.0093485491\C,3.3374796858,0.4244611341,-0.799516259\
 C,3.2589162792,-0.9736162838,-0.180306591\C,2.4193523297,-0.9843501553
 ,1.0991712651\C,1.0228789787,-0.4183968336,0.820085384\H,0.4162297551,
 -0.394481865,1.7396897026\N,0.3988330645,-1.2990936681,-0.1634020021\C
 ,-0.8359978048,-1.0957603405,-0.4896668715\H,-2.1013029013,1.991957316
 1,0.441124993\H,0.0032954961,2.7492929936,0.5527639653\H,1.3771971937,
 0.4713010451,-1.7488457933\H,2.0355386773,2.0702559607,-1.3796707078\H
 ,3.8746601074,0.386336983,-1.7540835061\H,3.919466653,1.0842674876,-0.
 1403351784\H,2.8014001752,-1.6645274523,-0.8952211393\H,4.268993325,-1
 .3443748839,0.0306758746\H,2.3134868736,-2.007464644,1.4749866633\H,2.
 9075520677,-0.3944914819,1.8872447583\H,-1.289977197,-1.8254984229,-1.
 1603689927\\Version=ES64L-G16RevC.02\HF=-661.2995222\MP2=-663.3338709\
 RMSD=8.008e-09\RMSF=9.093e-04\Dipole=1.9600219,1.7061326,0.3608336\PG=
 C01 [X(C9H13N3O2)]\\@
 The archive entry for this job was punched.


 There are more things in heaven and earth, Horatio,
 than are dreamt of in your philosophy.
                   -- Hamlet, Act I, Scene 5
 Job cpu time:       0 days  1 hours 33 minutes 54.5 seconds.
 Elapsed time:       0 days  0 hours 28 minutes  7.7 seconds.
 File lengths (MBytes):  RWF=     36 Int=      0 D2E=      0 Chk=      7 Scr=      1
 Normal termination of Gaussian 16 at Sun Jul  2 02:01:22 2023.
