 Entering Gaussian System, Link 0=g16
 Initial command:
 /home/alexey/programs//g16/l1.exe "/home/alexey/tmp/Gau-1427200.inp" -scrdir="/home/alexey/tmp/"
 Entering Link 1 = /home/alexey/programs//g16/l1.exe PID=   1427202.
  
 Copyright (c) 1988-2021, Gaussian, Inc.  All Rights Reserved.
  
 This is part of the Gaussian(R) 16 program.  It is based on
 the Gaussian(R) 09 system (copyright 2009, Gaussian, Inc.),
 the Gaussian(R) 03 system (copyright 2003, Gaussian, Inc.),
 the Gaussian(R) 98 system (copyright 1998, Gaussian, Inc.),
 the Gaussian(R) 94 system (copyright 1995, Gaussian, Inc.),
 the Gaussian 92(TM) system (copyright 1992, Gaussian, Inc.),
 the Gaussian 90(TM) system (copyright 1990, Gaussian, Inc.),
 the Gaussian 88(TM) system (copyright 1988, Gaussian, Inc.),
 the Gaussian 86(TM) system (copyright 1986, Carnegie Mellon
 University), and the Gaussian 82(TM) system (copyright 1983,
 Carnegie Mellon University). Gaussian is a federally registered
 trademark of Gaussian, Inc.
  
 This software contains proprietary and confidential information,
 including trade secrets, belonging to Gaussian, Inc.
  
 This software is provided under written license and may be
 used, copied, transmitted, or stored only in accord with that
 written license.
  
 The following legend is applicable only to US Government
 contracts under FAR:
  
                    RESTRICTED RIGHTS LEGEND
  
 Use, reproduction and disclosure by the US Government is
 subject to restrictions as set forth in subparagraphs (a)
 and (c) of the Commercial Computer Software - Restricted
 Rights clause in FAR 52.227-19.
  
 Gaussian, Inc.
 340 Quinnipiac St., Bldg. 40, Wallingford CT 06492
  
  
 ---------------------------------------------------------------
 Warning -- This program may not be used in any manner that
 competes with the business of Gaussian, Inc. or will provide
 assistance to any competitor of Gaussian, Inc.  The licensee
 of this program is prohibited from giving any competitor of
 Gaussian, Inc. access to this program.  By using this program,
 the user acknowledges that Gaussian, Inc. is engaged in the
 business of creating and licensing software in the field of
 computational chemistry and represents and warrants to the
 licensee that it is not a competitor of Gaussian, Inc. and that
 it will not use this program in any manner prohibited above.
 ---------------------------------------------------------------
  

 Cite this work as:
 Gaussian 16, Revision C.02,
 M. J. Frisch, G. W. Trucks, H. B. Schlegel, G. E. Scuseria, 
 M. A. Robb, J. R. Cheeseman, G. Scalmani, V. Barone, 
 G. A. Petersson, H. Nakatsuji, X. Li, M. Caricato, A. V. Marenich, 
 J. Bloino, B. G. Janesko, R. Gomperts, B. Mennucci, H. P. Hratchian, 
 J. V. Ortiz, A. F. Izmaylov, J. L. Sonnenberg, D. Williams-Young, 
 F. Ding, F. Lipparini, F. Egidi, J. Goings, B. Peng, A. Petrone, 
 T. Henderson, D. Ranasinghe, V. G. Zakrzewski, J. Gao, N. Rega, 
 G. Zheng, W. Liang, M. Hada, M. Ehara, K. Toyota, R. Fukuda, 
 J. Hasegawa, M. Ishida, T. Nakajima, Y. Honda, O. Kitao, H. Nakai, 
 T. Vreven, K. Throssell, J. A. Montgomery, Jr., J. E. Peralta, 
 F. Ogliaro, M. J. Bearpark, J. J. Heyd, E. N. Brothers, K. N. Kudin, 
 V. N. Staroverov, T. A. Keith, R. Kobayashi, J. Normand, 
 K. Raghavachari, A. P. Rendell, J. C. Burant, S. S. Iyengar, 
 J. Tomasi, M. Cossi, J. M. Millam, M. Klene, C. Adamo, R. Cammi, 
 J. W. Ochterski, R. L. Martin, K. Morokuma, O. Farkas, 
 J. B. Foresman, and D. J. Fox, Gaussian, Inc., Wallingford CT, 2019.
 
 ******************************************
 Gaussian 16:  ES64L-G16RevC.02  7-Dec-2021
                 2-Jul-2023 
 ******************************************
 %mem=8GB
 %NPROCS=4
 Will use up to    4 processors via shared memory.
 %NoSave
 ---------------------------------------------------------
 #MP2/6-31G* SCF=Tight Opt=(ModRedun, MaxCycle=20 ) NoSymm
 ---------------------------------------------------------
 1/6=20,18=120,19=15,38=1/1,3;
 2/9=110,12=2,15=1,17=6,18=5,40=1/2;
 3/5=1,6=6,7=1,11=9,25=1,30=1,71=1/1,2,3;
 4//1;
 5/5=2,32=2,38=5/2;
 8/6=4,10=2/1;
 9/15=2,16=-3/6;
 10/5=1,31=1/2;
 6/7=2,8=2,9=2,10=2/1;
 7/12=2,30=1/1,2,3,16;
 1/6=20,18=20,19=15/3(2);
 2/9=110,15=1/2;
 99//99;
 2/9=110,15=1/2;
 3/5=1,6=6,7=1,11=9,25=1,30=1,71=1/1,2,3;
 4/5=5,16=3,69=1/1;
 5/5=2,32=2,38=5/2;
 8/6=4,10=2/1;
 9/15=2,16=-3/6;
 10/5=1,31=1/2;
 7/12=2,30=1/1,2,3,16;
 1/6=20,18=20,19=15/3(-8);
 2/9=110,15=1/2;
 6/7=2,8=2,9=2,10=2/1;
 99/9=10/99;
 --------
 MolName:
 --------
 Symbolic Z-matrix:
 Charge =  0 Multiplicity = 1
 8                    0    -3.53569  -1.52828   0.03988 
 7                    0    -3.22222  -0.34413   0.14799 
 8                    0    -4.02452   0.55986   0.38356 
 6                    0    -1.75997   0.02251  -0.0718 
 6                    0    -1.37721   1.32629   0.26432 
 7                    0    -0.08705   1.79405   0.2734 
 6                    0     1.18648   1.00675   0.30414 
 1                    0     1.81618   1.49664   1.09151 
 6                    0     2.01827   1.0556   -1.00126 
 6                    0     3.41245   0.45247  -0.74558 
 6                    0     3.30539  -0.96569  -0.16319 
 6                    0     2.39382  -0.99714   1.08277 
 6                    0     0.97575  -0.4424    0.77517 
 1                    0     0.38884  -0.48115   1.72294 
 7                    0     0.35609  -1.29476  -0.24369 
 6                    0    -0.86792  -1.05017  -0.58338 
 1                    0    -2.15401   2.03453   0.5974 
 1                    0     0.14056   2.76284   0.03683 
 1                    0     1.50202   0.48882  -1.80515 
 1                    0     2.13404   2.10622  -1.34262 
 1                    0     3.99473   0.42754  -1.69263 
 1                    0     3.96159   1.09607  -0.02244 
 1                    0     2.88732  -1.64554  -0.93965 
 1                    0     4.31711  -1.34292   0.10189 
 1                    0     2.30553  -2.04508   1.44448 
 1                    0     2.8572   -0.39728   1.89404 
 1                    0    -1.36279  -1.73363  -1.28993 
 
 The following ModRedundant input section has been read:
 D       2       4      16      15 F                                           
 D       1       2       4      16 F                                           
 D       7      13      15      16 F                                           
 D       7       9      10      11 F                                           
 D       9      10      11      12 F                                           
 D       6       7      13      15 F                                           
 

 GradGradGradGradGradGradGradGradGradGradGradGradGradGradGradGradGradGrad
 Berny optimization.
 Initialization pass.
                           ----------------------------
                           !    Initial Parameters    !
                           ! (Angstroms and Degrees)  !
 --------------------------                            --------------------------
 ! Name  Definition              Value          Derivative Info.                !
 --------------------------------------------------------------------------------
 ! R1    R(1,2)                  1.2297         estimate D2E/DX2                !
 ! R2    R(2,3)                  1.2314         estimate D2E/DX2                !
 ! R3    R(2,4)                  1.5235         estimate D2E/DX2                !
 ! R4    R(4,5)                  1.3998         estimate D2E/DX2                !
 ! R5    R(4,16)                 1.486          estimate D2E/DX2                !
 ! R6    R(5,6)                  1.3724         estimate D2E/DX2                !
 ! R7    R(5,17)                 1.1027         estimate D2E/DX2                !
 ! R8    R(6,7)                  1.4976         estimate D2E/DX2                !
 ! R9    R(6,18)                 1.0229         estimate D2E/DX2                !
 ! R10   R(7,8)                  1.1209         estimate D2E/DX2                !
 ! R11   R(7,9)                  1.5487         estimate D2E/DX2                !
 ! R12   R(7,13)                 1.5383         estimate D2E/DX2                !
 ! R13   R(9,10)                 1.5404         estimate D2E/DX2                !
 ! R14   R(9,19)                 1.1109         estimate D2E/DX2                !
 ! R15   R(9,20)                 1.1107         estimate D2E/DX2                !
 ! R16   R(10,11)                1.5368         estimate D2E/DX2                !
 ! R17   R(10,21)                1.112          estimate D2E/DX2                !
 ! R18   R(10,22)                1.113          estimate D2E/DX2                !
 ! R19   R(11,12)                1.5441         estimate D2E/DX2                !
 ! R20   R(11,23)                1.1135         estimate D2E/DX2                !
 ! R21   R(11,24)                1.1118         estimate D2E/DX2                !
 ! R22   R(12,13)                1.5535         estimate D2E/DX2                !
 ! R23   R(12,25)                1.1121         estimate D2E/DX2                !
 ! R24   R(12,26)                1.1103         estimate D2E/DX2                !
 ! R25   R(13,14)                1.1155         estimate D2E/DX2                !
 ! R26   R(13,15)                1.4658         estimate D2E/DX2                !
 ! R27   R(15,16)                1.2936         estimate D2E/DX2                !
 ! R28   R(16,27)                1.1006         estimate D2E/DX2                !
 ! A1    A(1,2,3)              123.8934         estimate D2E/DX2                !
 ! A2    A(1,2,4)              117.6287         estimate D2E/DX2                !
 ! A3    A(3,2,4)              118.4427         estimate D2E/DX2                !
 ! A4    A(2,4,5)              116.8708         estimate D2E/DX2                !
 ! A5    A(2,4,16)             116.8809         estimate D2E/DX2                !
 ! A6    A(5,4,16)             126.2201         estimate D2E/DX2                !
 ! A7    A(4,5,6)              125.1786         estimate D2E/DX2                !
 ! A8    A(4,5,17)             118.5638         estimate D2E/DX2                !
 ! A9    A(6,5,17)             116.1893         estimate D2E/DX2                !
 ! A10   A(5,6,7)              128.3463         estimate D2E/DX2                !
 ! A11   A(5,6,18)             122.037          estimate D2E/DX2                !
 ! A12   A(7,6,18)             108.2663         estimate D2E/DX2                !
 ! A13   A(6,7,8)              105.2118         estimate D2E/DX2                !
 ! A14   A(6,7,9)              115.0161         estimate D2E/DX2                !
 ! A15   A(6,7,13)             112.6469         estimate D2E/DX2                !
 ! A16   A(8,7,9)              106.0563         estimate D2E/DX2                !
 ! A17   A(8,7,13)             105.8779         estimate D2E/DX2                !
 ! A18   A(9,7,13)             111.1863         estimate D2E/DX2                !
 ! A19   A(7,9,10)             109.503          estimate D2E/DX2                !
 ! A20   A(7,9,19)             110.1387         estimate D2E/DX2                !
 ! A21   A(7,9,20)             110.174          estimate D2E/DX2                !
 ! A22   A(10,9,19)            109.9354         estimate D2E/DX2                !
 ! A23   A(10,9,20)            109.0882         estimate D2E/DX2                !
 ! A24   A(19,9,20)            107.9774         estimate D2E/DX2                !
 ! A25   A(9,10,11)            111.1712         estimate D2E/DX2                !
 ! A26   A(9,10,21)            109.9584         estimate D2E/DX2                !
 ! A27   A(9,10,22)            109.1468         estimate D2E/DX2                !
 ! A28   A(11,10,21)           109.7874         estimate D2E/DX2                !
 ! A29   A(11,10,22)           108.77           estimate D2E/DX2                !
 ! A30   A(21,10,22)           107.9362         estimate D2E/DX2                !
 ! A31   A(10,11,12)           111.4506         estimate D2E/DX2                !
 ! A32   A(10,11,23)           108.9847         estimate D2E/DX2                !
 ! A33   A(10,11,24)           109.8801         estimate D2E/DX2                !
 ! A34   A(12,11,23)           109.1826         estimate D2E/DX2                !
 ! A35   A(12,11,24)           109.749          estimate D2E/DX2                !
 ! A36   A(23,11,24)           107.5028         estimate D2E/DX2                !
 ! A37   A(11,12,13)           111.8293         estimate D2E/DX2                !
 ! A38   A(11,12,25)           109.1776         estimate D2E/DX2                !
 ! A39   A(11,12,26)           109.4027         estimate D2E/DX2                !
 ! A40   A(13,12,25)           109.173          estimate D2E/DX2                !
 ! A41   A(13,12,26)           109.4345         estimate D2E/DX2                !
 ! A42   A(25,12,26)           107.733          estimate D2E/DX2                !
 ! A43   A(7,13,12)            105.7825         estimate D2E/DX2                !
 ! A44   A(7,13,14)            111.4064         estimate D2E/DX2                !
 ! A45   A(7,13,15)            113.1336         estimate D2E/DX2                !
 ! A46   A(12,13,14)           107.4369         estimate D2E/DX2                !
 ! A47   A(12,13,15)           108.4139         estimate D2E/DX2                !
 ! A48   A(14,13,15)           110.3628         estimate D2E/DX2                !
 ! A49   A(13,15,16)           118.2018         estimate D2E/DX2                !
 ! A50   A(4,16,15)            127.8868         estimate D2E/DX2                !
 ! A51   A(4,16,27)            113.5393         estimate D2E/DX2                !
 ! A52   A(15,16,27)           118.4653         estimate D2E/DX2                !
 ! D1    D(1,2,4,5)           -169.9339         estimate D2E/DX2                !
 ! D2    D(1,2,4,16)             8.2591         Frozen                          !
 ! D3    D(3,2,4,5)             12.1381         estimate D2E/DX2                !
 ! D4    D(3,2,4,16)          -169.6688         estimate D2E/DX2                !
 ! D5    D(2,4,5,6)            172.582          estimate D2E/DX2                !
 ! D6    D(2,4,5,17)            -4.2879         estimate D2E/DX2                !
 ! D7    D(16,4,5,6)            -5.4201         estimate D2E/DX2                !
 ! D8    D(16,4,5,17)          177.7099         estimate D2E/DX2                !
 ! D9    D(2,4,16,15)         -141.0091         Frozen                          !
 ! D10   D(2,4,16,27)           35.1029         estimate D2E/DX2                !
 ! D11   D(5,4,16,15)           36.9929         estimate D2E/DX2                !
 ! D12   D(5,4,16,27)         -146.8951         estimate D2E/DX2                !
 ! D13   D(4,5,6,7)            -18.0055         estimate D2E/DX2                !
 ! D14   D(4,5,6,18)           147.1149         estimate D2E/DX2                !
 ! D15   D(17,5,6,7)           158.931          estimate D2E/DX2                !
 ! D16   D(17,5,6,18)          -35.9486         estimate D2E/DX2                !
 ! D17   D(5,6,7,8)           -133.2911         estimate D2E/DX2                !
 ! D18   D(5,6,7,9)            110.4016         estimate D2E/DX2                !
 ! D19   D(5,6,7,13)           -18.415          estimate D2E/DX2                !
 ! D20   D(18,6,7,8)            59.9608         estimate D2E/DX2                !
 ! D21   D(18,6,7,9)           -56.3465         estimate D2E/DX2                !
 ! D22   D(18,6,7,13)          174.8369         estimate D2E/DX2                !
 ! D23   D(6,7,9,10)           168.7374         estimate D2E/DX2                !
 ! D24   D(6,7,9,19)           -70.255          estimate D2E/DX2                !
 ! D25   D(6,7,9,20)            48.755          estimate D2E/DX2                !
 ! D26   D(8,7,9,10)            52.9132         estimate D2E/DX2                !
 ! D27   D(8,7,9,19)           173.9208         estimate D2E/DX2                !
 ! D28   D(8,7,9,20)           -67.0692         estimate D2E/DX2                !
 ! D29   D(13,7,9,10)          -61.7249         estimate D2E/DX2                !
 ! D30   D(13,7,9,19)           59.2827         estimate D2E/DX2                !
 ! D31   D(13,7,9,20)          178.2927         estimate D2E/DX2                !
 ! D32   D(6,7,13,12)         -166.4421         estimate D2E/DX2                !
 ! D33   D(6,7,13,14)          -50.0015         estimate D2E/DX2                !
 ! D34   D(6,7,13,15)           75.0219         Frozen                          !
 ! D35   D(8,7,13,12)          -51.9693         estimate D2E/DX2                !
 ! D36   D(8,7,13,14)           64.4712         estimate D2E/DX2                !
 ! D37   D(8,7,13,15)         -170.5053         estimate D2E/DX2                !
 ! D38   D(9,7,13,12)           62.7798         estimate D2E/DX2                !
 ! D39   D(9,7,13,14)          179.2204         estimate D2E/DX2                !
 ! D40   D(9,7,13,15)          -55.7562         estimate D2E/DX2                !
 ! D41   D(7,9,10,11)           54.8122         Frozen                          !
 ! D42   D(7,9,10,21)          176.6068         estimate D2E/DX2                !
 ! D43   D(7,9,10,22)          -65.1702         estimate D2E/DX2                !
 ! D44   D(19,9,10,11)         -66.3184         estimate D2E/DX2                !
 ! D45   D(19,9,10,21)          55.4761         estimate D2E/DX2                !
 ! D46   D(19,9,10,22)         173.6992         estimate D2E/DX2                !
 ! D47   D(20,9,10,11)         175.4571         estimate D2E/DX2                !
 ! D48   D(20,9,10,21)         -62.7484         estimate D2E/DX2                !
 ! D49   D(20,9,10,22)          55.4747         estimate D2E/DX2                !
 ! D50   D(9,10,11,12)         -52.8224         Frozen                          !
 ! D51   D(9,10,11,23)          67.7426         estimate D2E/DX2                !
 ! D52   D(9,10,11,24)        -174.7018         estimate D2E/DX2                !
 ! D53   D(21,10,11,12)       -174.7164         estimate D2E/DX2                !
 ! D54   D(21,10,11,23)        -54.1515         estimate D2E/DX2                !
 ! D55   D(21,10,11,24)         63.4041         estimate D2E/DX2                !
 ! D56   D(22,10,11,12)         67.3834         estimate D2E/DX2                !
 ! D57   D(22,10,11,23)       -172.0516         estimate D2E/DX2                !
 ! D58   D(22,10,11,24)        -54.496          estimate D2E/DX2                !
 ! D59   D(10,11,12,13)         56.4935         estimate D2E/DX2                !
 ! D60   D(10,11,12,25)        177.4169         estimate D2E/DX2                !
 ! D61   D(10,11,12,26)        -64.9122         estimate D2E/DX2                !
 ! D62   D(23,11,12,13)        -63.9552         estimate D2E/DX2                !
 ! D63   D(23,11,12,25)         56.9682         estimate D2E/DX2                !
 ! D64   D(23,11,12,26)        174.6391         estimate D2E/DX2                !
 ! D65   D(24,11,12,13)        178.4488         estimate D2E/DX2                !
 ! D66   D(24,11,12,25)        -60.6278         estimate D2E/DX2                !
 ! D67   D(24,11,12,26)         57.0431         estimate D2E/DX2                !
 ! D68   D(11,12,13,7)         -59.8799         estimate D2E/DX2                !
 ! D69   D(11,12,13,14)       -178.979          estimate D2E/DX2                !
 ! D70   D(11,12,13,15)         61.7478         estimate D2E/DX2                !
 ! D71   D(25,12,13,7)         179.194          estimate D2E/DX2                !
 ! D72   D(25,12,13,14)         60.0949         estimate D2E/DX2                !
 ! D73   D(25,12,13,15)        -59.1782         estimate D2E/DX2                !
 ! D74   D(26,12,13,7)          61.5074         estimate D2E/DX2                !
 ! D75   D(26,12,13,14)        -57.5917         estimate D2E/DX2                !
 ! D76   D(26,12,13,15)       -176.8648         estimate D2E/DX2                !
 ! D77   D(7,13,15,16)         -67.1601         Frozen                          !
 ! D78   D(12,13,15,16)        175.8415         estimate D2E/DX2                !
 ! D79   D(14,13,15,16)         58.4256         estimate D2E/DX2                !
 ! D80   D(13,15,16,4)           0.5874         estimate D2E/DX2                !
 ! D81   D(13,15,16,27)       -175.3576         estimate D2E/DX2                !
 --------------------------------------------------------------------------------
 Trust Radius=3.00D-01 FncErr=1.00D-07 GrdErr=1.00D-07 EigMax=2.50D+02 EigMin=1.00D-04
 Number of steps in this run=     20 maximum allowed number of steps=    162.
 GradGradGradGradGradGradGradGradGradGradGradGradGradGradGradGradGradGrad

                          Input orientation:                          
 ---------------------------------------------------------------------
 Center     Atomic      Atomic             Coordinates (Angstroms)
 Number     Number       Type             X           Y           Z
 ---------------------------------------------------------------------
      1          8           0       -3.535690   -1.528280    0.039880
      2          7           0       -3.222220   -0.344130    0.147990
      3          8           0       -4.024520    0.559860    0.383560
      4          6           0       -1.759970    0.022510   -0.071800
      5          6           0       -1.377210    1.326290    0.264320
      6          7           0       -0.087050    1.794050    0.273400
      7          6           0        1.186480    1.006750    0.304140
      8          1           0        1.816180    1.496640    1.091510
      9          6           0        2.018270    1.055600   -1.001260
     10          6           0        3.412450    0.452470   -0.745580
     11          6           0        3.305390   -0.965690   -0.163190
     12          6           0        2.393820   -0.997140    1.082770
     13          6           0        0.975750   -0.442400    0.775170
     14          1           0        0.388840   -0.481150    1.722940
     15          7           0        0.356090   -1.294760   -0.243690
     16          6           0       -0.867920   -1.050170   -0.583380
     17          1           0       -2.154010    2.034530    0.597400
     18          1           0        0.140560    2.762840    0.036830
     19          1           0        1.502020    0.488820   -1.805150
     20          1           0        2.134040    2.106220   -1.342620
     21          1           0        3.994730    0.427540   -1.692630
     22          1           0        3.961590    1.096070   -0.022440
     23          1           0        2.887320   -1.645540   -0.939650
     24          1           0        4.317110   -1.342920    0.101890
     25          1           0        2.305530   -2.045080    1.444480
     26          1           0        2.857200   -0.397280    1.894040
     27          1           0       -1.362790   -1.733630   -1.289930
 ---------------------------------------------------------------------
                    Distance matrix (angstroms):
                    1          2          3          4          5
     1  O    0.000000
     2  N    1.229700   0.000000
     3  O    2.171957   1.231412   0.000000
     4  C    2.360213   1.523453   2.371557   0.000000
     5  C    3.585802   2.491565   2.758602   1.399759   0.000000
     6  N    4.794322   3.796950   4.127836   2.460930   1.372368
     7  C    5.366107   4.613664   5.230730   3.129158   2.583834
     8  H    6.236873   5.446479   5.957560   4.039208   3.303181
     9  C    6.213443   5.544615   6.219228   4.025701   3.633765
    10  C    7.267528   6.741801   7.522966   5.233811   4.972354
    11  C    6.867177   6.564515   7.506918   5.161663   5.230935
    12  C    6.043908   5.730632   6.641403   4.430202   4.504315
    13  C    4.698178   4.245699   5.114742   2.901321   2.987583
    14  H    4.396716   3.941953   4.728148   2.844670   2.917764
    15  N    3.909079   3.723092   4.798208   2.498491   3.183128
    16  C    2.781014   2.564395   3.673050   1.485971   2.574011
    17  H    3.861798   2.645953   2.391482   2.156692   1.102708
    18  H    5.650534   4.579728   4.724535   3.336649   2.102154
    19  H    5.731610   5.179479   5.944589   3.723241   3.643354
    20  H    6.875081   6.075825   6.580181   4.595666   3.939470
    21  H    7.970825   7.487838   8.284711   5.992304   5.787499
    22  H    7.943570   7.328734   8.014381   5.821616   5.351450
    23  H    6.498330   6.340592   7.374836   5.013268   5.335497
    24  H    7.855232   7.605340   8.560532   6.231009   6.290973
    25  H    6.029912   5.927068   6.926817   4.806488   5.130447
    26  H    6.751749   6.325414   7.110256   5.035773   4.853546
    27  H    2.555789   2.730532   3.891718   2.173849   3.432056
                    6          7          8          9         10
     6  N    0.000000
     7  C    1.497553   0.000000
     8  H    2.092855   1.120922   0.000000
     9  C    2.569521   1.548654   2.148265   0.000000
    10  C    3.883897   2.522713   2.648258   1.540414   0.000000
    11  C    4.394932   2.932353   3.139281   2.538632   1.536821
    12  C    3.821065   2.465666   2.559821   2.949230   2.545946
    13  C    2.526465   1.538282   2.136883   2.546872   3.008485
    14  H    2.739374   2.205237   2.519456   3.526742   4.013409
    15  N    3.162989   2.507312   3.421482   2.976734   3.556127
    16  C    3.071387   3.039600   4.061513   3.597080   4.539362
    17  H    2.105975   3.507308   4.036815   4.574051   5.940706
    18  H    1.022901   2.061372   2.350173   2.741914   4.081083
    19  H    2.923891   2.194749   3.083024   1.110852   2.184892
    20  H    2.764455   2.195113   2.529350   1.110735   2.173862
    21  H    4.732183   3.494115   3.693303   2.186057   1.112014
    22  H    4.119003   2.795687   2.450332   2.176286   1.112972
    23  H    4.706288   3.387405   3.891818   2.838169   2.171421
    24  H    5.409863   3.919528   3.911151   3.500643   2.181752
    25  H    4.672771   3.444752   3.592747   3.959593   3.501341
    26  H    4.012108   2.700072   2.305365   3.346256   2.828068
    27  H    4.063993   4.068110   5.119741   4.392573   5.279987
                   11         12         13         14         15
    11  C    0.000000
    12  C    1.544139   0.000000
    13  C    2.565458   1.553472   0.000000
    14  H    3.506926   2.167027   1.115452   0.000000
    15  N    2.968693   2.449575   1.465801   2.128536   0.000000
    16  C    4.195261   3.663034   2.369422   2.687441   1.293605
    17  H    6.275736   5.487200   3.995270   3.749876   4.253493
    18  H    4.894700   4.506509   3.393560   3.664435   4.072992
    19  H    2.839679   3.368006   2.793239   3.824582   2.632959
    20  H    3.492814   3.947258   3.510290   4.374685   3.991919
    21  H    2.180703   3.506490   3.995131   5.049186   4.278486
    22  H    2.168240   2.839176   3.452291   4.277677   4.331818
    23  H    1.113494   2.180401   2.835887   3.832439   2.648496
    24  H    1.111822   2.186489   3.525469   4.336099   3.976358
    25  H    2.179313   1.112118   2.187435   2.489401   2.685743
    26  H    2.180862   1.110276   2.189466   2.475704   3.410412
    27  H    4.863248   4.503803   3.376490   3.703282   2.059557
                   16         17         18         19         20
    16  C    0.000000
    17  H    3.544523   0.000000
    18  H    3.992585   2.471786   0.000000
    19  H    3.078608   4.639830   3.227635   0.000000
    20  H    4.421652   4.707036   2.511572   1.797044   0.000000
    21  H    5.201868   6.755269   4.826933   2.496001   2.530344
    22  H    5.314618   6.218157   4.169161   3.097788   2.470469
    23  H    3.818798   6.428098   5.285075   2.687683   3.847794
    24  H    5.238304   7.316290   5.857053   3.862228   4.330008
    25  H    3.895234   6.103135   5.457533   4.198377   5.003062
    26  H    4.521105   5.719021   4.562425   4.038031   4.155291
    27  H    1.100557   4.288015   4.923271   3.662222   5.193751
                   21         22         23         24         25
    21  H    0.000000
    22  H    1.799324   0.000000
    23  H    2.467994   3.084113   0.000000
    24  H    2.541409   2.467899   1.794626   0.000000
    25  H    4.336900   3.842032   2.486401   2.518339   0.000000
    26  H    3.852078   2.668833   3.096588   2.497473   1.794906
    27  H    5.791014   6.161392   4.265430   5.860980   4.585910
                   26         27
    26  H    0.000000
    27  H    5.452689   0.000000
 Symmetry turned off by external request.
 Stoichiometry    C9H13N3O2
 Framework group  C1[X(C9H13N3O2)]
 Deg. of freedom    75
 Full point group                 C1      NOp   1
 Rotational constants (GHZ):           1.6786366           0.4043562           0.3577314
 Standard basis: 6-31G(d) (6D, 7F)
   236 basis functions,   444 primitive gaussians,   236 cartesian basis functions
    52 alpha electrons       52 beta electrons
       nuclear repulsion energy       918.9277877849 Hartrees.
 NAtoms=   27 NActive=   27 NUniq=   27 SFac= 1.00D+00 NAtFMM=   60 NAOKFM=F Big=F
 Integral buffers will be    131072 words long.
 Raffenetti 1 integral format.
 Two-electron integral symmetry is turned off.
 One-electron integrals computed using PRISM.
 NBasis=   236 RedAO= T EigKep=  1.34D-03  NBF=   236
 NBsUse=   236 1.00D-06 EigRej= -1.00D+00 NBFU=   236
 ExpMin= 1.61D-01 ExpMax= 5.48D+03 ExpMxC= 8.25D+02 IAcc=3 IRadAn=         5 AccDes= 0.00D+00
 Harris functional with IExCor=  205 and IRadAn=       5 diagonalized for initial guess.
 HarFok:  IExCor=  205 AccDes= 0.00D+00 IRadAn=         5 IDoV= 1 UseB2=F ITyADJ=14
 ICtDFT=  3500011 ScaDFX=  1.000000  1.000000  1.000000  1.000000
 FoFCou: FMM=F IPFlag=           0 FMFlag=      100000 FMFlg1=           0
         NFxFlg=           0 DoJE=T BraDBF=F KetDBF=T FulRan=T
         wScrn=  0.000000 ICntrl=       500 IOpCl=  0 I1Cent=   200000004 NGrid=           0
         NMat0=    1 NMatS0=      1 NMatT0=    0 NMatD0=    1 NMtDS0=    0 NMtDT0=    0
 Symmetry not used in FoFCou.
 Keep R1 ints in memory in canonical form, NReq=397720213.
 Requested convergence on RMS density matrix=1.00D-08 within 128 cycles.
 Requested convergence on MAX density matrix=1.00D-06.
 Requested convergence on             energy=1.00D-06.
 No special actions if energy rises.
 SCF Done:  E(RHF) =  -661.276579872     A.U. after   16 cycles
            NFock= 16  Conv=0.92D-08     -V/T= 2.0037
 ExpMin= 1.61D-01 ExpMax= 5.48D+03 ExpMxC= 8.25D+02 IAcc=3 IRadAn=         5 AccDes= 0.00D+00
 HarFok:  IExCor=  205 AccDes= 0.00D+00 IRadAn=         5 IDoV=-2 UseB2=F ITyADJ=14
 ICtDFT= 12500011 ScaDFX=  1.000000  1.000000  1.000000  1.000000
 Range of M.O.s used for correlation:    15   236
 NBasis=   236 NAE=    52 NBE=    52 NFC=    14 NFV=     0
 NROrb=    222 NOA=    38 NOB=    38 NVA=   184 NVB=   184
 Fully direct method using O(ONN) memory.
 JobTyp=1 Pass  1:  I=  15 to  52 NPSUse=  4 ParTrn=T ParDer=T DoDerP=T.
 Spin components of T(2) and E(2):
     alpha-alpha T2 =       0.9192497429D-01 E2=     -0.2717210429D+00
     alpha-beta  T2 =       0.5003821304D+00 E2=     -0.1494486663D+01
     beta-beta   T2 =       0.9192497429D-01 E2=     -0.2717210429D+00
 ANorm=    0.1297779673D+01
 E2 =    -0.2037928748D+01 EUMP2 =    -0.66331450862029D+03
          IDoAtm=111111111111111111111111111
          Differentiating once with respect to electric field.
                with respect to dipole field.
          Differentiating once with respect to nuclear coordinates.
 Keep R1 ints in memory in canonical form, NReq=397723379.
          There are     1 degrees of freedom in the 1st order CPHF.  IDoFFX=0 NUNeed=     1.
 LinEq1:  Iter=  0 NonCon=     1 RMS=4.58D-03 Max=1.11D-01 NDo=     1
 AX will form     1 AO Fock derivatives at one time.
 LinEq1:  Iter=  1 NonCon=     1 RMS=1.55D-03 Max=3.29D-02 NDo=     1
 LinEq1:  Iter=  2 NonCon=     1 RMS=6.34D-04 Max=1.80D-02 NDo=     1
 LinEq1:  Iter=  3 NonCon=     1 RMS=2.94D-04 Max=9.09D-03 NDo=     1
 LinEq1:  Iter=  4 NonCon=     1 RMS=9.01D-05 Max=1.95D-03 NDo=     1
 LinEq1:  Iter=  5 NonCon=     1 RMS=3.79D-05 Max=1.96D-03 NDo=     1
 LinEq1:  Iter=  6 NonCon=     1 RMS=1.55D-05 Max=5.82D-04 NDo=     1
 LinEq1:  Iter=  7 NonCon=     1 RMS=6.02D-06 Max=1.08D-04 NDo=     1
 LinEq1:  Iter=  8 NonCon=     1 RMS=2.41D-06 Max=6.54D-05 NDo=     1
 LinEq1:  Iter=  9 NonCon=     1 RMS=9.05D-07 Max=2.58D-05 NDo=     1
 LinEq1:  Iter= 10 NonCon=     1 RMS=4.52D-07 Max=1.61D-05 NDo=     1
 LinEq1:  Iter= 11 NonCon=     1 RMS=1.59D-07 Max=5.78D-06 NDo=     1
 LinEq1:  Iter= 12 NonCon=     1 RMS=5.55D-08 Max=8.34D-07 NDo=     1
 LinEq1:  Iter= 13 NonCon=     1 RMS=1.77D-08 Max=3.03D-07 NDo=     1
 LinEq1:  Iter= 14 NonCon=     1 RMS=5.83D-09 Max=1.51D-07 NDo=     1
 LinEq1:  Iter= 15 NonCon=     1 RMS=2.20D-09 Max=4.74D-08 NDo=     1
 LinEq1:  Iter= 16 NonCon=     1 RMS=8.54D-10 Max=1.26D-08 NDo=     1
 LinEq1:  Iter= 17 NonCon=     1 RMS=2.73D-10 Max=3.95D-09 NDo=     1
 LinEq1:  Iter= 18 NonCon=     1 RMS=9.30D-11 Max=1.04D-09 NDo=     1
 LinEq1:  Iter= 19 NonCon=     0 RMS=3.09D-11 Max=6.96D-10 NDo=     1
 Linear equations converged to 1.000D-10 1.000D-09 after    19 iterations.
 End of Minotr F.D. properties file   721 does not exist.
 End of Minotr F.D. properties file   722 does not exist.
 End of Minotr F.D. properties file   788 does not exist.

 **********************************************************************

            Population analysis using the SCF Density.

 **********************************************************************

 Alpha  occ. eigenvalues --  -20.59919 -20.59410 -15.85293 -15.62760 -15.57365
 Alpha  occ. eigenvalues --  -11.35612 -11.30571 -11.30076 -11.30056 -11.27773
 Alpha  occ. eigenvalues --  -11.24587 -11.23855 -11.23436 -11.22862  -1.58534
 Alpha  occ. eigenvalues --   -1.38053  -1.28299  -1.22873  -1.13225  -1.08335
 Alpha  occ. eigenvalues --   -1.01816  -1.00583  -0.93449  -0.89009  -0.84893
 Alpha  occ. eigenvalues --   -0.81554  -0.78079  -0.76852  -0.74108  -0.71020
 Alpha  occ. eigenvalues --   -0.70390  -0.69769  -0.67430  -0.64522  -0.63370
 Alpha  occ. eigenvalues --   -0.61544  -0.60604  -0.57383  -0.56383  -0.54917
 Alpha  occ. eigenvalues --   -0.53311  -0.50756  -0.49114  -0.48434  -0.47709
 Alpha  occ. eigenvalues --   -0.47436  -0.46010  -0.45765  -0.44002  -0.42060
 Alpha  occ. eigenvalues --   -0.40420  -0.33956
 Alpha virt. eigenvalues --    0.07226   0.11720   0.18745   0.21022   0.22858
 Alpha virt. eigenvalues --    0.24076   0.26292   0.27540   0.28587   0.28877
 Alpha virt. eigenvalues --    0.29886   0.31007   0.31887   0.32196   0.33340
 Alpha virt. eigenvalues --    0.33689   0.34462   0.35533   0.37482   0.38597
 Alpha virt. eigenvalues --    0.40711   0.42174   0.44852   0.45426   0.45584
 Alpha virt. eigenvalues --    0.45914   0.49536   0.53036   0.57563   0.58816
 Alpha virt. eigenvalues --    0.63145   0.69115   0.69641   0.72126   0.73971
 Alpha virt. eigenvalues --    0.75091   0.75757   0.75945   0.77584   0.79555
 Alpha virt. eigenvalues --    0.80462   0.83588   0.85206   0.85540   0.88153
 Alpha virt. eigenvalues --    0.88606   0.90223   0.90721   0.91703   0.93708
 Alpha virt. eigenvalues --    0.95379   0.97140   0.98370   1.00220   1.01843
 Alpha virt. eigenvalues --    1.02692   1.05200   1.06185   1.06742   1.08496
 Alpha virt. eigenvalues --    1.09337   1.10417   1.10756   1.11970   1.13220
 Alpha virt. eigenvalues --    1.13698   1.14180   1.14930   1.16313   1.17271
 Alpha virt. eigenvalues --    1.17675   1.19664   1.20613   1.22006   1.22937
 Alpha virt. eigenvalues --    1.23445   1.23836   1.25643   1.27456   1.27695
 Alpha virt. eigenvalues --    1.29208   1.31517   1.32797   1.35473   1.40771
 Alpha virt. eigenvalues --    1.41935   1.45713   1.46403   1.47702   1.52031
 Alpha virt. eigenvalues --    1.52757   1.54850   1.60833   1.61445   1.65419
 Alpha virt. eigenvalues --    1.69361   1.70342   1.72271   1.73865   1.76755
 Alpha virt. eigenvalues --    1.78452   1.79821   1.84251   1.89366   1.92397
 Alpha virt. eigenvalues --    1.92992   1.96070   1.97921   1.98882   2.00106
 Alpha virt. eigenvalues --    2.03293   2.04067   2.05868   2.08892   2.12100
 Alpha virt. eigenvalues --    2.12503   2.15131   2.17695   2.18562   2.19356
 Alpha virt. eigenvalues --    2.21192   2.22077   2.24549   2.25341   2.26818
 Alpha virt. eigenvalues --    2.29221   2.32421   2.34126   2.35679   2.36435
 Alpha virt. eigenvalues --    2.38354   2.39449   2.40685   2.42994   2.46261
 Alpha virt. eigenvalues --    2.48466   2.50316   2.51522   2.56689   2.57216
 Alpha virt. eigenvalues --    2.60986   2.62600   2.66683   2.68238   2.68915
 Alpha virt. eigenvalues --    2.70335   2.70945   2.74992   2.78521   2.81168
 Alpha virt. eigenvalues --    2.83708   2.86591   2.90190   2.91783   2.95587
 Alpha virt. eigenvalues --    2.97551   2.98113   3.01963   3.02964   3.05380
 Alpha virt. eigenvalues --    3.07025   3.11918   3.19823   3.22246   3.27078
 Alpha virt. eigenvalues --    3.28570   3.33173   3.36681   3.43461   3.58330
 Alpha virt. eigenvalues --    4.09120   4.22722   4.31438   4.35741   4.42497
 Alpha virt. eigenvalues --    4.53253   4.59755   4.60353   4.70715   4.77238
 Alpha virt. eigenvalues --    4.95164   4.99185   5.02272   5.10306
          Condensed to atoms (all electrons):
               1          2          3          4          5          6
     1  O    8.296863   0.315625  -0.089026  -0.080224   0.003370  -0.000015
     2  N    0.315625   5.686611   0.306224   0.264767  -0.043576   0.000933
     3  O   -0.089026   0.306224   8.330343  -0.086105   0.007756   0.000433
     4  C   -0.080224   0.264767  -0.086105   5.241306   0.568535  -0.049871
     5  C    0.003370  -0.043576   0.007756   0.568535   4.668969   0.305665
     6  N   -0.000015   0.000933   0.000433  -0.049871   0.305665   7.204293
     7  C    0.000003  -0.000090   0.000002   0.002425  -0.029969   0.198583
     8  H   -0.000000   0.000003  -0.000000  -0.000062   0.001883  -0.052025
     9  C   -0.000000  -0.000003   0.000000   0.000314   0.002008  -0.054234
    10  C   -0.000000   0.000000  -0.000000  -0.000012  -0.000069   0.003278
    11  C   -0.000000  -0.000000  -0.000000  -0.000022   0.000013  -0.000154
    12  C   -0.000000   0.000002  -0.000000   0.000028  -0.000068   0.003513
    13  C   -0.000027  -0.000045  -0.000004  -0.012458   0.000329  -0.042597
    14  H   -0.000005  -0.000032  -0.000001   0.003531   0.005358  -0.005580
    15  N   -0.000106   0.001737  -0.000016  -0.062118  -0.003569   0.001609
    16  C    0.005277  -0.030893   0.001845   0.320509  -0.040127  -0.002068
    17  H    0.000105  -0.003282   0.010742  -0.031117   0.380807  -0.035468
    18  H    0.000000  -0.000036   0.000007   0.000874  -0.023251   0.327022
    19  H    0.000000   0.000001  -0.000000  -0.000513   0.000394   0.000964
    20  H    0.000000  -0.000000   0.000000  -0.000016   0.000040  -0.002155
    21  H    0.000000  -0.000000   0.000000   0.000000   0.000001  -0.000056
    22  H   -0.000000   0.000000  -0.000000   0.000000  -0.000003  -0.000098
    23  H   -0.000000  -0.000000   0.000000   0.000024  -0.000000  -0.000024
    24  H   -0.000000   0.000000   0.000000   0.000000  -0.000000   0.000004
    25  H    0.000000  -0.000000   0.000000   0.000019  -0.000001  -0.000070
    26  H   -0.000000  -0.000000   0.000000   0.000009  -0.000001  -0.000067
    27  H    0.004019  -0.000453  -0.000032  -0.064901   0.002357   0.000085
               7          8          9         10         11         12
     1  O    0.000003  -0.000000  -0.000000  -0.000000  -0.000000  -0.000000
     2  N   -0.000090   0.000003  -0.000003   0.000000  -0.000000   0.000002
     3  O    0.000002  -0.000000   0.000000  -0.000000  -0.000000  -0.000000
     4  C    0.002425  -0.000062   0.000314  -0.000012  -0.000022   0.000028
     5  C   -0.029969   0.001883   0.002008  -0.000069   0.000013  -0.000068
     6  N    0.198583  -0.052025  -0.054234   0.003278  -0.000154   0.003513
     7  C    4.985250   0.418136   0.339734  -0.049168  -0.007557  -0.063335
     8  H    0.418136   0.551032  -0.061730   0.001717  -0.000395  -0.002609
     9  C    0.339734  -0.061730   5.182645   0.317257  -0.052890  -0.006552
    10  C   -0.049168   0.001717   0.317257   5.126956   0.332661  -0.059747
    11  C   -0.007557  -0.000395  -0.052890   0.332661   5.123367   0.330730
    12  C   -0.063335  -0.002609  -0.006552  -0.059747   0.330730   5.136270
    13  C    0.338568  -0.042365  -0.047795  -0.002177  -0.047846   0.366321
    14  H   -0.039134  -0.000923   0.003831  -0.000393   0.003937  -0.040851
    15  N   -0.056353   0.004068  -0.012779   0.001487  -0.007636  -0.073186
    16  C   -0.003635   0.000107  -0.001303   0.000010  -0.000016   0.002998
    17  H    0.001493   0.000001  -0.000065   0.000001   0.000000   0.000001
    18  H   -0.027718  -0.001964   0.000670  -0.000119   0.000011  -0.000125
    19  H   -0.035033   0.004189   0.385079  -0.032435  -0.002360   0.000679
    20  H   -0.041327  -0.001932   0.397457  -0.037512   0.004151  -0.000352
    21  H    0.004020  -0.000083  -0.035821   0.400215  -0.035889   0.004196
    22  H   -0.004088   0.003509  -0.045670   0.396004  -0.045609  -0.001270
    23  H    0.000393   0.000035  -0.002019  -0.040129   0.396762  -0.036833
    24  H   -0.000140  -0.000094   0.004388  -0.038461   0.400299  -0.037806
    25  H    0.004906  -0.000001  -0.000366   0.004096  -0.034121   0.395811
    26  H   -0.004450   0.001719   0.000994  -0.002368  -0.042291   0.394841
    27  H   -0.000405   0.000010  -0.000066   0.000006   0.000003  -0.000019
              13         14         15         16         17         18
     1  O   -0.000027  -0.000005  -0.000106   0.005277   0.000105   0.000000
     2  N   -0.000045  -0.000032   0.001737  -0.030893  -0.003282  -0.000036
     3  O   -0.000004  -0.000001  -0.000016   0.001845   0.010742   0.000007
     4  C   -0.012458   0.003531  -0.062118   0.320509  -0.031117   0.000874
     5  C    0.000329   0.005358  -0.003569  -0.040127   0.380807  -0.023251
     6  N   -0.042597  -0.005580   0.001609  -0.002068  -0.035468   0.327022
     7  C    0.338568  -0.039134  -0.056353  -0.003635   0.001493  -0.027718
     8  H   -0.042365  -0.000923   0.004068   0.000107   0.000001  -0.001964
     9  C   -0.047795   0.003831  -0.012779  -0.001303  -0.000065   0.000670
    10  C   -0.002177  -0.000393   0.001487   0.000010   0.000001  -0.000119
    11  C   -0.047846   0.003937  -0.007636  -0.000016   0.000000   0.000011
    12  C    0.366321  -0.040851  -0.073186   0.002998   0.000001  -0.000125
    13  C    5.033521   0.400122   0.236806  -0.070755  -0.000045   0.003537
    14  H    0.400122   0.518969  -0.035558  -0.004868   0.000102   0.000013
    15  N    0.236806  -0.035558   6.921651   0.584634  -0.000076  -0.000123
    16  C   -0.070755  -0.004868   0.584634   4.707578   0.001681  -0.000243
    17  H   -0.000045   0.000102  -0.000076   0.001681   0.392478  -0.001504
    18  H    0.003537   0.000013  -0.000123  -0.000243  -0.001504   0.323859
    19  H   -0.006485   0.000064   0.006950   0.002700   0.000010  -0.000107
    20  H    0.003822  -0.000047   0.000069  -0.000031   0.000000   0.003094
    21  H   -0.000360   0.000009  -0.000025   0.000002  -0.000000  -0.000000
    22  H    0.000330  -0.000045  -0.000000  -0.000001   0.000000   0.000002
    23  H   -0.005682   0.000007   0.006581   0.000023   0.000000   0.000000
    24  H    0.004112  -0.000057   0.000050   0.000006   0.000000  -0.000000
    25  H   -0.034735  -0.002633   0.000470  -0.000066  -0.000000   0.000002
    26  H   -0.044573  -0.000946   0.004144  -0.000077   0.000000  -0.000001
    27  H    0.004977  -0.000197  -0.039780   0.401858  -0.000053   0.000003
              19         20         21         22         23         24
     1  O    0.000000   0.000000   0.000000  -0.000000  -0.000000  -0.000000
     2  N    0.000001  -0.000000  -0.000000   0.000000  -0.000000   0.000000
     3  O   -0.000000   0.000000   0.000000  -0.000000   0.000000   0.000000
     4  C   -0.000513  -0.000016   0.000000   0.000000   0.000024   0.000000
     5  C    0.000394   0.000040   0.000001  -0.000003  -0.000000  -0.000000
     6  N    0.000964  -0.002155  -0.000056  -0.000098  -0.000024   0.000004
     7  C   -0.035033  -0.041327   0.004020  -0.004088   0.000393  -0.000140
     8  H    0.004189  -0.001932  -0.000083   0.003509   0.000035  -0.000094
     9  C    0.385079   0.397457  -0.035821  -0.045670  -0.002019   0.004388
    10  C   -0.032435  -0.037512   0.400215   0.396004  -0.040129  -0.038461
    11  C   -0.002360   0.004151  -0.035889  -0.045609   0.396762   0.400299
    12  C    0.000679  -0.000352   0.004196  -0.001270  -0.036833  -0.037806
    13  C   -0.006485   0.003822  -0.000360   0.000330  -0.005682   0.004112
    14  H    0.000064  -0.000047   0.000009  -0.000045   0.000007  -0.000057
    15  N    0.006950   0.000069  -0.000025  -0.000000   0.006581   0.000050
    16  C    0.002700  -0.000031   0.000002  -0.000001   0.000023   0.000006
    17  H    0.000010   0.000000  -0.000000   0.000000   0.000000   0.000000
    18  H   -0.000107   0.003094  -0.000000   0.000002   0.000000  -0.000000
    19  H    0.508229  -0.024160  -0.002606   0.003766   0.001653  -0.000068
    20  H   -0.024160   0.550434  -0.002583  -0.002987  -0.000050  -0.000090
    21  H   -0.002606  -0.002583   0.526361  -0.024712  -0.002825  -0.002047
    22  H    0.003766  -0.002987  -0.024712   0.568302   0.004069  -0.003594
    23  H    0.001653  -0.000050  -0.002825   0.004069   0.510669  -0.025011
    24  H   -0.000068  -0.000090  -0.002047  -0.003594  -0.025011   0.540862
    25  H   -0.000027   0.000011  -0.000086  -0.000082  -0.002119  -0.002368
    26  H    0.000025  -0.000036  -0.000075   0.002474   0.003829  -0.002783
    27  H    0.000078  -0.000000  -0.000000   0.000000  -0.000019  -0.000000
              25         26         27
     1  O    0.000000  -0.000000   0.004019
     2  N   -0.000000  -0.000000  -0.000453
     3  O    0.000000   0.000000  -0.000032
     4  C    0.000019   0.000009  -0.064901
     5  C   -0.000001  -0.000001   0.002357
     6  N   -0.000070  -0.000067   0.000085
     7  C    0.004906  -0.004450  -0.000405
     8  H   -0.000001   0.001719   0.000010
     9  C   -0.000366   0.000994  -0.000066
    10  C    0.004096  -0.002368   0.000006
    11  C   -0.034121  -0.042291   0.000003
    12  C    0.395811   0.394841  -0.000019
    13  C   -0.034735  -0.044573   0.004977
    14  H   -0.002633  -0.000946  -0.000197
    15  N    0.000470   0.004144  -0.039780
    16  C   -0.000066  -0.000077   0.401858
    17  H   -0.000000   0.000000  -0.000053
    18  H    0.000002  -0.000001   0.000003
    19  H   -0.000027   0.000025   0.000078
    20  H    0.000011  -0.000036  -0.000000
    21  H   -0.000086  -0.000075  -0.000000
    22  H   -0.000082   0.002474   0.000000
    23  H   -0.002119   0.003829  -0.000019
    24  H   -0.002368  -0.002783  -0.000000
    25  H    0.511100  -0.023052  -0.000008
    26  H   -0.023052   0.559546   0.000001
    27  H   -0.000008   0.000001   0.460281
 Mulliken charges:
               1
     1  O   -0.455861
     2  N    0.502504
     3  O   -0.482170
     4  C   -0.014923
     5  C    0.193150
     6  N   -0.801904
     7  C    0.068887
     8  H    0.177776
     9  C   -0.313083
    10  C   -0.321098
    11  C   -0.315150
    12  C   -0.312638
    13  C   -0.034495
    14  H    0.195328
    15  N   -0.478930
    16  C    0.124856
    17  H    0.284191
    18  H    0.396096
    19  H    0.189015
    20  H    0.154199
    21  H    0.172365
    22  H    0.149705
    23  H    0.190666
    24  H    0.162799
    25  H    0.183321
    26  H    0.153139
    27  H    0.232255
 Sum of Mulliken charges =  -0.00000
 Mulliken charges with hydrogens summed into heavy atoms:
               1
     1  O   -0.455861
     2  N    0.502504
     3  O   -0.482170
     4  C   -0.014923
     5  C    0.477341
     6  N   -0.405808
     7  C    0.246664
     9  C    0.030131
    10  C    0.000971
    11  C    0.038316
    12  C    0.023822
    13  C    0.160833
    15  N   -0.478930
    16  C    0.357111
 Electronic spatial extent (au):  <R**2>=           3103.9393
 Charge=             -0.0000 electrons
 Dipole moment (field-independent basis, Debye):
    X=              5.2391    Y=              4.4875    Z=              0.0493  Tot=              6.8984
 Quadrupole moment (field-independent basis, Debye-Ang):
   XX=           -104.7504   YY=            -80.7706   ZZ=            -82.0703
   XY=             -2.5151   XZ=              2.8448   YZ=             -0.0771
 Traceless Quadrupole moment (field-independent basis, Debye-Ang):
   XX=            -15.5533   YY=              8.4265   ZZ=              7.1268
   XY=             -2.5151   XZ=              2.8448   YZ=             -0.0771
 Octapole moment (field-independent basis, Debye-Ang**2):
  XXX=             95.7005  YYY=             38.4875  ZZZ=             -7.8360  XYY=             -0.8304
  XXY=             13.9665  XXZ=            -10.4376  XZZ=             -8.8422  YZZ=             -2.7488
  YYZ=             -1.9344  XYZ=             -3.2060
 Hexadecapole moment (field-independent basis, Debye-Ang**3):
 XXXX=          -3505.6648 YYYY=           -626.5168 ZZZZ=           -299.6451 XXXY=            -60.9603
 XXXZ=            100.7806 YYYX=            -38.4887 YYYZ=             11.0755 ZZZX=             57.8382
 ZZZY=             15.0871 XXYY=           -652.7743 XXZZ=           -540.5966 YYZZ=           -164.4279
 XXYZ=              7.5375 YYXZ=             24.4964 ZZXY=             -0.4180
 N-N= 9.189277877849D+02 E-N=-3.383877793684D+03  KE= 6.588599347703D+02
 Calling FoFJK, ICntrl=  10002127 FMM=F ISym2X=0 I1Cent= 0 IOpClX= 0 NMat=1 NMatS=1 NMatT=0.
 -------------------------------------------------------------------
 Center     Atomic                   Forces (Hartrees/Bohr)
 Number     Number              X              Y              Z
 -------------------------------------------------------------------
      1        8           0.003289750   -0.019890485   -0.002822811
      2        7           0.036615145    0.017124937   -0.010778449
      3        8          -0.006043147    0.014939435    0.005279962
      4        6          -0.001770945    0.013667329    0.014453563
      5        6           0.001131711   -0.019322769   -0.005911992
      6        7           0.016257695   -0.012144250   -0.005201193
      7        6          -0.005306810    0.005528132    0.003207955
      8        1          -0.008843168   -0.002098151   -0.007835955
      9        6          -0.004298906   -0.000389099   -0.002283346
     10        6           0.002895301   -0.000728129    0.001231381
     11        6          -0.001342387   -0.004702366   -0.002672262
     12        6           0.001147709   -0.008493610   -0.002692936
     13        6           0.010557843   -0.002686670    0.006356074
     14        1           0.000650754    0.004978431   -0.009988280
     15        7          -0.000905555    0.005829713   -0.005137745
     16        6          -0.020594392    0.001362285    0.010463833
     17        1           0.006147326   -0.004808432   -0.008563502
     18        1          -0.016589820   -0.001511477    0.007854085
     19        1           0.002920779    0.005988588    0.007802598
     20        1          -0.003487412   -0.007229215    0.002470406
     21        1          -0.004784368    0.002392857    0.009425677
     22        1          -0.003652804   -0.003947522   -0.007630178
     23        1           0.003764008    0.006097061    0.009448834
     24        1          -0.009251305    0.002737697   -0.002509997
     25        1          -0.000499083    0.010549826   -0.002301294
     26        1          -0.004721871   -0.004804768   -0.004610999
     27        1           0.006713953    0.001560653    0.002946570
 -------------------------------------------------------------------
 Cartesian Forces:  Max     0.036615145 RMS     0.008800063

 GradGradGradGradGradGradGradGradGradGradGradGradGradGradGradGradGradGrad
 Berny optimization.
 FormGI is forming the generalized inverse of G from B-inverse, IUseBI=4.
 Internal  Forces:  Max     0.036631738 RMS     0.006781106
 Search for a local minimum.
 Step number   1 out of a maximum of   20
 All quantities printed in internal units (Hartrees-Bohrs-Radians)
 Mixed Optimization -- RFO/linear search
 Second derivative matrix not updated -- first step.
 ITU=  0
     Eigenvalues ---    0.00235   0.00763   0.01062   0.01172   0.01422
     Eigenvalues ---    0.01525   0.01623   0.01829   0.02007   0.02078
     Eigenvalues ---    0.02672   0.03629   0.04495   0.04684   0.04838
     Eigenvalues ---    0.05081   0.05135   0.05302   0.05892   0.06266
     Eigenvalues ---    0.07200   0.07710   0.07733   0.07895   0.07993
     Eigenvalues ---    0.08055   0.08092   0.10465   0.11742   0.12263
     Eigenvalues ---    0.13523   0.15245   0.15733   0.15981   0.16003
     Eigenvalues ---    0.20063   0.21695   0.22687   0.24977   0.25000
     Eigenvalues ---    0.25000   0.25323   0.26085   0.26654   0.27985
     Eigenvalues ---    0.28093   0.28413   0.30036   0.31017   0.31470
     Eigenvalues ---    0.32030   0.32233   0.32287   0.32377   0.32388
     Eigenvalues ---    0.32408   0.32510   0.32522   0.32571   0.33204
     Eigenvalues ---    0.33384   0.33621   0.35147   0.43878   0.44127
     Eigenvalues ---    0.48531   0.66143   0.90500   0.912111000.00000
     Eigenvalues --- 1000.000001000.000001000.000001000.000001000.00000
     Eigenvalues --- 1000.000001000.000001000.000001000.000001000.00000
     Eigenvalues --- 1000.000001000.000001000.000001000.000001000.00000
     Eigenvalues --- 1000.000001000.000001000.000001000.000001000.00000
     Eigenvalues --- 1000.000001000.000001000.000001000.000001000.00000
     Eigenvalues --- 1000.000001000.000001000.000001000.000001000.00000
     Eigenvalues --- 1000.000001000.000001000.000001000.000001000.00000
     Eigenvalues --- 1000.000001000.000001000.000001000.000001000.00000
     Eigenvalues --- 1000.000001000.000001000.000001000.000001000.00000
     Eigenvalues --- 1000.000001000.000001000.000001000.000001000.00000
     Eigenvalues --- 1000.000001000.000001000.000001000.000001000.00000
     Eigenvalues --- 1000.000001000.000001000.000001000.000001000.00000
     Eigenvalues --- 1000.000001000.000001000.000001000.000001000.00000
     Eigenvalues --- 1000.000001000.000001000.000001000.000001000.00000
     Eigenvalues --- 1000.000001000.000001000.000001000.000001000.00000
     Eigenvalues --- 1000.000001000.000001000.000001000.000001000.00000
     Eigenvalues --- 1000.000001000.000001000.000001000.000001000.00000
     Eigenvalues --- 1000.000001000.000001000.000001000.000001000.00000
     Eigenvalues --- 1000.00000
 RFO step:  Lambda=-2.34018059D-02 EMin= 2.34755542D-03
 Linear search not attempted -- first point.
 Iteration  1 RMS(Cart)=  0.05622006 RMS(Int)=  0.00123995
 Iteration  2 RMS(Cart)=  0.00128542 RMS(Int)=  0.00032516
 Iteration  3 RMS(Cart)=  0.00000173 RMS(Int)=  0.00032516
 Iteration  4 RMS(Cart)=  0.00000000 RMS(Int)=  0.00032516
 Iteration  1 RMS(Cart)=  0.00003859 RMS(Int)=  0.00001788
 Iteration  2 RMS(Cart)=  0.00002271 RMS(Int)=  0.00001986
 Iteration  3 RMS(Cart)=  0.00001382 RMS(Int)=  0.00002239
 Iteration  4 RMS(Cart)=  0.00000863 RMS(Int)=  0.00002423
 Iteration  5 RMS(Cart)=  0.00000551 RMS(Int)=  0.00002545
 Iteration  6 RMS(Cart)=  0.00000360 RMS(Int)=  0.00002626
 Iteration  7 RMS(Cart)=  0.00000242 RMS(Int)=  0.00002679
 Iteration  8 RMS(Cart)=  0.00000169 RMS(Int)=  0.00002715
 Iteration  9 RMS(Cart)=  0.00000122 RMS(Int)=  0.00002741
 Iteration 10 RMS(Cart)=  0.00000092 RMS(Int)=  0.00002759
 Variable       Old X    -DE/DX   Delta X   Delta X   Delta X     New X
                                 (Linear)    (Quad)   (Total)
    R1        2.32380   0.01856   0.00000   0.01984   0.01984   2.34364
    R2        2.32703   0.01591   0.00000   0.01714   0.01714   2.34417
    R3        2.87891  -0.03663   0.00000  -0.11314  -0.11314   2.76577
    R4        2.64516  -0.03644   0.00000  -0.07900  -0.07881   2.56635
    R5        2.80808  -0.01810   0.00000  -0.05283  -0.05267   2.75541
    R6        2.59340  -0.02174   0.00000  -0.04229  -0.04220   2.55120
    R7        2.08382  -0.01001   0.00000  -0.02801  -0.02801   2.05581
    R8        2.82996  -0.01968   0.00000  -0.05395  -0.05395   2.77602
    R9        1.93300  -0.00694   0.00000  -0.01501  -0.01501   1.91799
   R10        2.11824  -0.01139   0.00000  -0.03368  -0.03368   2.08455
   R11        2.92653  -0.01324   0.00000  -0.04524  -0.04529   2.88125
   R12        2.90693  -0.00619   0.00000  -0.01350  -0.01342   2.89351
   R13        2.91096  -0.00468   0.00000  -0.01404  -0.01407   2.89689
   R14        2.09921  -0.01006   0.00000  -0.02886  -0.02886   2.07034
   R15        2.09898  -0.00796   0.00000  -0.02283  -0.02283   2.07615
   R16        2.90417  -0.00199   0.00000  -0.00722  -0.00727   2.89690
   R17        2.10140  -0.01059   0.00000  -0.03048  -0.03048   2.07092
   R18        2.10321  -0.00904   0.00000  -0.02611  -0.02611   2.07710
   R19        2.91800  -0.00905   0.00000  -0.02857  -0.02853   2.88947
   R20        2.10420  -0.01172   0.00000  -0.03391  -0.03391   2.07029
   R21        2.10104  -0.00995   0.00000  -0.02862  -0.02862   2.07242
   R22        2.93564  -0.01042   0.00000  -0.03643  -0.03640   2.89924
   R23        2.10160  -0.01065   0.00000  -0.03068  -0.03068   2.07092
   R24        2.09812  -0.00794   0.00000  -0.02273  -0.02273   2.07539
   R25        2.10790  -0.00900   0.00000  -0.02619  -0.02619   2.08171
   R26        2.76996  -0.00519   0.00000  -0.01147  -0.01180   2.75816
   R27        2.44456  -0.00786   0.00000  -0.01147  -0.01160   2.43296
   R28        2.07975  -0.00588   0.00000  -0.01635  -0.01635   2.06340
    A1        2.16235   0.01056   0.00000   0.03966   0.03805   2.20039
    A2        2.05301  -0.00882   0.00000  -0.03124  -0.03284   2.02017
    A3        2.06722  -0.00165   0.00000  -0.00503  -0.00663   2.06058
    A4        2.03978  -0.00488   0.00000  -0.01547  -0.01559   2.02419
    A5        2.03996  -0.00455   0.00000  -0.01359  -0.01369   2.02627
    A6        2.20296   0.00948   0.00000   0.02879   0.02897   2.23193
    A7        2.18478   0.00502   0.00000   0.01521   0.01536   2.20014
    A8        2.06933  -0.00277   0.00000  -0.00859  -0.00874   2.06059
    A9        2.02789  -0.00217   0.00000  -0.00571  -0.00589   2.02200
   A10        2.24007  -0.00389   0.00000  -0.01208  -0.01218   2.22789
   A11        2.12995  -0.01262   0.00000  -0.07106  -0.07149   2.05846
   A12        1.88960   0.01663   0.00000   0.09002   0.09009   1.97969
   A13        1.83629  -0.00079   0.00000  -0.01424  -0.01407   1.82222
   A14        2.00741  -0.00203   0.00000  -0.01242  -0.01244   1.99497
   A15        1.96606   0.00130   0.00000   0.00328   0.00288   1.96893
   A16        1.85103   0.00265   0.00000   0.02322   0.02311   1.87414
   A17        1.84792   0.00024   0.00000   0.01266   0.01246   1.86038
   A18        1.94057  -0.00103   0.00000  -0.00881  -0.00846   1.93211
   A19        1.91119   0.00006   0.00000  -0.00486  -0.00502   1.90617
   A20        1.92228  -0.00068   0.00000  -0.01158  -0.01153   1.91075
   A21        1.92290  -0.00163   0.00000  -0.00814  -0.00810   1.91480
   A22        1.91873  -0.00028   0.00000   0.00658   0.00658   1.92531
   A23        1.90395   0.00299   0.00000   0.02377   0.02377   1.92772
   A24        1.88456  -0.00043   0.00000  -0.00536  -0.00563   1.87893
   A25        1.94030  -0.00092   0.00000   0.00562   0.00552   1.94582
   A26        1.91914  -0.00071   0.00000  -0.00650  -0.00652   1.91261
   A27        1.90497   0.00038   0.00000  -0.00293  -0.00299   1.90198
   A28        1.91615   0.00090   0.00000   0.00735   0.00740   1.92355
   A29        1.89840   0.00160   0.00000   0.01066   0.01068   1.90907
   A30        1.88384  -0.00124   0.00000  -0.01469  -0.01477   1.86908
   A31        1.94518   0.00031   0.00000   0.00468   0.00478   1.94997
   A32        1.90214   0.00071   0.00000   0.00547   0.00543   1.90757
   A33        1.91777   0.00045   0.00000   0.00554   0.00551   1.92328
   A34        1.90560  -0.00087   0.00000  -0.01292  -0.01296   1.89264
   A35        1.91548  -0.00048   0.00000  -0.00031  -0.00038   1.91510
   A36        1.87628  -0.00014   0.00000  -0.00283  -0.00286   1.87341
   A37        1.95179  -0.00288   0.00000  -0.01839  -0.01839   1.93340
   A38        1.90551   0.00254   0.00000   0.01710   0.01695   1.92246
   A39        1.90944   0.00139   0.00000   0.01374   0.01369   1.92313
   A40        1.90543   0.00015   0.00000  -0.00224  -0.00210   1.90333
   A41        1.90999  -0.00023   0.00000  -0.00539  -0.00532   1.90467
   A42        1.88030  -0.00089   0.00000  -0.00433  -0.00452   1.87578
   A43        1.84625   0.00446   0.00000   0.02504   0.02505   1.87130
   A44        1.94441  -0.00440   0.00000  -0.03407  -0.03463   1.90977
   A45        1.97455   0.00068   0.00000   0.00706   0.00733   1.98189
   A46        1.87513   0.00246   0.00000   0.03444   0.03484   1.90997
   A47        1.89218  -0.00323   0.00000  -0.02582  -0.02587   1.86631
   A48        1.92619   0.00032   0.00000  -0.00361  -0.00363   1.92257
   A49        2.06301  -0.00568   0.00000  -0.01246  -0.01290   2.05011
   A50        2.23205  -0.00321   0.00000  -0.01409  -0.01397   2.21808
   A51        1.98163   0.00655   0.00000   0.03392   0.03375   2.01539
   A52        2.06761  -0.00310   0.00000  -0.01854  -0.01871   2.04890
    D1       -2.96591  -0.00063   0.00000   0.00834   0.00810  -2.95781
    D2        0.14415   0.00143   0.00000   0.00000  -0.00000   0.14415
    D3        0.21185  -0.00352   0.00000  -0.09239  -0.09246   0.11939
    D4       -2.96128  -0.00146   0.00000  -0.10073  -0.10056  -3.06184
    D5        3.01212   0.00104   0.00000  -0.03364  -0.03393   2.97819
    D6       -0.07484  -0.00064   0.00000  -0.05416  -0.05457  -0.12941
    D7       -0.09460  -0.00091   0.00000  -0.02344  -0.02370  -0.11830
    D8        3.10162  -0.00260   0.00000  -0.04396  -0.04433   3.05729
    D9       -2.46107  -0.00447   0.00000   0.00000  -0.00000  -2.46108
   D10        0.61266  -0.00017   0.00000   0.02270   0.02285   0.63551
   D11        0.64565  -0.00252   0.00000  -0.01023  -0.01028   0.63537
   D12       -2.56380   0.00178   0.00000   0.01247   0.01258  -2.55123
   D13       -0.31426   0.00082   0.00000   0.02979   0.02998  -0.28428
   D14        2.56764   0.00366   0.00000   0.07886   0.07757   2.64521
   D15        2.77387   0.00244   0.00000   0.04977   0.05012   2.82398
   D16       -0.62742   0.00529   0.00000   0.09885   0.09771  -0.52971
   D17       -2.32637  -0.00119   0.00000  -0.02377  -0.02333  -2.34970
   D18        1.92687  -0.00284   0.00000  -0.03628  -0.03586   1.89101
   D19       -0.32140  -0.00073   0.00000  -0.01543  -0.01536  -0.33676
   D20        1.04651  -0.00056   0.00000  -0.04980  -0.05051   0.99600
   D21       -0.98343  -0.00221   0.00000  -0.06230  -0.06305  -1.04648
   D22        3.05148  -0.00010   0.00000  -0.04146  -0.04255   3.00893
   D23        2.94502   0.00233   0.00000   0.02301   0.02287   2.96790
   D24       -1.22618   0.00158   0.00000   0.02071   0.02060  -1.20558
   D25        0.85093  -0.00038   0.00000   0.00181   0.00178   0.85271
   D26        0.92351   0.00267   0.00000   0.03204   0.03200   0.95551
   D27        3.03549   0.00192   0.00000   0.02975   0.02972   3.06521
   D28       -1.17058  -0.00004   0.00000   0.01084   0.01090  -1.15967
   D29       -1.07730   0.00142   0.00000   0.00848   0.00847  -1.06883
   D30        1.03468   0.00067   0.00000   0.00619   0.00620   1.04088
   D31        3.11179  -0.00129   0.00000  -0.01272  -0.01262   3.09918
   D32       -2.90496  -0.00174   0.00000  -0.01158  -0.01136  -2.91633
   D33       -0.87269   0.00152   0.00000   0.02647   0.02621  -0.84648
   D34        1.30938  -0.00103   0.00000   0.00000   0.00001   1.30938
   D35       -0.90704  -0.00189   0.00000  -0.01949  -0.01939  -0.92643
   D36        1.12524   0.00137   0.00000   0.01855   0.01818   1.14342
   D37       -2.97588  -0.00119   0.00000  -0.00792  -0.00802  -2.98390
   D38        1.09571   0.00086   0.00000   0.01063   0.01072   1.10644
   D39        3.12799   0.00412   0.00000   0.04867   0.04830  -3.10690
   D40       -0.97313   0.00157   0.00000   0.02221   0.02209  -0.95104
   D41        0.95665   0.00054   0.00000   0.00000   0.00000   0.95666
   D42        3.08237   0.00058   0.00000   0.00861   0.00858   3.09095
   D43       -1.13743  -0.00111   0.00000  -0.01483  -0.01480  -1.15223
   D44       -1.15747   0.00153   0.00000   0.01326   0.01333  -1.14415
   D45        0.96824   0.00157   0.00000   0.02187   0.02190   0.99014
   D46        3.03162  -0.00013   0.00000  -0.00157  -0.00148   3.03015
   D47        3.06230   0.00043   0.00000   0.00172   0.00166   3.06397
   D48       -1.09517   0.00047   0.00000   0.01033   0.01023  -1.08493
   D49        0.96822  -0.00123   0.00000  -0.01311  -0.01314   0.95507
   D50       -0.92192  -0.00093   0.00000   0.00000   0.00000  -0.92192
   D51        1.18233  -0.00135   0.00000  -0.00954  -0.00955   1.17278
   D52       -3.04912  -0.00084   0.00000  -0.00656  -0.00659  -3.05571
   D53       -3.04938  -0.00004   0.00000  -0.00053  -0.00052  -3.04990
   D54       -0.94512  -0.00046   0.00000  -0.01008  -0.01008  -0.95520
   D55        1.10661   0.00005   0.00000  -0.00709  -0.00711   1.09950
   D56        1.17606   0.00000   0.00000   0.00673   0.00676   1.18282
   D57       -3.00287  -0.00042   0.00000  -0.00281  -0.00280  -3.00567
   D58       -0.95114   0.00009   0.00000   0.00017   0.00016  -0.95097
   D59        0.98600  -0.00070   0.00000  -0.01303  -0.01305   0.97295
   D60        3.09651  -0.00067   0.00000  -0.01616  -0.01630   3.08021
   D61       -1.13293   0.00053   0.00000  -0.00354  -0.00350  -1.13643
   D62       -1.11623  -0.00121   0.00000  -0.01429  -0.01427  -1.13050
   D63        0.99428  -0.00117   0.00000  -0.01742  -0.01752   0.97676
   D64        3.04803   0.00003   0.00000  -0.00481  -0.00472   3.04330
   D65        3.11452  -0.00026   0.00000  -0.00310  -0.00310   3.11142
   D66       -1.05816  -0.00022   0.00000  -0.00623  -0.00634  -1.06450
   D67        0.99559   0.00098   0.00000   0.00638   0.00645   1.00204
   D68       -1.04510   0.00001   0.00000   0.00072   0.00080  -1.04430
   D69       -3.12377   0.00159   0.00000   0.01017   0.00975  -3.11402
   D70        1.07770   0.00160   0.00000   0.00936   0.00934   1.08704
   D71        3.12753  -0.00141   0.00000  -0.00736  -0.00721   3.12031
   D72        1.04885   0.00017   0.00000   0.00208   0.00174   1.05059
   D73       -1.03285   0.00018   0.00000   0.00127   0.00133  -1.03153
   D74        1.07351  -0.00028   0.00000   0.00228   0.00248   1.07598
   D75       -1.00516   0.00129   0.00000   0.01172   0.01142  -0.99374
   D76       -3.08687   0.00131   0.00000   0.01092   0.01101  -3.07586
   D77       -1.17217   0.00301   0.00000   0.00000   0.00001  -1.17216
   D78        3.06901  -0.00082   0.00000  -0.01841  -0.01835   3.05067
   D79        1.01972  -0.00207   0.00000  -0.04272  -0.04301   0.97670
   D80        0.01025   0.00526   0.00000   0.02548   0.02531   0.03556
   D81       -3.06057   0.00045   0.00000   0.00004   0.00029  -3.06027
         Item               Value     Threshold  Converged?
 Maximum Force            0.036632     0.000450     NO 
 RMS     Force            0.006860     0.000300     NO 
 Maximum Displacement     0.298750     0.001800     NO 
 RMS     Displacement     0.056629     0.001200     NO 
 Predicted change in Energy=-1.330314D-02
 GradGradGradGradGradGradGradGradGradGradGradGradGradGradGradGradGradGrad

                          Input orientation:                          
 ---------------------------------------------------------------------
 Center     Atomic      Atomic             Coordinates (Angstroms)
 Number     Number       Type             X           Y           Z
 ---------------------------------------------------------------------
      1          8           0       -3.377598   -1.522126    0.038930
      2          7           0       -3.096361   -0.318084    0.135283
      3          8           0       -3.873092    0.588790    0.471539
      4          6           0       -1.692571    0.027184   -0.093260
      5          6           0       -1.332971    1.297457    0.225185
      6          7           0       -0.072778    1.779971    0.266281
      7          6           0        1.180239    1.014380    0.308642
      8          1           0        1.780164    1.512837    1.088676
      9          6           0        1.986923    1.059055   -0.984395
     10          6           0        3.368703    0.442409   -0.738570
     11          6           0        3.257175   -0.972684   -0.159709
     12          6           0        2.364624   -1.007812    1.081294
     13          6           0        0.977254   -0.431365    0.770301
     14          1           0        0.362955   -0.441093    1.684656
     15          7           0        0.378530   -1.289856   -0.246965
     16          6           0       -0.839674   -1.047878   -0.586074
     17          1           0       -2.118069    1.996901    0.504288
     18          1           0        0.064299    2.768367    0.080763
     19          1           0        1.456119    0.503697   -1.765495
     20          1           0        2.085667    2.099304   -1.323756
     21          1           0        3.934994    0.424200   -1.676622
     22          1           0        3.925236    1.080433   -0.037617
     23          1           0        2.827174   -1.639862   -0.914824
     24          1           0        4.252726   -1.359444    0.089273
     25          1           0        2.252383   -2.038440    1.436501
     26          1           0        2.821862   -0.427011    1.893543
     27          1           0       -1.311924   -1.737308   -1.288871
 ---------------------------------------------------------------------
                    Distance matrix (angstroms):
                    1          2          3          4          5
     1  O    0.000000
     2  N    1.240201   0.000000
     3  O    2.211025   1.240483   0.000000
     4  C    2.292848   1.463580   2.321437   0.000000
     5  C    3.487871   2.393240   2.648606   1.358056   0.000000
     6  N    4.677325   3.682533   3.987910   2.413558   1.350035
     7  C    5.223073   4.482725   5.073837   3.064168   2.530479
     8  H    6.075811   5.295444   5.761426   3.957781   3.237841
     9  C    6.040511   5.384233   6.056456   3.923972   3.541414
    10  C    7.069405   6.568030   7.343663   5.119114   4.875005
    11  C    6.660447   6.393977   7.326485   5.050162   5.135283
    12  C    5.858682   5.585071   6.467614   4.348750   4.440653
    13  C    4.548561   4.124369   4.965464   2.843233   2.936515
    14  H    4.227148   3.792434   4.525086   2.757799   2.833510
    15  N    3.774147   3.628405   4.703387   2.459203   3.137890
    16  C    2.656426   2.479030   3.605392   1.458101   2.530234
    17  H    3.766500   2.540152   2.250323   2.101879   1.087887
    18  H    5.500612   4.418022   4.517334   3.260516   2.033911
    19  H    5.542990   5.001335   5.780316   3.596900   3.517369
    20  H    6.694695   5.901354   6.404026   4.481394   3.837872
    21  H    7.759208   7.298900   8.099870   5.859535   5.668413
    22  H    7.753100   7.161603   7.830381   5.715959   5.269241
    23  H    6.278751   6.159391   7.196003   4.886933   5.218647
    24  H    7.632224   7.422643   8.364847   6.107587   6.186890
    25  H    5.823785   5.767310   6.734607   4.708464   5.044826
    26  H    6.562940   6.174845   6.919274   4.953159   4.797900
    27  H    2.465029   2.688238   3.881926   2.165135   3.391550
                    6          7          8          9         10
     6  N    0.000000
     7  C    1.469005   0.000000
     8  H    2.044771   1.103097   0.000000
     9  C    2.515209   1.524690   2.132204   0.000000
    10  C    3.826563   2.492624   2.647281   1.532970   0.000000
    11  C    4.341332   2.912291   3.149261   2.534090   1.532973
    12  C    3.791689   2.467593   2.587531   2.946467   2.534407
    13  C    2.499322   1.531179   2.127428   2.513909   2.959594
    14  H    2.671099   2.163277   2.486266   3.465768   3.960697
    15  N    3.144985   2.502186   3.406406   2.940767   3.490494
    16  C    3.051454   3.022164   4.028102   3.547884   4.467063
    17  H    2.070489   3.447095   3.971404   4.466172   5.836592
    18  H    1.014955   2.091345   2.352964   2.784384   4.123163
    19  H    2.845086   2.153822   3.044612   1.095578   2.171706
    20  H    2.699829   2.159071   2.501421   1.098651   2.175758
    21  H    4.655665   3.446485   3.670871   2.162683   1.095883
    22  H    4.070113   2.767537   2.461065   2.157291   1.099153
    23  H    4.636808   3.354738   3.879402   2.827546   2.158743
    24  H    5.347639   3.888873   3.919486   3.483642   2.171058
    25  H    4.621260   3.426553   3.599381   3.940264   3.483061
    26  H    3.987190   2.698970   2.344345   3.344853   2.825410
    27  H    4.040449   4.041623   5.077124   4.335290   5.192521
                   11         12         13         14         15
    11  C    0.000000
    12  C    1.529042   0.000000
    13  C    2.521108   1.534210   0.000000
    14  H    3.472864   2.166078   1.101592   0.000000
    15  N    2.897379   2.405907   1.459557   2.109929   0.000000
    16  C    4.119662   3.612374   2.349696   2.640212   1.287467
    17  H    6.176777   5.427317   3.943129   3.673222   4.195254
    18  H    4.924201   4.533441   3.398122   3.600320   4.083542
    19  H    2.828790   3.348768   2.744797   3.740478   2.585336
    20  H    3.487771   3.939067   3.466690   4.297895   3.944642
    21  H    2.170657   3.481784   3.932893   4.980601   4.198850
    22  H    2.162522   2.836942   3.410111   4.239235   4.270973
    23  H    1.095548   2.144278   2.778905   3.777132   2.562108
    24  H    1.096675   2.161639   3.471865   4.303364   3.889382
    25  H    2.166409   1.095885   2.156958   2.486572   2.627881
    26  H    2.168663   1.098247   2.159692   2.467805   3.360974
    27  H    4.768262   4.434732   3.344550   3.650651   2.035539
                   16         17         18         19         20
    16  C    0.000000
    17  H    3.477623   0.000000
    18  H    3.978136   2.353139   0.000000
    19  H    3.011493   4.489587   3.236442   0.000000
    20  H    4.359651   4.585154   2.550735   1.771277   0.000000
    21  H    5.114076   6.623393   4.854462   2.481741   2.520019
    22  H    5.247369   6.136376   4.215444   3.068342   2.465008
    23  H    3.728847   6.300425   5.296901   2.682961   3.833852
    24  H    5.146427   7.212789   5.880631   3.838290   4.319228
    25  H    3.825290   6.021117   5.452626   4.165246   4.976720
    26  H    4.465515   5.675235   4.593557   4.014975   4.156352
    27  H    1.091905   4.220142   4.906220   3.593236   5.124884
                   21         22         23         24         25
    21  H    0.000000
    22  H    1.765524   0.000000
    23  H    2.463322   3.061901   0.000000
    24  H    2.529965   2.465025   1.766081   0.000000
    25  H    4.311300   3.833905   2.453157   2.505480   0.000000
    26  H    3.835322   2.686856   3.059079   2.484390   1.769152
    27  H    5.687937   6.077265   4.157108   5.745206   4.496957
                   26         27
    26  H    0.000000
    27  H    5.378924   0.000000
 Symmetry turned off by external request.
 Stoichiometry    C9H13N3O2
 Framework group  C1[X(C9H13N3O2)]
 Deg. of freedom    75
 Full point group                 C1      NOp   1
 Rotational constants (GHZ):           1.6883937           0.4264740           0.3751349
 Standard basis: 6-31G(d) (6D, 7F)
   236 basis functions,   444 primitive gaussians,   236 cartesian basis functions
    52 alpha electrons       52 beta electrons
       nuclear repulsion energy       933.5314065791 Hartrees.
 NAtoms=   27 NActive=   27 NUniq=   27 SFac= 1.00D+00 NAtFMM=   60 NAOKFM=F Big=F
 Integral buffers will be    131072 words long.
 Raffenetti 1 integral format.
 Two-electron integral symmetry is turned off.
 One-electron integrals computed using PRISM.
 NBasis=   236 RedAO= T EigKep=  1.05D-03  NBF=   236
 NBsUse=   236 1.00D-06 EigRej= -1.00D+00 NBFU=   236
 Initial guess from the checkpoint file:  "/home/alexey/tmp/Gau-1427202.chk"
 B after Tr=     0.055335    0.003854    0.005007
         Rot=    0.999999   -0.000629   -0.001519    0.000350 Ang=  -0.19 deg.
 ExpMin= 1.61D-01 ExpMax= 5.48D+03 ExpMxC= 8.25D+02 IAcc=3 IRadAn=         5 AccDes= 0.00D+00
 Harris functional with IExCor=  205 and IRadAn=       5 diagonalized for initial guess.
 HarFok:  IExCor=  205 AccDes= 0.00D+00 IRadAn=         5 IDoV= 1 UseB2=F ITyADJ=14
 ICtDFT=  3500011 ScaDFX=  1.000000  1.000000  1.000000  1.000000
 FoFCou: FMM=F IPFlag=           0 FMFlag=      100000 FMFlg1=           0
         NFxFlg=           0 DoJE=T BraDBF=F KetDBF=T FulRan=T
         wScrn=  0.000000 ICntrl=       500 IOpCl=  0 I1Cent=   200000004 NGrid=           0
         NMat0=    1 NMatS0=      1 NMatT0=    0 NMatD0=    1 NMtDS0=    0 NMtDT0=    0
 Symmetry not used in FoFCou.
 Keep R1 ints in memory in canonical form, NReq=397720213.
 Requested convergence on RMS density matrix=1.00D-08 within 128 cycles.
 Requested convergence on MAX density matrix=1.00D-06.
 Requested convergence on             energy=1.00D-06.
 No special actions if energy rises.
 SCF Done:  E(RHF) =  -661.293621484     A.U. after   15 cycles
            NFock= 15  Conv=0.53D-08     -V/T= 2.0025
 ExpMin= 1.61D-01 ExpMax= 5.48D+03 ExpMxC= 8.25D+02 IAcc=3 IRadAn=         5 AccDes= 0.00D+00
 HarFok:  IExCor=  205 AccDes= 0.00D+00 IRadAn=         5 IDoV=-2 UseB2=F ITyADJ=14
 ICtDFT= 12500011 ScaDFX=  1.000000  1.000000  1.000000  1.000000
 Range of M.O.s used for correlation:    15   236
 NBasis=   236 NAE=    52 NBE=    52 NFC=    14 NFV=     0
 NROrb=    222 NOA=    38 NOB=    38 NVA=   184 NVB=   184
 Fully direct method using O(ONN) memory.
 JobTyp=1 Pass  1:  I=  15 to  52 NPSUse=  4 ParTrn=T ParDer=T DoDerP=T.
 Spin components of T(2) and E(2):
     alpha-alpha T2 =       0.9119074176D-01 E2=     -0.2722419601D+00
     alpha-beta  T2 =       0.4919915085D+00 E2=     -0.1488809494D+01
     beta-beta   T2 =       0.9119074176D-01 E2=     -0.2722419601D+00
 ANorm=    0.1293975654D+01
 E2 =    -0.2033293414D+01 EUMP2 =    -0.66332691489744D+03
          IDoAtm=111111111111111111111111111
          Differentiating once with respect to electric field.
                with respect to dipole field.
          Differentiating once with respect to nuclear coordinates.
 Keep R1 ints in memory in canonical form, NReq=397723379.
          There are     1 degrees of freedom in the 1st order CPHF.  IDoFFX=0 NUNeed=     1.
 LinEq1:  Iter=  0 NonCon=     1 RMS=4.55D-03 Max=1.04D-01 NDo=     1
 AX will form     1 AO Fock derivatives at one time.
 LinEq1:  Iter=  1 NonCon=     1 RMS=1.53D-03 Max=2.75D-02 NDo=     1
 LinEq1:  Iter=  2 NonCon=     1 RMS=6.37D-04 Max=1.78D-02 NDo=     1
 LinEq1:  Iter=  3 NonCon=     1 RMS=2.81D-04 Max=8.10D-03 NDo=     1
 LinEq1:  Iter=  4 NonCon=     1 RMS=8.67D-05 Max=1.84D-03 NDo=     1
 LinEq1:  Iter=  5 NonCon=     1 RMS=3.64D-05 Max=1.88D-03 NDo=     1
 LinEq1:  Iter=  6 NonCon=     1 RMS=1.41D-05 Max=5.39D-04 NDo=     1
 LinEq1:  Iter=  7 NonCon=     1 RMS=5.47D-06 Max=1.11D-04 NDo=     1
 LinEq1:  Iter=  8 NonCon=     1 RMS=2.20D-06 Max=6.15D-05 NDo=     1
[...]
    26  H    2.175638   1.098771   2.164869   2.494011   3.365567
    27  H    4.736568   4.428780   3.350951   3.655042   2.031058
                   16         17         18         19         20
    16  C    0.000000
    17  H    3.465221   0.000000
    18  H    4.050511   2.244012   0.000000
    19  H    2.987015   4.457319   3.521271   0.000000
    20  H    4.353830   4.585332   2.886045   1.767708   0.000000
    21  H    5.097154   6.612916   5.088596   2.498771   2.522115
    22  H    5.235236   6.125024   4.308647   3.070232   2.460767
    23  H    3.712819   6.280835   5.423693   2.706692   3.843414
    24  H    5.140638   7.198000   5.933130   3.851393   4.316966
    25  H    3.823290   5.999678   5.366548   4.174524   4.985601
    26  H    4.483030   5.680804   4.482317   4.042286   4.186568
    27  H    1.090773   4.223486   5.022806   3.551585   5.102464
                   21         22         23         24         25
    21  H    0.000000
    22  H    1.758676   0.000000
    23  H    2.468385   3.061687   0.000000
    24  H    2.517004   2.459339   1.764425   0.000000
    25  H    4.312270   3.841025   2.443978   2.520161   0.000000
    26  H    3.848738   2.707642   3.060505   2.489119   1.767293
    27  H    5.644809   6.044604   4.115970   5.715860   4.481533
                   26         27
    26  H    0.000000
    27  H    5.382572   0.000000
 Symmetry turned off by external request.
 Stoichiometry    C9H13N3O2
 Framework group  C1[X(C9H13N3O2)]
 Deg. of freedom    75
 Full point group                 C1      NOp   1
 Rotational constants (GHZ):           1.6852423           0.4252693           0.3747547

 **********************************************************************

            Population analysis using the SCF Density.

 **********************************************************************

 Alpha  occ. eigenvalues --  -20.59270 -20.58919 -15.84700 -15.63681 -15.56630
 Alpha  occ. eigenvalues --  -11.34857 -11.29676 -11.29663 -11.28509 -11.27220
 Alpha  occ. eigenvalues --  -11.23626 -11.23184 -11.22774 -11.22128  -1.57088
 Alpha  occ. eigenvalues --   -1.36724  -1.30633  -1.23349  -1.14657  -1.09828
 Alpha  occ. eigenvalues --   -1.02772  -1.01282  -0.94434  -0.89651  -0.85516
 Alpha  occ. eigenvalues --   -0.82418  -0.78324  -0.77495  -0.75033  -0.71784
 Alpha  occ. eigenvalues --   -0.69949  -0.69372  -0.67755  -0.65152  -0.63672
 Alpha  occ. eigenvalues --   -0.62298  -0.60488  -0.57527  -0.57057  -0.54986
 Alpha  occ. eigenvalues --   -0.54540  -0.50825  -0.49802  -0.48583  -0.48087
 Alpha  occ. eigenvalues --   -0.47436  -0.46217  -0.45962  -0.43624  -0.41538
 Alpha  occ. eigenvalues --   -0.40344  -0.34080
 Alpha virt. eigenvalues --    0.07399   0.12126   0.17458   0.21434   0.23559
 Alpha virt. eigenvalues --    0.25263   0.26988   0.28729   0.29025   0.29540
 Alpha virt. eigenvalues --    0.30411   0.31761   0.31967   0.32635   0.33997
 Alpha virt. eigenvalues --    0.34317   0.36051   0.37189   0.38440   0.40275
 Alpha virt. eigenvalues --    0.41260   0.43019   0.45370   0.46266   0.46498
 Alpha virt. eigenvalues --    0.46922   0.48807   0.53576   0.57502   0.59626
 Alpha virt. eigenvalues --    0.63494   0.69492   0.70332   0.72761   0.74246
 Alpha virt. eigenvalues --    0.75087   0.75725   0.77017   0.78512   0.79746
 Alpha virt. eigenvalues --    0.81409   0.84505   0.85727   0.86518   0.88682
 Alpha virt. eigenvalues --    0.89450   0.90291   0.91903   0.92803   0.94331
 Alpha virt. eigenvalues --    0.95172   0.97884   0.99238   1.01877   1.02344
 Alpha virt. eigenvalues --    1.02651   1.06020   1.06182   1.07430   1.09204
 Alpha virt. eigenvalues --    1.10005   1.10615   1.11743   1.12572   1.14020
 Alpha virt. eigenvalues --    1.14696   1.14800   1.15429   1.16550   1.18607
 Alpha virt. eigenvalues --    1.19518   1.20764   1.21046   1.23183   1.23706
 Alpha virt. eigenvalues --    1.24633   1.26115   1.26789   1.27711   1.29415
 Alpha virt. eigenvalues --    1.30588   1.32960   1.34945   1.37117   1.41622
 Alpha virt. eigenvalues --    1.45047   1.46589   1.47965   1.49294   1.52542
 Alpha virt. eigenvalues --    1.55012   1.57434   1.60531   1.62758   1.65618
 Alpha virt. eigenvalues --    1.67459   1.69742   1.73517   1.74387   1.76442
 Alpha virt. eigenvalues --    1.82945   1.84544   1.85758   1.90875   1.92865
 Alpha virt. eigenvalues --    1.94682   1.97153   1.99175   2.00255   2.02860
 Alpha virt. eigenvalues --    2.04699   2.06619   2.07815   2.09559   2.12648
 Alpha virt. eigenvalues --    2.13482   2.15802   2.18176   2.20031   2.21264
 Alpha virt. eigenvalues --    2.23634   2.24558   2.25449   2.28342   2.29813
 Alpha virt. eigenvalues --    2.33600   2.34210   2.35499   2.36910   2.38115
 Alpha virt. eigenvalues --    2.39848   2.40873   2.42334   2.45839   2.49101
 Alpha virt. eigenvalues --    2.50894   2.51780   2.53320   2.56376   2.61543
 Alpha virt. eigenvalues --    2.62903   2.64811   2.67877   2.69921   2.70966
 Alpha virt. eigenvalues --    2.73343   2.73638   2.78317   2.79922   2.83577
 Alpha virt. eigenvalues --    2.87370   2.88280   2.92808   2.93852   2.96816
 Alpha virt. eigenvalues --    3.00244   3.00581   3.02996   3.04669   3.07662
 Alpha virt. eigenvalues --    3.09110   3.14207   3.21849   3.23969   3.27287
 Alpha virt. eigenvalues --    3.30667   3.36654   3.38362   3.52068   3.64019
 Alpha virt. eigenvalues --    4.12156   4.27712   4.33528   4.38635   4.44883
 Alpha virt. eigenvalues --    4.56374   4.61964   4.62284   4.73293   4.78754
 Alpha virt. eigenvalues --    4.98701   5.00810   5.04003   5.11383
          Condensed to atoms (all electrons):
               1          2          3          4          5          6
     1  O    8.313838   0.311901  -0.081654  -0.089216   0.004406  -0.000016
     2  N    0.311901   5.715394   0.300351   0.269741  -0.050441   0.000890
     3  O   -0.081654   0.300351   8.352124  -0.092660   0.005952   0.000694
     4  C   -0.089216   0.269741  -0.092660   5.220922   0.567110  -0.049853
     5  C    0.004406  -0.050441   0.005952   0.567110   4.698471   0.317850
     6  N   -0.000016   0.000890   0.000694  -0.049853   0.317850   7.190310
     7  C    0.000005  -0.000125   0.000004   0.001933  -0.031053   0.173138
     8  H   -0.000000   0.000004  -0.000000  -0.000101   0.002678  -0.051791
     9  C   -0.000000  -0.000004   0.000000   0.000652   0.001112  -0.059964
    10  C    0.000000   0.000000  -0.000000  -0.000026  -0.000057   0.003666
    11  C   -0.000000  -0.000000  -0.000000  -0.000042   0.000024  -0.000193
    12  C   -0.000000   0.000003  -0.000000  -0.000010  -0.000092   0.003801
    13  C   -0.000042  -0.000078  -0.000007  -0.013497  -0.000838  -0.045180
    14  H   -0.000004  -0.000055  -0.000002   0.003677   0.006773  -0.007144
    15  N   -0.000220   0.002592  -0.000020  -0.063707  -0.005871   0.001434
    16  C    0.004100  -0.034465   0.002326   0.327590  -0.047612  -0.002921
    17  H    0.000180  -0.005993   0.015193  -0.025694   0.376970  -0.035019
    18  H    0.000001  -0.000054   0.000010   0.001773  -0.031355   0.338646
    19  H    0.000000   0.000001  -0.000000  -0.000743   0.000762   0.000054
    20  H    0.000000  -0.000000   0.000000  -0.000054   0.000154  -0.000716
    21  H   -0.000000   0.000000   0.000000   0.000000   0.000001  -0.000072
    22  H   -0.000000   0.000000  -0.000000   0.000000  -0.000004  -0.000117
    23  H   -0.000000  -0.000000   0.000000   0.000041  -0.000001  -0.000029
    24  H   -0.000000   0.000000   0.000000   0.000000  -0.000000   0.000005
    25  H   -0.000000  -0.000000   0.000000   0.000029  -0.000001  -0.000089
    26  H   -0.000000  -0.000000   0.000000   0.000011  -0.000002  -0.000060
    27  H    0.004003  -0.001360  -0.000029  -0.061584   0.002673   0.000028
               7          8          9         10         11         12
     1  O    0.000005  -0.000000  -0.000000   0.000000  -0.000000  -0.000000
     2  N   -0.000125   0.000004  -0.000004   0.000000  -0.000000   0.000003
     3  O    0.000004  -0.000000   0.000000  -0.000000  -0.000000  -0.000000
     4  C    0.001933  -0.000101   0.000652  -0.000026  -0.000042  -0.000010
     5  C   -0.031053   0.002678   0.001112  -0.000057   0.000024  -0.000092
     6  N    0.173138  -0.051791  -0.059964   0.003666  -0.000193   0.003801
     7  C    5.006785   0.419332   0.347789  -0.054716  -0.008781  -0.060257
     8  H    0.419332   0.542344  -0.056569   0.001046  -0.000417  -0.002099
     9  C    0.347789  -0.056569   5.159819   0.323339  -0.050033  -0.005454
    10  C   -0.054716   0.001046   0.323339   5.121727   0.336565  -0.060548
    11  C   -0.008781  -0.000417  -0.050033   0.336565   5.119467   0.335840
    12  C   -0.060257  -0.002099  -0.005454  -0.060548   0.335840   5.117465
    13  C    0.346763  -0.039726  -0.058420  -0.000568  -0.050872   0.369941
    14  H   -0.045391  -0.000681   0.004389  -0.000405   0.004140  -0.036174
    15  N   -0.056759   0.004028  -0.014959   0.001620  -0.012617  -0.080540
    16  C   -0.002466   0.000075  -0.001848   0.000019   0.000020   0.003109
    17  H    0.001746  -0.000037  -0.000077   0.000001   0.000000   0.000000
    18  H   -0.021748  -0.004265   0.001232  -0.000085   0.000004  -0.000116
    19  H   -0.036647   0.004459   0.389378  -0.031998  -0.002295   0.000722
    20  H   -0.041818  -0.002108   0.399715  -0.035610   0.003940  -0.000400
    21  H    0.004573  -0.000079  -0.036188   0.402455  -0.034914   0.004322
    22  H   -0.004758   0.003564  -0.046823   0.397675  -0.045554  -0.001026
    23  H    0.000531   0.000038  -0.001939  -0.039096   0.399199  -0.037873
    24  H   -0.000128  -0.000100   0.004359  -0.038374   0.402285  -0.038736
    25  H    0.005068  -0.000020  -0.000431   0.004176  -0.033583   0.398641
    26  H   -0.004010   0.001798   0.000926  -0.002174  -0.041378   0.396974
    27  H   -0.000409   0.000010  -0.000076   0.000008   0.000009  -0.000036
              13         14         15         16         17         18
     1  O   -0.000042  -0.000004  -0.000220   0.004100   0.000180   0.000001
     2  N   -0.000078  -0.000055   0.002592  -0.034465  -0.005993  -0.000054
     3  O   -0.000007  -0.000002  -0.000020   0.002326   0.015193   0.000010
     4  C   -0.013497   0.003677  -0.063707   0.327590  -0.025694   0.001773
     5  C   -0.000838   0.006773  -0.005871  -0.047612   0.376970  -0.031355
     6  N   -0.045180  -0.007144   0.001434  -0.002921  -0.035019   0.338646
     7  C    0.346763  -0.045391  -0.056759  -0.002466   0.001746  -0.021748
     8  H   -0.039726  -0.000681   0.004028   0.000075  -0.000037  -0.004265
     9  C   -0.058420   0.004389  -0.014959  -0.001848  -0.000077   0.001232
    10  C   -0.000568  -0.000405   0.001620   0.000019   0.000001  -0.000085
    11  C   -0.050872   0.004140  -0.012617   0.000020   0.000000   0.000004
    12  C    0.369941  -0.036174  -0.080540   0.003109   0.000000  -0.000116
    13  C    5.045953   0.400577   0.242239  -0.072106   0.000018   0.002958
    14  H    0.400577   0.525646  -0.036802  -0.005245   0.000149  -0.000085
    15  N    0.242239  -0.036802   6.942558   0.585896  -0.000100  -0.000120
    16  C   -0.072106  -0.005245   0.585896   4.712138   0.002079  -0.000186
    17  H    0.000018   0.000149  -0.000100   0.002079   0.383955  -0.002893
    18  H    0.002958  -0.000085  -0.000120  -0.000186  -0.002893   0.314155
    19  H   -0.007629   0.000108   0.007856   0.003077   0.000013  -0.000136
    20  H    0.004260  -0.000065   0.000117  -0.000038   0.000004   0.000767
    21  H   -0.000415   0.000010  -0.000035   0.000003  -0.000000   0.000001
    22  H    0.000063  -0.000057   0.000015  -0.000003   0.000000   0.000001
    23  H   -0.007253  -0.000001   0.008267   0.000049   0.000000   0.000000
    24  H    0.004677  -0.000054   0.000142   0.000007   0.000000  -0.000000
    25  H   -0.035757  -0.002760   0.000055  -0.000025  -0.000000   0.000002
    26  H   -0.047100  -0.001069   0.004809  -0.000091   0.000000  -0.000001
    27  H    0.005350  -0.000218  -0.041696   0.402912  -0.000066   0.000001
              19         20         21         22         23         24
     1  O    0.000000   0.000000  -0.000000  -0.000000  -0.000000  -0.000000
     2  N    0.000001  -0.000000   0.000000   0.000000  -0.000000   0.000000
     3  O   -0.000000   0.000000   0.000000  -0.000000   0.000000   0.000000
     4  C   -0.000743  -0.000054   0.000000   0.000000   0.000041   0.000000
     5  C    0.000762   0.000154   0.000001  -0.000004  -0.000001  -0.000000
     6  N    0.000054  -0.000716  -0.000072  -0.000117  -0.000029   0.000005
     7  C   -0.036647  -0.041818   0.004573  -0.004758   0.000531  -0.000128
     8  H    0.004459  -0.002108  -0.000079   0.003564   0.000038  -0.000100
     9  C    0.389378   0.399715  -0.036188  -0.046823  -0.001939   0.004359
    10  C   -0.031998  -0.035610   0.402455   0.397675  -0.039096  -0.038374
    11  C   -0.002295   0.003940  -0.034914  -0.045554   0.399199   0.402285
    12  C    0.000722  -0.000400   0.004322  -0.001026  -0.037873  -0.038736
    13  C   -0.007629   0.004260  -0.000415   0.000063  -0.007253   0.004677
    14  H    0.000108  -0.000065   0.000010  -0.000057  -0.000001  -0.000054
    15  N    0.007856   0.000117  -0.000035   0.000015   0.008267   0.000142
    16  C    0.003077  -0.000038   0.000003  -0.000003   0.000049   0.000007
    17  H    0.000013   0.000004  -0.000000   0.000000   0.000000   0.000000
    18  H   -0.000136   0.000767   0.000001   0.000001   0.000000  -0.000000
    19  H    0.505592  -0.024593  -0.002795   0.003952   0.001520  -0.000065
    20  H   -0.024593   0.540546  -0.002652  -0.003009  -0.000046  -0.000082
    21  H   -0.002795  -0.002652   0.524079  -0.027421  -0.002929  -0.002226
    22  H    0.003952  -0.003009  -0.027421   0.571404   0.004157  -0.003674
    23  H    0.001520  -0.000046  -0.002929   0.004157   0.500180  -0.025484
    24  H   -0.000065  -0.000082  -0.002226  -0.003674  -0.025484   0.538081
    25  H   -0.000027   0.000012  -0.000087  -0.000079  -0.002355  -0.002252
    26  H    0.000020  -0.000030  -0.000082   0.002377   0.004059  -0.003070
    27  H    0.000086   0.000000  -0.000000   0.000000  -0.000032  -0.000000
              25         26         27
     1  O   -0.000000  -0.000000   0.004003
     2  N   -0.000000  -0.000000  -0.001360
     3  O    0.000000   0.000000  -0.000029
     4  C    0.000029   0.000011  -0.061584
     5  C   -0.000001  -0.000002   0.002673
     6  N   -0.000089  -0.000060   0.000028
     7  C    0.005068  -0.004010  -0.000409
     8  H   -0.000020   0.001798   0.000010
     9  C   -0.000431   0.000926  -0.000076
    10  C    0.004176  -0.002174   0.000008
    11  C   -0.033583  -0.041378   0.000009
    12  C    0.398641   0.396974  -0.000036
    13  C   -0.035757  -0.047100   0.005350
    14  H   -0.002760  -0.001069  -0.000218
    15  N    0.000055   0.004809  -0.041696
    16  C   -0.000025  -0.000091   0.402912
    17  H   -0.000000   0.000000  -0.000066
    18  H    0.000002  -0.000001   0.000001
    19  H   -0.000027   0.000020   0.000086
    20  H    0.000012  -0.000030   0.000000
    21  H   -0.000087  -0.000082  -0.000000
    22  H   -0.000079   0.002377   0.000000
    23  H   -0.002355   0.004059  -0.000032
    24  H   -0.002252  -0.003070  -0.000000
    25  H    0.506186  -0.024058  -0.000010
    26  H   -0.024058   0.560646   0.000001
    27  H   -0.000010   0.000001   0.455771
 Mulliken charges:
               1
     1  O   -0.467282
     2  N    0.491698
     3  O   -0.502284
     4  C    0.003710
     5  C    0.182390
     6  N   -0.777352
     7  C    0.061398
     8  H    0.178617
     9  C   -0.299925
    10  C   -0.328641
    11  C   -0.320814
    12  C   -0.307456
    13  C   -0.043311
    14  H    0.190744
    15  N   -0.488185
    16  C    0.123608
    17  H    0.289570
    18  H    0.401494
    19  H    0.189327
    20  H    0.161705
    21  H    0.174452
    22  H    0.149315
    23  H    0.198995
    24  H    0.164690
    25  H    0.187368
    26  H    0.151505
    27  H    0.234665
 Sum of Mulliken charges =  -0.00000
 Mulliken charges with hydrogens summed into heavy atoms:
               1
     1  O   -0.467282
     2  N    0.491698
     3  O   -0.502284
     4  C    0.003710
     5  C    0.471960
     6  N   -0.375859
     7  C    0.240015
     9  C    0.051107
    10  C   -0.004874
    11  C    0.042870
    12  C    0.031417
    13  C    0.147433
    15  N   -0.488185
    16  C    0.358273
 Electronic spatial extent (au):  <R**2>=           2980.4023
 Charge=             -0.0000 electrons
 Dipole moment (field-independent basis, Debye):
    X=              5.3018    Y=              4.9212    Z=              0.6123  Tot=              7.2597
 Quadrupole moment (field-independent basis, Debye-Ang):
   XX=           -105.1526   YY=            -79.7364   ZZ=            -81.4190
   XY=             -2.9624   XZ=              3.3040   YZ=              2.3259
 Traceless Quadrupole moment (field-independent basis, Debye-Ang):
   XX=            -16.3833   YY=              9.0329   ZZ=              7.3503
   XY=             -2.9624   XZ=              3.3040   YZ=              2.3259
 Octapole moment (field-independent basis, Debye-Ang**2):
  XXX=             85.6939  YYY=             39.7834  ZZZ=             -4.8606  XYY=             -3.5688
  XXY=             13.5085  XXZ=            -10.8550  XZZ=            -10.4878  YZZ=             -1.1143
  YYZ=              5.6534  XYZ=             -2.4338
 Hexadecapole moment (field-independent basis, Debye-Ang**3):
 XXXX=          -3321.8322 YYYY=           -610.8257 ZZZZ=           -298.9164 XXXY=            -50.6451
 XXXZ=             96.5963 YYYX=            -34.8164 YYYZ=             31.5659 ZZZX=             53.2557
 ZZZY=             16.3456 XXYY=           -624.1311 XXZZ=           -518.1977 YYZZ=           -158.1000
 XXYZ=              5.1306 YYXZ=             23.8102 ZZXY=              1.8359
 N-N= 9.328821351273D+02 E-N=-3.412483216282D+03  KE= 6.596276176269D+02
 Unable to Open any file for archive entry.
 1\1\GINC-LOTUS\FOpt\RMP2-FC\6-31G(d)\C9H13N3O2\ALEXEY\02-Jul-2023\0\\#
 MP2/6-31G* SCF=Tight Opt=(ModRedun, MaxCycle=20 ) NoSymm\\MolName:\\0,
 1\O,-3.3853743597,-1.5261121362,0.0226335277\N,-3.0854209867,-0.318706
 893,0.1138131195\O,-3.8999345168,0.5823341291,0.3912486881\C,-1.695766
 2724,0.0178852874,-0.105322521\C,-1.3161061623,1.2911038907,0.21622722
 06\N,-0.0640596351,1.7863259418,0.2329299572\C,1.191655721,1.036119909
 2,0.2828754027\H,1.7998697514,1.5516488247,1.042416745\C,1.9856184966,
 1.0455512917,-1.0208300655\C,3.3613371311,0.4184584474,-0.7665421484\C
 ,3.2524277234,-0.9808216077,-0.1545470472\C,2.3704993312,-0.9900282391
 ,1.0963394532\C,0.9887248547,-0.4108372111,0.7765380559\H,0.3538503131
 ,-0.3839268182,1.6768896805\N,0.3870680084,-1.2788513098,-0.2334970184
 \C,-0.834120896,-1.0493758941,-0.5881907447\H,-2.103872579,1.997794889
 9,0.4654857593\H,0.0050019557,2.7644441428,0.4875829072\H,1.4348788288
 ,0.4832137161,-1.7819518538\H,2.0913039746,2.0754901901,-1.3837649793\
 H,3.9302133196,0.3790572777,-1.702497942\H,3.9256126327,1.072079279,-0
 .0861314278\H,2.8148728632,-1.666351131,-0.8868713281\H,4.2522656535,-
 1.3591559245,0.0892067441\H,2.2441578929,-2.0139088394,1.4639836098\H,
 2.8374793549,-0.4080999499,1.9029286866\H,-1.2801923985,-1.7533112636,
 -1.2919524809\\Version=ES64L-G16RevC.02\HF=-661.2968332\MP2=-663.33157
 85\RMSD=6.011e-09\RMSF=1.743e-03\Dipole=1.9218348,1.7115599,0.2532077\
 PG=C01 [X(C9H13N3O2)]\\@
 The archive entry for this job was punched.


 BE LIKE A POSTAGE STAMP.  STICK TO ONE THING UNTIL
 YOU GET THERE -- JOSH BILLINGS
 Job cpu time:       0 days  1 hours 15 minutes 10.3 seconds.
 Elapsed time:       0 days  0 hours 22 minutes 43.0 seconds.
 File lengths (MBytes):  RWF=     36 Int=      0 D2E=      0 Chk=      7 Scr=      1
 Normal termination of Gaussian 16 at Sun Jul  2 02:24:29 2023.
