 Entering Gaussian System, Link 0=g16
 Initial command:
 /home/alexey/programs//g16/l1.exe "/home/alexey/tmp/Gau-1233027.inp" -scrdir="/home/alexey/tmp/"
 Entering Link 1 = /home/alexey/programs//g16/l1.exe PID=   1233029.
  
 Copyright (c) 1988-2021, Gaussian, Inc.  All Rights Reserved.
  
 This is part of the Gaussian(R) 16 program.  It is based on
 the Gaussian(R) 09 system (copyright 2009, Gaussian, Inc.),
 the Gaussian(R) 03 system (copyright 2003, Gaussian, Inc.),
 the Gaussian(R) 98 system (copyright 1998, Gaussian, Inc.),
 the Gaussian(R) 94 system (copyright 1995, Gaussian, Inc.),
 the Gaussian 92(TM) system (copyright 1992, Gaussian, Inc.),
 the Gaussian 90(TM) system (copyright 1990, Gaussian, Inc.),
 the Gaussian 88(TM) system (copyright 1988, Gaussian, Inc.),
 the Gaussian 86(TM) system (copyright 1986, Carnegie Mellon
 University), and the Gaussian 82(TM) system (copyright 1983,
 Carnegie Mellon University). Gaussian is a federally registered
 trademark of Gaussian, Inc.
  
 This software contains proprietary and confidential information,
 including trade secrets, belonging to Gaussian, Inc.
  
 This software is provided under written license and may be
 used, copied, transmitted, or stored only in accord with that
 written license.
  
 The following legend is applicable only to US Government
 contracts under FAR:
  
                    RESTRICTED RIGHTS LEGEND
  
 Use, reproduction and disclosure by the US Government is
 subject to restrictions as set forth in subparagraphs (a)
 and (c) of the Commercial Computer Software - Restricted
 Rights clause in FAR 52.227-19.
  
 Gaussian, Inc.
 340 Quinnipiac St., Bldg. 40, Wallingford CT 06492
  
  
 ---------------------------------------------------------------
 Warning -- This program may not be used in any manner that
 competes with the business of Gaussian, Inc. or will provide
 assistance to any competitor of Gaussian, Inc.  The licensee
 of this program is prohibited from giving any competitor of
 Gaussian, Inc. access to this program.  By using this program,
 the user acknowledges that Gaussian, Inc. is engaged in the
 business of creating and licensing software in the field of
 computational chemistry and represents and warrants to the
 licensee that it is not a competitor of Gaussian, Inc. and that
 it will not use this program in any manner prohibited above.
 ---------------------------------------------------------------
  

 Cite this work as:
 Gaussian 16, Revision C.02,
 M. J. Frisch, G. W. Trucks, H. B. Schlegel, G. E. Scuseria, 
 M. A. Robb, J. R. Cheeseman, G. Scalmani, V. Barone, 
 G. A. Petersson, H. Nakatsuji, X. Li, M. Caricato, A. V. Marenich, 
 J. Bloino, B. G. Janesko, R. Gomperts, B. Mennucci, H. P. Hratchian, 
 J. V. Ortiz, A. F. Izmaylov, J. L. Sonnenberg, D. Williams-Young, 
 F. Ding, F. Lipparini, F. Egidi, J. Goings, B. Peng, A. Petrone, 
 T. Henderson, D. Ranasinghe, V. G. Zakrzewski, J. Gao, N. Rega, 
 G. Zheng, W. Liang, M. Hada, M. Ehara, K. Toyota, R. Fukuda, 
 J. Hasegawa, M. Ishida, T. Nakajima, Y. Honda, O. Kitao, H. Nakai, 
 T. Vreven, K. Throssell, J. A. Montgomery, Jr., J. E. Peralta, 
 F. Ogliaro, M. J. Bearpark, J. J. Heyd, E. N. Brothers, K. N. Kudin, 
 V. N. Staroverov, T. A. Keith, R. Kobayashi, J. Normand, 
 K. Raghavachari, A. P. Rendell, J. C. Burant, S. S. Iyengar, 
 J. Tomasi, M. Cossi, J. M. Millam, M. Klene, C. Adamo, R. Cammi, 
 J. W. Ochterski, R. L. Martin, K. Morokuma, O. Farkas, 
 J. B. Foresman, and D. J. Fox, Gaussian, Inc., Wallingford CT, 2019.
 
 ******************************************
 Gaussian 16:  ES64L-G16RevC.02  7-Dec-2021
                30-Jun-2023 
 ******************************************
 %mem=8GB
 %NPROCS=4
 Will use up to    4 processors via shared memory.
 %NoSave
 ---------------------------------------------------------
 #MP2/6-31G* SCF=Tight Opt=(ModRedun, MaxCycle=20 ) NoSymm
 ---------------------------------------------------------
 1/6=20,18=120,19=15,38=1/1,3;
 2/9=110,12=2,15=1,17=6,18=5,40=1/2;
 3/5=1,6=6,7=1,11=9,25=1,30=1,71=1/1,2,3;
 4//1;
 5/5=2,32=2,38=5/2;
 8/6=4,10=2/1;
 9/15=2,16=-3/6;
 10/5=1,31=1/2;
 6/7=2,8=2,9=2,10=2/1;
 7/12=2,30=1/1,2,3,16;
 1/6=20,18=20,19=15/3(2);
 2/9=110,15=1/2;
 99//99;
 2/9=110,15=1/2;
 3/5=1,6=6,7=1,11=9,25=1,30=1,71=1/1,2,3;
 4/5=5,16=3,69=1/1;
 5/5=2,32=2,38=5/2;
 8/6=4,10=2/1;
 9/15=2,16=-3/6;
 10/5=1,31=1/2;
 7/12=2,30=1/1,2,3,16;
 1/6=20,18=20,19=15/3(-8);
 2/9=110,15=1/2;
 6/7=2,8=2,9=2,10=2/1;
 99/9=10/99;
 --------
 MolName:
 --------
 Symbolic Z-matrix:
 Charge =  0 Multiplicity = 1
 8                    0    -3.63053  -1.29429  -0.60593 
 7                    0    -3.19623  -0.15323  -0.45907 
 8                    0    -3.87307   0.85905  -0.64552 
 6                    0    -1.72542   0.00733  -0.05911 
 6                    0    -1.33088   1.30761   0.27791 
 7                    0    -0.08144   1.69397   0.67465 
 6                    0     1.20298   0.9649    0.49162 
 1                    0     1.93714   1.47601   1.16795 
 6                    0     1.81144   1.03577  -0.93104 
 6                    0     3.24956   0.48456  -0.89933 
 6                    0     3.2863   -0.93258  -0.3052 
 6                    0     2.58489  -0.98548   1.06945 
 6                    0     1.11714  -0.48466   0.97976 
 1                    0     0.67565  -0.53024   2.00306 
 7                    0     0.37699  -1.38577   0.09433 
 6                    0    -0.89743  -1.23531  -0.06816 
 1                    0    -2.08435   2.11126   0.23125 
 1                    0     0.15054   2.68691   0.75535 
 1                    0     1.19468   0.44362  -1.64029 
 1                    0     1.8295    2.08761  -1.28737 
 1                    0     3.67399   0.47304  -1.9271 
 1                    0     3.88342   1.15235  -0.27422 
 1                    0     2.77485  -1.63194  -1.0046 
 1                    0     4.33993  -1.27249  -0.20308 
 1                    0     2.59307  -2.0323    1.44467 
 1                    0     3.1468   -0.36179   1.79584 
 1                    0    -1.44851  -2.12089  -0.41781 
 
 The following ModRedundant input section has been read:
 D       2       4      16      15 F                                           
 D       1       2       4      16 F                                           
 D       7      13      15      16 F                                           
 D       7       9      10      11 F                                           
 D       9      10      11      12 F                                           
 D       6       7      13      15 F                                           
 

 GradGradGradGradGradGradGradGradGradGradGradGradGradGradGradGradGradGrad
 Berny optimization.
 Initialization pass.
                           ----------------------------
                           !    Initial Parameters    !
                           ! (Angstroms and Degrees)  !
 --------------------------                            --------------------------
 ! Name  Definition              Value          Derivative Info.                !
 --------------------------------------------------------------------------------
 ! R1    R(1,2)                  1.2297         estimate D2E/DX2                !
 ! R2    R(2,3)                  1.2319         estimate D2E/DX2                !
 ! R3    R(2,4)                  1.5327         estimate D2E/DX2                !
 ! R4    R(4,5)                  1.4            estimate D2E/DX2                !
 ! R5    R(4,16)                 1.4933         estimate D2E/DX2                !
 ! R6    R(5,6)                  1.3667         estimate D2E/DX2                !
 ! R7    R(5,17)                 1.1026         estimate D2E/DX2                !
 ! R8    R(6,7)                  1.4882         estimate D2E/DX2                !
 ! R9    R(6,18)                 1.0229         estimate D2E/DX2                !
 ! R10   R(7,8)                  1.1214         estimate D2E/DX2                !
 ! R11   R(7,9)                  1.5489         estimate D2E/DX2                !
 ! R12   R(7,13)                 1.532          estimate D2E/DX2                !
 ! R13   R(9,10)                 1.5405         estimate D2E/DX2                !
 ! R14   R(9,19)                 1.1109         estimate D2E/DX2                !
 ! R15   R(9,20)                 1.1107         estimate D2E/DX2                !
 ! R16   R(10,11)                1.5371         estimate D2E/DX2                !
 ! R17   R(10,21)                1.112          estimate D2E/DX2                !
 ! R18   R(10,22)                1.1129         estimate D2E/DX2                !
 ! R19   R(11,12)                1.5442         estimate D2E/DX2                !
 ! R20   R(11,23)                1.1135         estimate D2E/DX2                !
 ! R21   R(11,24)                1.1118         estimate D2E/DX2                !
 ! R22   R(12,13)                1.5534         estimate D2E/DX2                !
 ! R23   R(12,25)                1.1121         estimate D2E/DX2                !
 ! R24   R(12,26)                1.1101         estimate D2E/DX2                !
 ! R25   R(13,14)                1.1154         estimate D2E/DX2                !
 ! R26   R(13,15)                1.4642         estimate D2E/DX2                !
 ! R27   R(15,16)                1.2935         estimate D2E/DX2                !
 ! R28   R(16,27)                1.1001         estimate D2E/DX2                !
 ! A1    A(1,2,3)              123.3918         estimate D2E/DX2                !
 ! A2    A(1,2,4)              117.8587         estimate D2E/DX2                !
 ! A3    A(3,2,4)              118.7291         estimate D2E/DX2                !
 ! A4    A(2,4,5)              115.5033         estimate D2E/DX2                !
 ! A5    A(2,4,16)             116.3181         estimate D2E/DX2                !
 ! A6    A(5,4,16)             128.1773         estimate D2E/DX2                !
 ! A7    A(4,5,6)              126.1637         estimate D2E/DX2                !
 ! A8    A(4,5,17)             118.3062         estimate D2E/DX2                !
 ! A9    A(6,5,17)             115.5292         estimate D2E/DX2                !
 ! A10   A(5,6,7)              127.9399         estimate D2E/DX2                !
 ! A11   A(5,6,18)             120.3098         estimate D2E/DX2                !
 ! A12   A(7,6,18)             106.8297         estimate D2E/DX2                !
 ! A13   A(6,7,8)              105.5192         estimate D2E/DX2                !
 ! A14   A(6,7,9)              115.4407         estimate D2E/DX2                !
 ! A15   A(6,7,13)             112.0862         estimate D2E/DX2                !
 ! A16   A(8,7,9)              106.0158         estimate D2E/DX2                !
 ! A17   A(8,7,13)             106.0075         estimate D2E/DX2                !
 ! A18   A(9,7,13)             110.9754         estimate D2E/DX2                !
 ! A19   A(7,9,10)             109.3567         estimate D2E/DX2                !
 ! A20   A(7,9,19)             110.1159         estimate D2E/DX2                !
 ! A21   A(7,9,20)             110.1437         estimate D2E/DX2                !
 ! A22   A(10,9,19)            109.9207         estimate D2E/DX2                !
 ! A23   A(10,9,20)            109.2859         estimate D2E/DX2                !
 ! A24   A(19,9,20)            107.9987         estimate D2E/DX2                !
 ! A25   A(9,10,11)            111.1106         estimate D2E/DX2                !
 ! A26   A(9,10,21)            109.9378         estimate D2E/DX2                !
 ! A27   A(9,10,22)            109.1826         estimate D2E/DX2                !
 ! A28   A(11,10,21)           109.7899         estimate D2E/DX2                !
 ! A29   A(11,10,22)           108.8144         estimate D2E/DX2                !
 ! A30   A(21,10,22)           107.9374         estimate D2E/DX2                !
 ! A31   A(10,11,12)           111.3969         estimate D2E/DX2                !
 ! A32   A(10,11,23)           108.9841         estimate D2E/DX2                !
 ! A33   A(10,11,24)           109.8785         estimate D2E/DX2                !
 ! A34   A(12,11,23)           109.2086         estimate D2E/DX2                !
 ! A35   A(12,11,24)           109.7688         estimate D2E/DX2                !
 ! A36   A(23,11,24)           107.5154         estimate D2E/DX2                !
 ! A37   A(11,12,13)           111.5145         estimate D2E/DX2                !
 ! A38   A(11,12,25)           109.2248         estimate D2E/DX2                !
 ! A39   A(11,12,26)           109.4714         estimate D2E/DX2                !
 ! A40   A(13,12,25)           109.2634         estimate D2E/DX2                !
 ! A41   A(13,12,26)           109.5665         estimate D2E/DX2                !
 ! A42   A(25,12,26)           107.7195         estimate D2E/DX2                !
 ! A43   A(7,13,12)            105.6947         estimate D2E/DX2                !
 ! A44   A(7,13,14)            110.6814         estimate D2E/DX2                !
 ! A45   A(7,13,15)            114.7067         estimate D2E/DX2                !
 ! A46   A(12,13,14)           107.9288         estimate D2E/DX2                !
 ! A47   A(12,13,15)           108.308          estimate D2E/DX2                !
 ! A48   A(14,13,15)           109.242          estimate D2E/DX2                !
 ! A49   A(13,15,16)           120.1604         estimate D2E/DX2                !
 ! A50   A(4,16,15)            129.9663         estimate D2E/DX2                !
 ! A51   A(4,16,27)            113.2076         estimate D2E/DX2                !
 ! A52   A(15,16,27)           116.0933         estimate D2E/DX2                !
 ! D1    D(1,2,4,5)           -171.3584         estimate D2E/DX2                !
 ! D2    D(1,2,4,16)             8.2582         Frozen                          !
 ! D3    D(3,2,4,5)             10.2269         estimate D2E/DX2                !
 ! D4    D(3,2,4,16)          -170.1565         estimate D2E/DX2                !
 ! D5    D(2,4,5,6)            179.4397         estimate D2E/DX2                !
 ! D6    D(2,4,5,17)            -0.2057         estimate D2E/DX2                !
 ! D7    D(16,4,5,6)            -0.1232         estimate D2E/DX2                !
 ! D8    D(16,4,5,17)         -179.7686         estimate D2E/DX2                !
 ! D9    D(2,4,16,15)          172.6229         Frozen                          !
 ! D10   D(2,4,16,27)            2.9677         estimate D2E/DX2                !
 ! D11   D(5,4,16,15)           -7.8173         estimate D2E/DX2                !
 ! D12   D(5,4,16,27)         -177.4724         estimate D2E/DX2                !
 ! D13   D(4,5,6,7)             18.3887         estimate D2E/DX2                !
 ! D14   D(4,5,6,18)           170.1498         estimate D2E/DX2                !
 ! D15   D(17,5,6,7)          -161.9573         estimate D2E/DX2                !
 ! D16   D(17,5,6,18)          -10.1962         estimate D2E/DX2                !
 ! D17   D(5,6,7,8)           -166.183          estimate D2E/DX2                !
 ! D18   D(5,6,7,9)             77.1255         estimate D2E/DX2                !
 ! D19   D(5,6,7,13)           -51.2512         estimate D2E/DX2                !
 ! D20   D(18,6,7,8)            39.0786         estimate D2E/DX2                !
 ! D21   D(18,6,7,9)           -77.6129         estimate D2E/DX2                !
 ! D22   D(18,6,7,13)          154.0104         estimate D2E/DX2                !
 ! D23   D(6,7,9,10)           168.92           estimate D2E/DX2                !
 ! D24   D(6,7,9,19)           -70.1985         estimate D2E/DX2                !
 ! D25   D(6,7,9,20)            48.8047         estimate D2E/DX2                !
 ! D26   D(8,7,9,10)            52.5092         estimate D2E/DX2                !
 ! D27   D(8,7,9,19)           173.3906         estimate D2E/DX2                !
 ! D28   D(8,7,9,20)           -67.6061         estimate D2E/DX2                !
 ! D29   D(13,7,9,10)          -62.1553         estimate D2E/DX2                !
 ! D30   D(13,7,9,19)           58.7262         estimate D2E/DX2                !
 ! D31   D(13,7,9,20)          177.7294         estimate D2E/DX2                !
 ! D32   D(6,7,13,12)         -165.7398         estimate D2E/DX2                !
 ! D33   D(6,7,13,14)          -49.1337         estimate D2E/DX2                !
 ! D34   D(6,7,13,15)           75.0215         Frozen                          !
 ! D35   D(8,7,13,12)          -51.1066         estimate D2E/DX2                !
 ! D36   D(8,7,13,14)           65.4995         estimate D2E/DX2                !
 ! D37   D(8,7,13,15)         -170.3452         estimate D2E/DX2                !
 ! D38   D(9,7,13,12)           63.5631         estimate D2E/DX2                !
 ! D39   D(9,7,13,14)         -179.8308         estimate D2E/DX2                !
 ! D40   D(9,7,13,15)          -55.6755         estimate D2E/DX2                !
 ! D41   D(7,9,10,11)           54.8126         Frozen                          !
 ! D42   D(7,9,10,21)          176.5561         estimate D2E/DX2                !
 ! D43   D(7,9,10,22)          -65.2101         estimate D2E/DX2                !
 ! D44   D(19,9,10,11)         -66.1875         estimate D2E/DX2                !
 ! D45   D(19,9,10,21)          55.556          estimate D2E/DX2                !
 ! D46   D(19,9,10,22)         173.7897         estimate D2E/DX2                !
 ! D47   D(20,9,10,11)         175.4524         estimate D2E/DX2                !
 ! D48   D(20,9,10,21)         -62.8041         estimate D2E/DX2                !
 ! D49   D(20,9,10,22)          55.4296         estimate D2E/DX2                !
 ! D50   D(9,10,11,12)         -52.8228         Frozen                          !
 ! D51   D(9,10,11,23)          67.7403         estimate D2E/DX2                !
 ! D52   D(9,10,11,24)        -174.6902         estimate D2E/DX2                !
 ! D53   D(21,10,11,12)       -174.6525         estimate D2E/DX2                !
 ! D54   D(21,10,11,23)        -54.0894         estimate D2E/DX2                !
 ! D55   D(21,10,11,24)         63.4801         estimate D2E/DX2                !
 ! D56   D(22,10,11,12)         67.4183         estimate D2E/DX2                !
 ! D57   D(22,10,11,23)       -172.0185         estimate D2E/DX2                !
 ! D58   D(22,10,11,24)        -54.449          estimate D2E/DX2                !
 ! D59   D(10,11,12,13)         56.6708         estimate D2E/DX2                !
 ! D60   D(10,11,12,25)        177.5367         estimate D2E/DX2                !
 ! D61   D(10,11,12,26)        -64.7414         estimate D2E/DX2                !
 ! D62   D(23,11,12,13)        -63.7603         estimate D2E/DX2                !
 ! D63   D(23,11,12,25)         57.1056         estimate D2E/DX2                !
 ! D64   D(23,11,12,26)        174.8275         estimate D2E/DX2                !
 ! D65   D(24,11,12,13)        178.6017         estimate D2E/DX2                !
 ! D66   D(24,11,12,25)        -60.5324         estimate D2E/DX2                !
 ! D67   D(24,11,12,26)         57.1895         estimate D2E/DX2                !
 ! D68   D(11,12,13,7)         -60.522          estimate D2E/DX2                !
 ! D69   D(11,12,13,14)       -178.9781         estimate D2E/DX2                !
 ! D70   D(11,12,13,15)         62.8642         estimate D2E/DX2                !
 ! D71   D(25,12,13,7)         178.6346         estimate D2E/DX2                !
 ! D72   D(25,12,13,14)         60.1785         estimate D2E/DX2                !
 ! D73   D(25,12,13,15)        -57.9791         estimate D2E/DX2                !
 ! D74   D(26,12,13,7)          60.835          estimate D2E/DX2                !
 ! D75   D(26,12,13,14)        -57.6211         estimate D2E/DX2                !
 ! D76   D(26,12,13,15)       -175.7788         estimate D2E/DX2                !
 ! D77   D(7,13,15,16)         -67.1605         Frozen                          !
 ! D78   D(12,13,15,16)        175.0725         estimate D2E/DX2                !
 ! D79   D(14,13,15,16)         57.7546         estimate D2E/DX2                !
 ! D80   D(13,15,16,4)          32.6038         estimate D2E/DX2                !
 ! D81   D(13,15,16,27)       -157.9858         estimate D2E/DX2                !
 --------------------------------------------------------------------------------
 Trust Radius=3.00D-01 FncErr=1.00D-07 GrdErr=1.00D-07 EigMax=2.50D+02 EigMin=1.00D-04
 Number of steps in this run=     20 maximum allowed number of steps=    162.
 GradGradGradGradGradGradGradGradGradGradGradGradGradGradGradGradGradGrad

                          Input orientation:                          
 ---------------------------------------------------------------------
 Center     Atomic      Atomic             Coordinates (Angstroms)
 Number     Number       Type             X           Y           Z
 ---------------------------------------------------------------------
      1          8           0       -3.630530   -1.294290   -0.605930
      2          7           0       -3.196230   -0.153230   -0.459070
      3          8           0       -3.873070    0.859050   -0.645520
      4          6           0       -1.725420    0.007330   -0.059110
      5          6           0       -1.330880    1.307610    0.277910
      6          7           0       -0.081440    1.693970    0.674650
      7          6           0        1.202980    0.964900    0.491620
      8          1           0        1.937140    1.476010    1.167950
      9          6           0        1.811440    1.035770   -0.931040
     10          6           0        3.249560    0.484560   -0.899330
     11          6           0        3.286300   -0.932580   -0.305200
     12          6           0        2.584890   -0.985480    1.069450
     13          6           0        1.117140   -0.484660    0.979760
     14          1           0        0.675650   -0.530240    2.003060
     15          7           0        0.376990   -1.385770    0.094330
     16          6           0       -0.897430   -1.235310   -0.068160
     17          1           0       -2.084350    2.111260    0.231250
     18          1           0        0.150540    2.686910    0.755350
     19          1           0        1.194680    0.443620   -1.640290
     20          1           0        1.829500    2.087610   -1.287370
     21          1           0        3.673990    0.473040   -1.927100
     22          1           0        3.883420    1.152350   -0.274220
     23          1           0        2.774850   -1.631940   -1.004600
     24          1           0        4.339930   -1.272490   -0.203080
     25          1           0        2.593070   -2.032300    1.444670
     26          1           0        3.146800   -0.361790    1.795840
     27          1           0       -1.448510   -2.120890   -0.417810
 ---------------------------------------------------------------------
                    Distance matrix (angstroms):
                    1          2          3          4          5
     1  O    0.000000
     2  N    1.229716   0.000000
     3  O    2.167318   1.231904   0.000000
     4  C    2.371217   1.532654   2.383633   0.000000
     5  C    3.583217   2.481275   2.741653   1.399990   0.000000
     6  N    4.813068   3.794652   4.100780   2.466947   1.366666
     7  C    5.447144   4.637572   5.202939   3.129820   2.565847
     8  H    6.466851   5.626109   6.117831   4.132438   3.391236
     9  C    5.928736   5.168485   5.694419   3.785146   3.377815
    10  C    7.112386   6.492212   7.136983   5.067953   4.800389
    11  C    6.932807   6.531023   7.387986   5.105030   5.164961
    12  C    6.444665   6.037414   6.931714   4.564876   4.606306
    13  C    5.070531   4.559083   5.417498   3.066179   3.114101
    14  H    5.092523   4.603876   5.443892   3.210399   3.221800
    15  N    4.069269   3.820119   4.863086   2.526737   3.194498
    16  C    2.786128   2.570640   3.684308   1.493253   2.602707
    17  H    3.832664   2.615480   2.352929   2.153987   1.102609
    18  H    5.656812   4.554347   4.636049   3.370863   2.079669
    19  H    5.231910   4.586022   5.181143   3.349248   3.287008
    20  H    6.458602   5.564657   5.868614   4.298098   3.611994
    21  H    7.630528   7.053173   7.664827   5.732356   5.532386
    22  H    7.909205   7.201399   7.770909   5.728563   5.245749
    23  H    6.426651   6.175596   7.108362   4.881966   5.209876
    24  H    7.980664   7.623121   8.496622   6.200576   6.248708
    25  H    6.594150   6.377392   7.385104   5.007075   5.283343
    26  H    7.250535   6.735143   7.531883   5.226434   5.014043
    27  H    2.340912   2.632093   3.848426   2.175929   3.500354
                    6          7          8          9         10
     6  N    0.000000
     7  C    1.488213   0.000000
     8  H    2.089382   1.121448   0.000000
     9  C    2.567969   1.548938   2.148341   0.000000
    10  C    3.877583   2.520706   2.641792   1.540463   0.000000
    11  C    4.381842   2.928408   3.129171   2.537970   1.537084
    12  C    3.800610   2.459176   2.547198   2.947140   2.545368
    13  C    2.505218   1.531951   2.133552   2.538684   3.002929
    14  H    2.699068   2.190427   2.512729   3.514449   4.009825
    15  N    3.167290   2.523043   3.431692   2.995478   3.568915
    16  C    3.130222   3.092895   4.112665   3.638728   4.565777
    17  H    2.093414   3.491199   4.177718   4.205327   5.689900
    18  H    1.022867   2.035314   2.197375   2.885960   4.146352
    19  H    2.924176   2.194731   3.082740   1.110887   2.184772
    20  H    2.766978   2.194951   2.532634   1.110705   2.176445
    21  H    4.728956   3.492567   3.688080   2.185839   1.112018
    22  H    4.112642   2.793995   2.443894   2.176719   1.112872
    23  H    4.694673   3.384232   3.883437   2.837296   2.171636
    24  H    5.396185   3.915224   3.899663   3.500179   2.181948
    25  H    4.650916   3.438584   3.579812   3.958282   3.501414
    26  H    3.988076   2.690638   2.288019   3.342489   2.826802
    27  H    4.197083   4.168880   5.187962   4.566747   5.393709
                   11         12         13         14         15
    11  C    0.000000
    12  C    1.544162   0.000000
    13  C    2.560666   1.553433   0.000000
    14  H    3.507910   2.173492   1.115407   0.000000
    15  N    2.971378   2.446613   1.464175   2.112908   0.000000
    16  C    4.201361   3.671937   2.391674   2.694746   1.293518
    17  H    6.196501   5.665173   4.189106   4.211227   4.278570
    18  H    4.904943   4.417145   3.323181   3.490355   4.132185
    19  H    2.837475   3.364179   2.780715   3.806809   2.650319
    20  H    3.494062   3.945769   3.501986   4.360211   4.010393
    21  H    2.180970   3.506099   3.988045   5.044083   4.290870
    22  H    2.168973   2.839357   3.450300   4.278657   4.344299
    23  H    1.113484   2.180752   2.828770   3.829674   2.649147
    24  H    1.111802   2.186749   3.522238   4.341076   3.975698
    25  H    2.179908   1.112065   2.188538   2.498896   2.674403
    26  H    2.181658   1.110124   2.191028   2.485538   3.408155
    27  H    4.882949   4.446281   3.348583   3.592052   2.033504
                   16         17         18         19         20
    16  C    0.000000
    17  H    3.563419   0.000000
    18  H    4.142490   2.366598   0.000000
    19  H    3.109232   4.127435   3.444077   0.000000
    20  H    4.468156   4.198212   2.711231   1.797290   0.000000
    21  H    5.222260   6.364018   4.950905   2.496018   2.533423
    22  H    5.347888   6.065417   4.165247   3.098027   2.473817
    23  H    3.810495   6.257052   5.351345   2.684956   3.848207
    24  H    5.239229   7.273911   5.843494   3.860467   4.332230
    25  H    3.886829   6.365511   5.358363   4.195552   5.002074
    26  H    4.537987   5.994068   4.399405   4.033168   4.152231
    27  H    1.100089   4.328587   5.200789   3.880415   5.404901
                   21         22         23         24         25
    21  H    0.000000
    22  H    1.799260   0.000000
    23  H    2.467874   3.084583   0.000000
    24  H    2.542164   2.468463   1.794746   0.000000
    25  H    4.337505   3.842080   2.488424   2.518712   0.000000
    26  H    3.851643   2.668404   3.097433   2.499723   1.794587
    27  H    5.936871   6.258130   4.291872   5.854223   4.450960
                   26         27
    26  H    0.000000
    27  H    5.395512   0.000000
 Symmetry turned off by external request.
 Stoichiometry    C9H13N3O2
 Framework group  C1[X(C9H13N3O2)]
 Deg. of freedom    75
 Full point group                 C1      NOp   1
 Rotational constants (GHZ):           1.5912493           0.4049448           0.3634254
 Standard basis: 6-31G(d) (6D, 7F)
   236 basis functions,   444 primitive gaussians,   236 cartesian basis functions
    52 alpha electrons       52 beta electrons
       nuclear repulsion energy       917.9166841450 Hartrees.
 NAtoms=   27 NActive=   27 NUniq=   27 SFac= 1.00D+00 NAtFMM=   60 NAOKFM=F Big=F
 Integral buffers will be    131072 words long.
 Raffenetti 1 integral format.
 Two-electron integral symmetry is turned off.
 One-electron integrals computed using PRISM.
 NBasis=   236 RedAO= T EigKep=  1.27D-03  NBF=   236
 NBsUse=   236 1.00D-06 EigRej= -1.00D+00 NBFU=   236
 ExpMin= 1.61D-01 ExpMax= 5.48D+03 ExpMxC= 8.25D+02 IAcc=3 IRadAn=         5 AccDes= 0.00D+00
 Harris functional with IExCor=  205 and IRadAn=       5 diagonalized for initial guess.
 HarFok:  IExCor=  205 AccDes= 0.00D+00 IRadAn=         5 IDoV= 1 UseB2=F ITyADJ=14
 ICtDFT=  3500011 ScaDFX=  1.000000  1.000000  1.000000  1.000000
 FoFCou: FMM=F IPFlag=           0 FMFlag=      100000 FMFlg1=           0
         NFxFlg=           0 DoJE=T BraDBF=F KetDBF=T FulRan=T
         wScrn=  0.000000 ICntrl=       500 IOpCl=  0 I1Cent=   200000004 NGrid=           0
         NMat0=    1 NMatS0=      1 NMatT0=    0 NMatD0=    1 NMtDS0=    0 NMtDT0=    0
 Symmetry not used in FoFCou.
 Keep R1 ints in memory in canonical form, NReq=397720213.
 Requested convergence on RMS density matrix=1.00D-08 within 128 cycles.
 Requested convergence on MAX density matrix=1.00D-06.
 Requested convergence on             energy=1.00D-06.
 No special actions if energy rises.
 SCF Done:  E(RHF) =  -661.273957637     A.U. after   16 cycles
            NFock= 16  Conv=0.73D-08     -V/T= 2.0036
 ExpMin= 1.61D-01 ExpMax= 5.48D+03 ExpMxC= 8.25D+02 IAcc=3 IRadAn=         5 AccDes= 0.00D+00
 HarFok:  IExCor=  205 AccDes= 0.00D+00 IRadAn=         5 IDoV=-2 UseB2=F ITyADJ=14
 ICtDFT= 12500011 ScaDFX=  1.000000  1.000000  1.000000  1.000000
 Range of M.O.s used for correlation:    15   236
 NBasis=   236 NAE=    52 NBE=    52 NFC=    14 NFV=     0
 NROrb=    222 NOA=    38 NOB=    38 NVA=   184 NVB=   184
 Fully direct method using O(ONN) memory.
 JobTyp=1 Pass  1:  I=  15 to  52 NPSUse=  4 ParTrn=T ParDer=T DoDerP=T.
 Spin components of T(2) and E(2):
     alpha-alpha T2 =       0.9218027780D-01 E2=     -0.2720244278D+00
     alpha-beta  T2 =       0.4999219150D+00 E2=     -0.1493950519D+01
     beta-beta   T2 =       0.9218027780D-01 E2=     -0.2720244278D+00
 ANorm=    0.1297799087D+01
 E2 =    -0.2037999375D+01 EUMP2 =    -0.66331195701116D+03
          IDoAtm=111111111111111111111111111
          Differentiating once with respect to electric field.
                with respect to dipole field.
          Differentiating once with respect to nuclear coordinates.
 Keep R1 ints in memory in canonical form, NReq=397723379.
          There are     1 degrees of freedom in the 1st order CPHF.  IDoFFX=0 NUNeed=     1.
 LinEq1:  Iter=  0 NonCon=     1 RMS=4.68D-03 Max=1.31D-01 NDo=     1
 AX will form     1 AO Fock derivatives at one time.
 LinEq1:  Iter=  1 NonCon=     1 RMS=1.60D-03 Max=5.25D-02 NDo=     1
 LinEq1:  Iter=  2 NonCon=     1 RMS=6.59D-04 Max=2.14D-02 NDo=     1
 LinEq1:  Iter=  3 NonCon=     1 RMS=3.01D-04 Max=9.86D-03 NDo=     1
 LinEq1:  Iter=  4 NonCon=     1 RMS=9.59D-05 Max=2.70D-03 NDo=     1
 LinEq1:  Iter=  5 NonCon=     1 RMS=3.97D-05 Max=1.79D-03 NDo=     1
 LinEq1:  Iter=  6 NonCon=     1 RMS=1.64D-05 Max=5.35D-04 NDo=     1
 LinEq1:  Iter=  7 NonCon=     1 RMS=6.23D-06 Max=7.52D-05 NDo=     1
 LinEq1:  Iter=  8 NonCon=     1 RMS=2.47D-06 Max=5.31D-05 NDo=     1
 LinEq1:  Iter=  9 NonCon=     1 RMS=9.27D-07 Max=2.74D-05 NDo=     1
 LinEq1:  Iter= 10 NonCon=     1 RMS=4.35D-07 Max=1.24D-05 NDo=     1
 LinEq1:  Iter= 11 NonCon=     1 RMS=1.68D-07 Max=5.31D-06 NDo=     1
 LinEq1:  Iter= 12 NonCon=     1 RMS=6.02D-08 Max=1.13D-06 NDo=     1
 LinEq1:  Iter= 13 NonCon=     1 RMS=1.93D-08 Max=4.48D-07 NDo=     1
 LinEq1:  Iter= 14 NonCon=     1 RMS=6.17D-09 Max=1.79D-07 NDo=     1
 LinEq1:  Iter= 15 NonCon=     1 RMS=2.24D-09 Max=6.73D-08 NDo=     1
 LinEq1:  Iter= 16 NonCon=     1 RMS=7.85D-10 Max=1.28D-08 NDo=     1
 LinEq1:  Iter= 17 NonCon=     1 RMS=2.64D-10 Max=5.58D-09 NDo=     1
 LinEq1:  Iter= 18 NonCon=     1 RMS=9.39D-11 Max=1.48D-09 NDo=     1
 LinEq1:  Iter= 19 NonCon=     0 RMS=3.31D-11 Max=6.64D-10 NDo=     1
 Linear equations converged to 1.000D-10 1.000D-09 after    19 iterations.
 End of Minotr F.D. properties file   721 does not exist.
 End of Minotr F.D. properties file   722 does not exist.
 End of Minotr F.D. properties file   788 does not exist.

 **********************************************************************

            Population analysis using the SCF Density.

 **********************************************************************

 Alpha  occ. eigenvalues --  -20.59782 -20.59451 -15.85330 -15.63768 -15.55949
 Alpha  occ. eigenvalues --  -11.35981 -11.30559 -11.30223 -11.29940 -11.27511
 Alpha  occ. eigenvalues --  -11.24632 -11.23884 -11.23223 -11.22840  -1.58498
 Alpha  occ. eigenvalues --   -1.37968  -1.29057  -1.22365  -1.13254  -1.08412
 Alpha  occ. eigenvalues --   -1.01655  -1.00710  -0.93711  -0.88888  -0.84861
 Alpha  occ. eigenvalues --   -0.81505  -0.78006  -0.76991  -0.74373  -0.71257
 Alpha  occ. eigenvalues --   -0.70274  -0.69824  -0.67348  -0.63932  -0.63402
 Alpha  occ. eigenvalues --   -0.61915  -0.59703  -0.57412  -0.56465  -0.54769
 Alpha  occ. eigenvalues --   -0.54237  -0.50499  -0.49751  -0.48632  -0.47836
 Alpha  occ. eigenvalues --   -0.47781  -0.46458  -0.45239  -0.44063  -0.42244
 Alpha  occ. eigenvalues --   -0.38704  -0.33458
 Alpha virt. eigenvalues --    0.07204   0.11328   0.17216   0.21643   0.23825
 Alpha virt. eigenvalues --    0.24898   0.25809   0.27927   0.28587   0.28896
 Alpha virt. eigenvalues --    0.30253   0.31559   0.31787   0.32442   0.33146
 Alpha virt. eigenvalues --    0.33969   0.34711   0.35809   0.37659   0.39008
 Alpha virt. eigenvalues --    0.40273   0.41101   0.43801   0.45106   0.45306
 Alpha virt. eigenvalues --    0.47162   0.49864   0.53401   0.57676   0.59092
 Alpha virt. eigenvalues --    0.63161   0.68195   0.69546   0.72573   0.74048
 Alpha virt. eigenvalues --    0.74903   0.75719   0.76146   0.78096   0.78591
 Alpha virt. eigenvalues --    0.81069   0.82128   0.84476   0.84921   0.87825
 Alpha virt. eigenvalues --    0.88356   0.90766   0.92113   0.92653   0.93654
 Alpha virt. eigenvalues --    0.95130   0.97502   0.99240   1.01092   1.01944
 Alpha virt. eigenvalues --    1.03162   1.04983   1.05805   1.07111   1.08547
 Alpha virt. eigenvalues --    1.09899   1.10744   1.11760   1.12878   1.13008
 Alpha virt. eigenvalues --    1.13294   1.14484   1.15014   1.15778   1.16607
 Alpha virt. eigenvalues --    1.17743   1.19946   1.21289   1.22040   1.22945
 Alpha virt. eigenvalues --    1.23150   1.24969   1.25943   1.27231   1.28942
 Alpha virt. eigenvalues --    1.29274   1.31300   1.34537   1.36537   1.39029
 Alpha virt. eigenvalues --    1.41727   1.47363   1.52209   1.52599   1.53411
 Alpha virt. eigenvalues --    1.54354   1.58965   1.60675   1.64226   1.66168
 Alpha virt. eigenvalues --    1.66965   1.68184   1.71810   1.72989   1.76210
 Alpha virt. eigenvalues --    1.80123   1.82468   1.83600   1.86681   1.91397
 Alpha virt. eigenvalues --    1.93278   1.95964   1.98175   2.00040   2.00784
 Alpha virt. eigenvalues --    2.02620   2.03321   2.05509   2.09616   2.11447
 Alpha virt. eigenvalues --    2.11807   2.13084   2.16582   2.18143   2.19574
 Alpha virt. eigenvalues --    2.20552   2.22326   2.24244   2.24659   2.26066
 Alpha virt. eigenvalues --    2.28831   2.31943   2.32891   2.35201   2.37164
 Alpha virt. eigenvalues --    2.39481   2.42047   2.42837   2.44818   2.45570
 Alpha virt. eigenvalues --    2.48653   2.50763   2.51786   2.56223   2.57687
 Alpha virt. eigenvalues --    2.60360   2.63181   2.66972   2.67737   2.68411
 Alpha virt. eigenvalues --    2.69328   2.70668   2.73989   2.75011   2.81514
 Alpha virt. eigenvalues --    2.84661   2.86133   2.89719   2.91749   2.93792
 Alpha virt. eigenvalues --    2.97716   2.98005   3.02134   3.05622   3.07038
 Alpha virt. eigenvalues --    3.08563   3.14735   3.18838   3.22725   3.27272
 Alpha virt. eigenvalues --    3.31046   3.31569   3.38210   3.42074   3.60125
 Alpha virt. eigenvalues --    4.10382   4.22965   4.32303   4.36104   4.44461
 Alpha virt. eigenvalues --    4.51797   4.59471   4.59932   4.70471   4.78301
 Alpha virt. eigenvalues --    4.96257   4.99240   5.04891   5.08719
          Condensed to atoms (all electrons):
               1          2          3          4          5          6
     1  O    8.303243   0.308878  -0.090345  -0.076148   0.003506  -0.000011
     2  N    0.308878   5.678195   0.312780   0.264027  -0.048751   0.000716
     3  O   -0.090345   0.312780   8.327964  -0.088047   0.008032   0.000487
     4  C   -0.076148   0.264027  -0.088047   5.261717   0.562509  -0.052653
     5  C    0.003506  -0.048751   0.008032   0.562509   4.689220   0.317704
     6  N   -0.000011   0.000716   0.000487  -0.052653   0.317704   7.148689
     7  C    0.000001  -0.000103   0.000001   0.006597  -0.030043   0.207144
     8  H   -0.000000   0.000001  -0.000000  -0.000260   0.002987  -0.044974
     9  C    0.000000  -0.000006  -0.000000   0.000657   0.000344  -0.058383
    10  C   -0.000000   0.000000   0.000000  -0.000025  -0.000018   0.003337
    11  C   -0.000000  -0.000000  -0.000000  -0.000013   0.000007  -0.000148
    12  C    0.000000   0.000001  -0.000000  -0.000280  -0.000118   0.003933
    13  C   -0.000007   0.000028  -0.000000  -0.007434  -0.001204  -0.053910
    14  H    0.000000  -0.000023   0.000000   0.001573   0.002329  -0.004810
    15  N    0.000420   0.001423  -0.000008  -0.064714  -0.005100   0.002140
    16  C    0.000264  -0.020912   0.002095   0.308259  -0.044334   0.001746
    17  H    0.000156  -0.004493   0.012716  -0.024148   0.374669  -0.031819
    18  H    0.000000  -0.000032   0.000008   0.001795  -0.026707   0.332582
    19  H    0.000000  -0.000005  -0.000000  -0.000960   0.001382  -0.000551
    20  H    0.000000   0.000000   0.000000  -0.000034  -0.000054  -0.000245
    21  H   -0.000000  -0.000000  -0.000000   0.000001   0.000001  -0.000063
    22  H   -0.000000   0.000000  -0.000000  -0.000001  -0.000001  -0.000090
    23  H    0.000000  -0.000000   0.000000   0.000025  -0.000001  -0.000024
    24  H    0.000000   0.000000   0.000000  -0.000000  -0.000000   0.000005
    25  H    0.000000  -0.000000   0.000000   0.000025  -0.000001  -0.000077
    26  H    0.000000  -0.000000   0.000000   0.000004  -0.000001  -0.000080
    27  H    0.007132  -0.000123   0.000076  -0.068470   0.001978  -0.000026
               7          8          9         10         11         12
     1  O    0.000001  -0.000000   0.000000  -0.000000  -0.000000   0.000000
     2  N   -0.000103   0.000001  -0.000006   0.000000  -0.000000   0.000001
     3  O    0.000001  -0.000000  -0.000000   0.000000  -0.000000  -0.000000
     4  C    0.006597  -0.000260   0.000657  -0.000025  -0.000013  -0.000280
     5  C   -0.030043   0.002987   0.000344  -0.000018   0.000007  -0.000118
     6  N    0.207144  -0.044974  -0.058383   0.003337  -0.000148   0.003933
     7  C    5.059762   0.412371   0.342974  -0.048952  -0.008383  -0.064991
     8  H    0.412371   0.544023  -0.056336   0.000353  -0.000155  -0.003448
     9  C    0.342974  -0.056336   5.170804   0.320635  -0.053910  -0.005182
    10  C   -0.048952   0.000353   0.320635   5.126130   0.332449  -0.060866
    11  C   -0.008383  -0.000155  -0.053910   0.332449   5.125229   0.330363
    12  C   -0.064991  -0.003448  -0.005182  -0.060866   0.330363   5.144003
    13  C    0.308687  -0.037549  -0.055845  -0.000763  -0.046703   0.366278
    14  H   -0.043025  -0.000757   0.003747  -0.000384   0.003963  -0.041426
    15  N   -0.066172   0.004051  -0.010765   0.001104  -0.006904  -0.076141
    16  C    0.000031  -0.000219   0.000142  -0.000091  -0.000024   0.002767
    17  H    0.001486  -0.000056  -0.000027   0.000001  -0.000000   0.000001
    18  H   -0.030442  -0.004586   0.001219  -0.000111   0.000010  -0.000160
    19  H   -0.035401   0.003960   0.389297  -0.033810  -0.002085   0.000505
    20  H   -0.042051  -0.001816   0.397114  -0.036764   0.004124  -0.000392
    21  H    0.004100  -0.000062  -0.036035   0.400143  -0.035763   0.004249
    22  H   -0.004597   0.003560  -0.045484   0.395677  -0.045440  -0.001274
    23  H    0.000518   0.000036  -0.002057  -0.040348   0.396563  -0.036968
    24  H   -0.000149  -0.000108   0.004411  -0.038458   0.400460  -0.037594
    25  H    0.005276  -0.000022  -0.000399   0.004118  -0.033648   0.394520
    26  H   -0.004375   0.001443   0.001109  -0.002449  -0.042633   0.393661
    27  H   -0.000385   0.000008  -0.000038   0.000002   0.000007  -0.000023
              13         14         15         16         17         18
     1  O   -0.000007   0.000000   0.000420   0.000264   0.000156   0.000000
     2  N    0.000028  -0.000023   0.001423  -0.020912  -0.004493  -0.000032
     3  O   -0.000000   0.000000  -0.000008   0.002095   0.012716   0.000008
     4  C   -0.007434   0.001573  -0.064714   0.308259  -0.024148   0.001795
     5  C   -0.001204   0.002329  -0.005100  -0.044334   0.374669  -0.026707
     6  N   -0.053910  -0.004810   0.002140   0.001746  -0.031819   0.332582
     7  C    0.308687  -0.043025  -0.066172   0.000031   0.001486  -0.030442
     8  H   -0.037549  -0.000757   0.004051  -0.000219  -0.000056  -0.004586
     9  C   -0.055845   0.003747  -0.010765   0.000142  -0.000027   0.001219
    10  C   -0.000763  -0.000384   0.001104  -0.000091   0.000001  -0.000111
    11  C   -0.046703   0.003963  -0.006904  -0.000024  -0.000000   0.000010
    12  C    0.366278  -0.041426  -0.076141   0.002767   0.000001  -0.000160
    13  C    5.017849   0.411089   0.255023  -0.065398  -0.000092   0.004095
    14  H    0.411089   0.516421  -0.033123  -0.009048  -0.000001  -0.000021
    15  N    0.255023  -0.033123   6.968987   0.573455  -0.000065  -0.000128
    16  C   -0.065398  -0.009048   0.573455   4.717822   0.001340  -0.000168
    17  H   -0.000092  -0.000001  -0.000065   0.001340   0.380958  -0.002703
    18  H    0.004095  -0.000021  -0.000128  -0.000168  -0.002703   0.325797
    19  H   -0.005682   0.000056   0.006366   0.001395  -0.000000  -0.000130
    20  H    0.003972  -0.000054   0.000087  -0.000047  -0.000020   0.001810
    21  H   -0.000421   0.000009  -0.000034   0.000003  -0.000000   0.000001
    22  H    0.000333  -0.000041   0.000011  -0.000000   0.000000   0.000002
    23  H   -0.005994  -0.000001   0.006683   0.000082   0.000000   0.000000
    24  H    0.004151  -0.000062  -0.000005   0.000005   0.000000  -0.000000
    25  H   -0.034353  -0.002790   0.001667  -0.000067  -0.000000   0.000003
    26  H   -0.045123  -0.000918   0.004237  -0.000030   0.000000  -0.000001
    27  H    0.004642  -0.000126  -0.041641   0.404973  -0.000064   0.000000
              19         20         21         22         23         24
     1  O    0.000000   0.000000  -0.000000  -0.000000   0.000000   0.000000
     2  N   -0.000005   0.000000  -0.000000   0.000000  -0.000000   0.000000
     3  O   -0.000000   0.000000  -0.000000  -0.000000   0.000000   0.000000
     4  C   -0.000960  -0.000034   0.000001  -0.000001   0.000025  -0.000000
     5  C    0.001382  -0.000054   0.000001  -0.000001  -0.000001  -0.000000
     6  N   -0.000551  -0.000245  -0.000063  -0.000090  -0.000024   0.000005
     7  C   -0.035401  -0.042051   0.004100  -0.004597   0.000518  -0.000149
     8  H    0.003960  -0.001816  -0.000062   0.003560   0.000036  -0.000108
     9  C    0.389297   0.397114  -0.036035  -0.045484  -0.002057   0.004411
    10  C   -0.033810  -0.036764   0.400143   0.395677  -0.040348  -0.038458
    11  C   -0.002085   0.004124  -0.035763  -0.045440   0.396563   0.400460
    12  C    0.000505  -0.000392   0.004249  -0.001274  -0.036968  -0.037594
    13  C   -0.005682   0.003972  -0.000421   0.000333  -0.005994   0.004151
    14  H    0.000056  -0.000054   0.000009  -0.000041  -0.000001  -0.000062
    15  N    0.006366   0.000087  -0.000034   0.000011   0.006683  -0.000005
    16  C    0.001395  -0.000047   0.000003  -0.000000   0.000082   0.000005
    17  H   -0.000000  -0.000020  -0.000000   0.000000   0.000000   0.000000
    18  H   -0.000130   0.001810   0.000001   0.000002   0.000000  -0.000000
    19  H    0.505260  -0.023625  -0.002532   0.003765   0.001707  -0.000076
    20  H   -0.023625   0.545711  -0.002672  -0.002909  -0.000049  -0.000090
    21  H   -0.002532  -0.002672   0.525383  -0.024690  -0.002835  -0.002063
    22  H    0.003765  -0.002909  -0.024690   0.569487   0.004075  -0.003524
    23  H    0.001707  -0.000049  -0.002835   0.004075   0.511222  -0.024864
    24  H   -0.000076  -0.000090  -0.002063  -0.003524  -0.024864   0.540119
    25  H   -0.000028   0.000011  -0.000086  -0.000083  -0.002054  -0.002423
    26  H    0.000024  -0.000035  -0.000071   0.002452   0.003864  -0.002770
    27  H    0.000059   0.000000  -0.000000   0.000000  -0.000020  -0.000000
              25         26         27
     1  O    0.000000   0.000000   0.007132
     2  N   -0.000000  -0.000000  -0.000123
     3  O    0.000000   0.000000   0.000076
     4  C    0.000025   0.000004  -0.068470
     5  C   -0.000001  -0.000001   0.001978
     6  N   -0.000077  -0.000080  -0.000026
     7  C    0.005276  -0.004375  -0.000385
     8  H   -0.000022   0.001443   0.000008
     9  C   -0.000399   0.001109  -0.000038
    10  C    0.004118  -0.002449   0.000002
    11  C   -0.033648  -0.042633   0.000007
    12  C    0.394520   0.393661  -0.000023
    13  C   -0.034353  -0.045123   0.004642
    14  H   -0.002790  -0.000918  -0.000126
    15  N    0.001667   0.004237  -0.041641
    16  C   -0.000067  -0.000030   0.404973
    17  H   -0.000000   0.000000  -0.000064
    18  H    0.000003  -0.000001   0.000000
    19  H   -0.000028   0.000024   0.000059
    20  H    0.000011  -0.000035   0.000000
    21  H   -0.000086  -0.000071  -0.000000
    22  H   -0.000083   0.002452   0.000000
    23  H   -0.002054   0.003864  -0.000020
    24  H   -0.002423  -0.002770  -0.000000
    25  H    0.509794  -0.023262  -0.000019
    26  H   -0.023262   0.565947   0.000001
    27  H   -0.000019   0.000001   0.439276
 Mulliken charges:
               1
     1  O   -0.457090
     2  N    0.508402
     3  O   -0.485758
     4  C   -0.024003
     5  C    0.191667
     6  N   -0.770620
     7  C    0.030123
     8  H    0.177558
     9  C   -0.307985
    10  C   -0.320910
    11  C   -0.317366
    12  C   -0.311418
    13  C   -0.015666
    14  H    0.197424
    15  N   -0.520856
    16  C    0.125960
    17  H    0.292162
    18  H    0.397867
    19  H    0.191107
    20  H    0.158028
    21  H    0.173440
    22  H    0.148774
    23  H    0.190440
    24  H    0.163036
    25  H    0.183898
    26  H    0.149005
    27  H    0.252781
 Sum of Mulliken charges =  -0.00000
 Mulliken charges with hydrogens summed into heavy atoms:
               1
     1  O   -0.457090
     2  N    0.508402
     3  O   -0.485758
     4  C   -0.024003
     5  C    0.483829
     6  N   -0.372753
     7  C    0.207680
     9  C    0.041150
    10  C    0.001304
    11  C    0.036110
    12  C    0.021485
    13  C    0.181757
    15  N   -0.520856
    16  C    0.378742
 Electronic spatial extent (au):  <R**2>=           3095.0893
 Charge=             -0.0000 electrons
 Dipole moment (field-independent basis, Debye):
    X=              5.2520    Y=              4.4168    Z=              1.8785  Tot=              7.1148
 Quadrupole moment (field-independent basis, Debye-Ang):
   XX=           -104.1280   YY=            -79.7369   ZZ=            -83.3933
   XY=             -0.2702   XZ=             -4.3362   YZ=              1.4379
 Traceless Quadrupole moment (field-independent basis, Debye-Ang):
   XX=            -15.0419   YY=              9.3491   ZZ=              5.6928
   XY=             -0.2702   XZ=             -4.3362   YZ=              1.4379
 Octapole moment (field-independent basis, Debye-Ang**2):
  XXX=             90.1384  YYY=             32.3733  ZZZ=              4.3032  XYY=             -4.2960
  XXY=              6.1707  XXZ=             25.4190  XZZ=             -3.4406  YZZ=             -1.8559
  YYZ=              9.5909  XYZ=             -0.2752
 Hexadecapole moment (field-independent basis, Debye-Ang**3):
 XXXX=          -3417.6308 YYYY=           -616.6129 ZZZZ=           -347.2046 XXXY=              3.0310
 XXXZ=           -163.6296 YYYX=             18.2465 YYYZ=             28.6676 ZZZX=            -74.3061
 ZZZY=             10.0560 XXYY=           -639.2764 XXZZ=           -556.6629 YYZZ=           -172.6418
 XXYZ=              8.7439 YYXZ=            -27.6830 ZZXY=             10.7031
 N-N= 9.179166841450D+02 E-N=-3.381888905236D+03  KE= 6.588781793835D+02
 Calling FoFJK, ICntrl=  10002127 FMM=F ISym2X=0 I1Cent= 0 IOpClX= 0 NMat=1 NMatS=1 NMatT=0.
 -------------------------------------------------------------------
 Center     Atomic                   Forces (Hartrees/Bohr)
 Number     Number              X              Y              Z
 -------------------------------------------------------------------
      1        8          -0.000260305   -0.018846697    0.000665908
      2        7           0.038661347    0.007479765    0.009941311
      3        8          -0.002846668    0.016960124    0.000525768
      4        6          -0.003207504    0.003176758    0.013279256
      5        6           0.001597667   -0.013402091   -0.007290002
      6        7           0.017159313   -0.001464239   -0.010601218
      7        6          -0.002806619    0.006530775    0.006952978
      8        1          -0.012729258   -0.002010745   -0.006455422
      9        6          -0.004718128    0.001325374   -0.002192187
     10        6           0.002676719   -0.001451721    0.000635718
     11        6          -0.001361353   -0.004071179   -0.001623100
     12        6           0.000768530   -0.009536573   -0.002727978
     13        6           0.015196407    0.001003106   -0.004074107
     14        1           0.001039718    0.003014323   -0.012081431
     15        7          -0.000866927   -0.010261823    0.027976049
     16        6          -0.021039726    0.016072170   -0.022456347
     17        1           0.006394462   -0.008657856    0.001379730
     18        1          -0.018515607   -0.002786128   -0.000793456
     19        1           0.003418490    0.005706028    0.007130310
     20        1          -0.002833370   -0.007890886    0.003041562
     21        1          -0.003344597    0.002361394    0.009989508
     22        1          -0.004705045   -0.004050916   -0.006855142
     23        1           0.004702823    0.005883600    0.008559247
     24        1          -0.009689041    0.002217254   -0.001224073
     25        1          -0.001390402    0.010595112   -0.002532225
     26        1          -0.005002893   -0.004682873   -0.003824063
     27        1           0.003701968    0.006787944   -0.005346591
 -------------------------------------------------------------------
 Cartesian Forces:  Max     0.038661347 RMS     0.009592023

 GradGradGradGradGradGradGradGradGradGradGradGradGradGradGradGradGradGrad
 Berny optimization.
 FormGI is forming the generalized inverse of G from B-inverse, IUseBI=4.
 Internal  Forces:  Max     0.037610906 RMS     0.007050344
 Search for a local minimum.
 Step number   1 out of a maximum of   20
 All quantities printed in internal units (Hartrees-Bohrs-Radians)
 Mixed Optimization -- RFO/linear search
 Second derivative matrix not updated -- first step.
 ITU=  0
     Eigenvalues ---    0.00233   0.00779   0.01086   0.01171   0.01370
     Eigenvalues ---    0.01545   0.01603   0.01812   0.02063   0.02110
     Eigenvalues ---    0.02711   0.03664   0.04518   0.04687   0.04840
     Eigenvalues ---    0.05090   0.05138   0.05312   0.05873   0.06242
     Eigenvalues ---    0.07052   0.07669   0.07690   0.07816   0.07982
     Eigenvalues ---    0.08042   0.08045   0.10435   0.11326   0.11911
     Eigenvalues ---    0.12466   0.13958   0.14970   0.15898   0.16000
     Eigenvalues ---    0.20085   0.22259   0.23238   0.24999   0.25000
     Eigenvalues ---    0.25000   0.25432   0.26474   0.26654   0.27974
     Eigenvalues ---    0.28095   0.28543   0.29180   0.31417   0.32005
     Eigenvalues ---    0.32034   0.32234   0.32298   0.32382   0.32387
     Eigenvalues ---    0.32410   0.32506   0.32526   0.32587   0.33285
     Eigenvalues ---    0.33395   0.33672   0.35511   0.43884   0.44355
     Eigenvalues ---    0.50455   0.67119   0.90298   0.912051000.00000
     Eigenvalues --- 1000.000001000.000001000.000001000.000001000.00000
     Eigenvalues --- 1000.000001000.000001000.000001000.000001000.00000
     Eigenvalues --- 1000.000001000.000001000.000001000.000001000.00000
     Eigenvalues --- 1000.000001000.000001000.000001000.000001000.00000
     Eigenvalues --- 1000.000001000.000001000.000001000.000001000.00000
     Eigenvalues --- 1000.000001000.000001000.000001000.000001000.00000
     Eigenvalues --- 1000.000001000.000001000.000001000.000001000.00000
     Eigenvalues --- 1000.000001000.000001000.000001000.000001000.00000
     Eigenvalues --- 1000.000001000.000001000.000001000.000001000.00000
     Eigenvalues --- 1000.000001000.000001000.000001000.000001000.00000
     Eigenvalues --- 1000.000001000.000001000.000001000.000001000.00000
     Eigenvalues --- 1000.000001000.000001000.000001000.000001000.00000
     Eigenvalues --- 1000.000001000.000001000.000001000.000001000.00000
     Eigenvalues --- 1000.000001000.000001000.000001000.000001000.00000
     Eigenvalues --- 1000.000001000.000001000.000001000.000001000.00000
     Eigenvalues --- 1000.000001000.000001000.000001000.000001000.00000
     Eigenvalues --- 1000.000001000.000001000.000001000.000001000.00000
     Eigenvalues --- 1000.000001000.000001000.000001000.000001000.00000
     Eigenvalues --- 1000.00000
 RFO step:  Lambda=-2.68500908D-02 EMin= 2.32724910D-03
 Linear search not attempted -- first point.
 Iteration  1 RMS(Cart)=  0.06565697 RMS(Int)=  0.00183059
 Iteration  2 RMS(Cart)=  0.00220727 RMS(Int)=  0.00046328
 Iteration  3 RMS(Cart)=  0.00000400 RMS(Int)=  0.00046327
 Iteration  4 RMS(Cart)=  0.00000001 RMS(Int)=  0.00046327
 Iteration  1 RMS(Cart)=  0.00019756 RMS(Int)=  0.00010804
 Iteration  2 RMS(Cart)=  0.00012714 RMS(Int)=  0.00011965
 Iteration  3 RMS(Cart)=  0.00008280 RMS(Int)=  0.00013656
 Iteration  4 RMS(Cart)=  0.00005475 RMS(Int)=  0.00014991
 Iteration  5 RMS(Cart)=  0.00003691 RMS(Int)=  0.00015935
 Iteration  6 RMS(Cart)=  0.00002550 RMS(Int)=  0.00016587
 Iteration  7 RMS(Cart)=  0.00001813 RMS(Int)=  0.00017039
 Iteration  8 RMS(Cart)=  0.00001328 RMS(Int)=  0.00017357
 Iteration  9 RMS(Cart)=  0.00001002 RMS(Int)=  0.00017586
 Iteration 10 RMS(Cart)=  0.00000777 RMS(Int)=  0.00017756
 Iteration 11 RMS(Cart)=  0.00000616 RMS(Int)=  0.00017885
 Iteration 12 RMS(Cart)=  0.00000498 RMS(Int)=  0.00017986
 Iteration 13 RMS(Cart)=  0.00000407 RMS(Int)=  0.00018066
 Iteration 14 RMS(Cart)=  0.00000337 RMS(Int)=  0.00018131
 Iteration 15 RMS(Cart)=  0.00000281 RMS(Int)=  0.00018185
 Iteration 16 RMS(Cart)=  0.00000236 RMS(Int)=  0.00018229
 Iteration 17 RMS(Cart)=  0.00000199 RMS(Int)=  0.00018266
 Iteration 18 RMS(Cart)=  0.00000168 RMS(Int)=  0.00018298
 Iteration 19 RMS(Cart)=  0.00000142 RMS(Int)=  0.00018324
 Iteration 20 RMS(Cart)=  0.00000121 RMS(Int)=  0.00018347
 Iteration 21 RMS(Cart)=  0.00000103 RMS(Int)=  0.00018367
 Iteration 22 RMS(Cart)=  0.00000087 RMS(Int)=  0.00018383
 Variable       Old X    -DE/DX   Delta X   Delta X   Delta X     New X
                                 (Linear)    (Quad)   (Total)
    R1        2.32383   0.01750   0.00000   0.01864   0.01864   2.34247
    R2        2.32796   0.01542   0.00000   0.01658   0.01658   2.34455
    R3        2.89630  -0.03761   0.00000  -0.11803  -0.11803   2.77826
    R4        2.64560  -0.03163   0.00000  -0.06776  -0.06738   2.57822
    R5        2.82184  -0.02616   0.00000  -0.07656  -0.07636   2.74548
    R6        2.58263  -0.02202   0.00000  -0.04069  -0.04040   2.54223
    R7        2.08363  -0.01074   0.00000  -0.02976  -0.02976   2.05387
    R8        2.81231  -0.01638   0.00000  -0.04170  -0.04187   2.77044
    R9        1.93294  -0.00697   0.00000  -0.01496  -0.01496   1.91798
   R10        2.11923  -0.01314   0.00000  -0.03854  -0.03854   2.08069
   R11        2.92707  -0.01307   0.00000  -0.04331  -0.04332   2.88374
   R12        2.89497  -0.00097   0.00000   0.00151   0.00144   2.89641
   R13        2.91105  -0.00412   0.00000  -0.01423  -0.01431   2.89675
   R14        2.09927  -0.00949   0.00000  -0.02697  -0.02697   2.07230
   R15        2.09893  -0.00849   0.00000  -0.02412  -0.02412   2.07480
   R16        2.90467  -0.00132   0.00000  -0.00693  -0.00683   2.89783
   R17        2.10141  -0.01053   0.00000  -0.03003  -0.03003   2.07138
   R18        2.10302  -0.00896   0.00000  -0.02562  -0.02562   2.07741
   R19        2.91804  -0.00941   0.00000  -0.03015  -0.03013   2.88791
   R20        2.10418  -0.01123   0.00000  -0.03217  -0.03217   2.07201
   R21        2.10100  -0.00997   0.00000  -0.02842  -0.02842   2.07259
   R22        2.93556  -0.01129   0.00000  -0.03668  -0.03659   2.89897
   R23        2.10150  -0.01084   0.00000  -0.03091  -0.03091   2.07059
   R24        2.09783  -0.00767   0.00000  -0.02173  -0.02173   2.07610
   R25        2.10781  -0.01162   0.00000  -0.03346  -0.03346   2.07435
   R26        2.76689  -0.00420   0.00000  -0.00793  -0.00854   2.75835
   R27        2.44439  -0.00013   0.00000  -0.00100  -0.00111   2.44328
   R28        2.07887  -0.00562   0.00000  -0.01546  -0.01546   2.06341
    A1        2.15359   0.01122   0.00000   0.04051   0.04051   2.19411
    A2        2.05702  -0.00489   0.00000  -0.01768  -0.01768   2.03935
    A3        2.07221  -0.00629   0.00000  -0.02275  -0.02274   2.04948
    A4        2.01591  -0.01003   0.00000  -0.03336  -0.03424   1.98167
    A5        2.03013  -0.00287   0.00000  -0.00763  -0.00874   2.02139
    A6        2.23712   0.01291   0.00000   0.04149   0.04077   2.27788
    A7        2.20197   0.00595   0.00000   0.02330   0.02379   2.22576
    A8        2.06483  -0.00394   0.00000  -0.01679  -0.01703   2.04780
    A9        2.01636  -0.00201   0.00000  -0.00650  -0.00675   2.00962
   A10        2.23297  -0.00694   0.00000  -0.01438  -0.01434   2.21864
   A11        2.09980  -0.01244   0.00000  -0.07439  -0.07538   2.02442
   A12        1.86453   0.01958   0.00000   0.10438   0.10495   1.96948
   A13        1.84166  -0.00228   0.00000  -0.01598  -0.01540   1.82625
   A14        2.01482  -0.00147   0.00000  -0.01925  -0.01921   1.99561
   A15        1.95627   0.00243   0.00000  -0.00446  -0.00612   1.95015
   A16        1.85033   0.00354   0.00000   0.03007   0.02982   1.88014
   A17        1.85018   0.00167   0.00000   0.03171   0.03146   1.88164
   A18        1.93689  -0.00340   0.00000  -0.01457  -0.01400   1.92288
   A19        1.90863   0.00022   0.00000  -0.00643  -0.00661   1.90203
   A20        1.92189  -0.00059   0.00000  -0.01386  -0.01382   1.90806
   A21        1.92237  -0.00196   0.00000  -0.00581  -0.00582   1.91655
   A22        1.91848  -0.00083   0.00000   0.00351   0.00332   1.92180
   A23        1.90740   0.00355   0.00000   0.02777   0.02790   1.93530
   A24        1.88493  -0.00038   0.00000  -0.00476  -0.00500   1.87993
   A25        1.93925  -0.00072   0.00000   0.00581   0.00563   1.94488
   A26        1.91878  -0.00086   0.00000  -0.00747  -0.00745   1.91133
   A27        1.90560   0.00032   0.00000  -0.00289  -0.00294   1.90265
   A28        1.91620   0.00050   0.00000   0.00646   0.00651   1.92270
   A29        1.89917   0.00196   0.00000   0.01140   0.01147   1.91064
   A30        1.88386  -0.00119   0.00000  -0.01376  -0.01385   1.87001
   A31        1.94424   0.00175   0.00000   0.00868   0.00882   1.95307
   A32        1.90213  -0.00004   0.00000   0.00476   0.00478   1.90691
   A33        1.91774   0.00045   0.00000   0.00509   0.00499   1.92273
   A34        1.90605  -0.00142   0.00000  -0.01513  -0.01520   1.89085
   A35        1.91583  -0.00084   0.00000  -0.00012  -0.00023   1.91560
   A36        1.87650   0.00002   0.00000  -0.00384  -0.00387   1.87262
   A37        1.94629  -0.00453   0.00000  -0.02379  -0.02371   1.92259
   A38        1.90633   0.00262   0.00000   0.01426   0.01412   1.92045
   A39        1.91064   0.00212   0.00000   0.01688   0.01673   1.92737
   A40        1.90701   0.00100   0.00000  -0.00253  -0.00247   1.90454
   A41        1.91230  -0.00009   0.00000  -0.00205  -0.00192   1.91038
   A42        1.88006  -0.00100   0.00000  -0.00204  -0.00222   1.87784
   A43        1.84472   0.00634   0.00000   0.02264   0.02245   1.86717
   A44        1.93176  -0.00489   0.00000  -0.02090  -0.02122   1.91053
   A45        2.00201  -0.00042   0.00000   0.01047   0.01072   2.01273
   A46        1.88371   0.00200   0.00000   0.02603   0.02617   1.90988
   A47        1.89033  -0.00395   0.00000  -0.03526  -0.03499   1.85535
   A48        1.90663   0.00121   0.00000  -0.00130  -0.00125   1.90538
   A49        2.09719  -0.00308   0.00000  -0.00107  -0.00147   2.09573
   A50        2.26834  -0.00626   0.00000  -0.03276  -0.03365   2.23469
   A51        1.97585   0.00238   0.00000   0.00697   0.00656   1.98241
   A52        2.02621   0.00412   0.00000   0.01686   0.01652   2.04273
    D1       -2.99077   0.00059   0.00000  -0.07318  -0.07088  -3.06165
    D2        0.14413   0.00156   0.00000   0.00000  -0.00000   0.14413
    D3        0.17849  -0.00166   0.00000  -0.07686  -0.07570   0.10279
    D4       -2.96979  -0.00069   0.00000  -0.00367  -0.00482  -2.97461
    D5        3.13181   0.00110   0.00000   0.06003   0.05910  -3.09227
    D6       -0.00359   0.00139   0.00000   0.05784   0.05686   0.05327
    D7       -0.00215   0.00008   0.00000  -0.02314  -0.02456  -0.02671
    D8       -3.13755   0.00038   0.00000  -0.02533  -0.02680   3.11883
    D9        3.01284   0.00513   0.00000   0.00000  -0.00000   3.01284
   D10        0.05180   0.00282   0.00000   0.06002   0.05941   0.11121
   D11       -0.13644   0.00612   0.00000   0.08365   0.08511  -0.05133
   D12       -3.09748   0.00381   0.00000   0.14367   0.14452  -2.95295
   D13        0.32094  -0.00272   0.00000  -0.04405  -0.04476   0.27618
   D14        2.96967   0.00275   0.00000   0.02392   0.02202   2.99169
   D15       -2.82669  -0.00301   0.00000  -0.04195  -0.04260  -2.86929
   D16       -0.17796   0.00246   0.00000   0.02603   0.02418  -0.15378
   D17       -2.90044   0.00013   0.00000   0.03225   0.03296  -2.86748
   D18        1.34609  -0.00190   0.00000   0.01639   0.01690   1.36299
   D19       -0.89450   0.00200   0.00000   0.05848   0.05835  -0.83615
   D20        0.68205   0.00156   0.00000   0.00795   0.00699   0.68904
   D21       -1.35460  -0.00047   0.00000  -0.00791  -0.00907  -1.36368
   D22        2.68799   0.00342   0.00000   0.03418   0.03238   2.72037
   D23        2.94821   0.00285   0.00000   0.04119   0.04145   2.98966
   D24       -1.22519   0.00160   0.00000   0.03273   0.03290  -1.19229
   D25        0.85180  -0.00045   0.00000   0.01461   0.01485   0.86665
   D26        0.91646   0.00412   0.00000   0.05145   0.05155   0.96801
   D27        3.02624   0.00287   0.00000   0.04299   0.04300   3.06924
   D28       -1.17995   0.00082   0.00000   0.02487   0.02495  -1.15500
   D29       -1.08481   0.00186   0.00000   0.00459   0.00459  -1.08022
   D30        1.02496   0.00061   0.00000  -0.00387  -0.00396   1.02100
   D31        3.10196  -0.00144   0.00000  -0.02199  -0.02201   3.07995
   D32       -2.89271  -0.00115   0.00000  -0.02230  -0.02191  -2.91462
   D33       -0.85755   0.00233   0.00000   0.01068   0.01073  -0.84681
   D34        1.30937  -0.00033   0.00000   0.00000   0.00001   1.30938
   D35       -0.89198  -0.00168   0.00000  -0.02522  -0.02523  -0.91721
   D36        1.14318   0.00180   0.00000   0.00775   0.00742   1.15060
   D37       -2.97308  -0.00086   0.00000  -0.00293  -0.00331  -2.97639
   D38        1.10939   0.00174   0.00000   0.02061   0.02072   1.13010
   D39       -3.13864   0.00522   0.00000   0.05359   0.05336  -3.08528
   D40       -0.97172   0.00256   0.00000   0.04291   0.04264  -0.92908
   D41        0.95666   0.00115   0.00000   0.00000   0.00000   0.95667
   D42        3.08149   0.00072   0.00000   0.00695   0.00688   3.08837
   D43       -1.13813  -0.00104   0.00000  -0.01591  -0.01590  -1.15403
   D44       -1.15519   0.00225   0.00000   0.01899   0.01910  -1.13609
   D45        0.96964   0.00182   0.00000   0.02594   0.02598   0.99562
   D46        3.03320   0.00006   0.00000   0.00308   0.00320   3.03641
   D47        3.06222   0.00107   0.00000   0.00602   0.00602   3.06825
   D48       -1.09614   0.00064   0.00000   0.01297   0.01290  -1.08323
   D49        0.96743  -0.00112   0.00000  -0.00989  -0.00988   0.95755
   D50       -0.92193  -0.00092   0.00000   0.00000   0.00000  -0.92193
   D51        1.18229  -0.00160   0.00000  -0.01023  -0.01022   1.17207
   D52       -3.04892  -0.00133   0.00000  -0.00915  -0.00918  -3.05810
   D53       -3.04826   0.00030   0.00000   0.00119   0.00121  -3.04705
   D54       -0.94404  -0.00038   0.00000  -0.00905  -0.00901  -0.95305
   D55        1.10794  -0.00012   0.00000  -0.00797  -0.00798   1.09996
   D56        1.17667   0.00030   0.00000   0.00739   0.00742   1.18409
   D57       -3.00229  -0.00039   0.00000  -0.00284  -0.00281  -3.00510
   D58       -0.95031  -0.00012   0.00000  -0.00176  -0.00177  -0.95209
   D59        0.98909  -0.00155   0.00000  -0.00975  -0.00975   0.97935
   D60        3.09860  -0.00145   0.00000  -0.01867  -0.01876   3.07984
   D61       -1.12995   0.00010   0.00000  -0.00304  -0.00294  -1.13289
   D62       -1.11283  -0.00168   0.00000  -0.01123  -0.01120  -1.12403
   D63        0.99668  -0.00158   0.00000  -0.02015  -0.02021   0.97647
   D64        3.05131  -0.00004   0.00000  -0.00451  -0.00439   3.04693
   D65        3.11719  -0.00038   0.00000   0.00239   0.00240   3.11959
   D66       -1.05649  -0.00029   0.00000  -0.00653  -0.00662  -1.06311
   D67        0.99814   0.00126   0.00000   0.00911   0.00921   1.00735
   D68       -1.05631  -0.00010   0.00000  -0.00641  -0.00621  -1.06252
   D69       -3.12376   0.00128   0.00000  -0.00679  -0.00699  -3.13075
   D70        1.09719   0.00089   0.00000  -0.00034  -0.00026   1.09692
   D71        3.11776  -0.00115   0.00000  -0.00729  -0.00715   3.11061
   D72        1.05031   0.00024   0.00000  -0.00767  -0.00793   1.04238
   D73       -1.01193  -0.00015   0.00000  -0.00122  -0.00120  -1.01313
   D74        1.06177  -0.00047   0.00000  -0.00215  -0.00192   1.05985
   D75       -1.00568   0.00092   0.00000  -0.00253  -0.00270  -1.00838
   D76       -3.06792   0.00053   0.00000   0.00393   0.00403  -3.06389
   D77       -1.17217   0.00916   0.00000   0.00000   0.00001  -1.17216
   D78        3.05559   0.00416   0.00000  -0.01054  -0.01036   3.04524
   D79        1.00801   0.00333   0.00000  -0.02103  -0.02126   0.98675
   D80        0.56904  -0.01017   0.00000  -0.06326  -0.06317   0.50587
   D81       -2.75737  -0.00799   0.00000  -0.12571  -0.12540  -2.88278
         Item               Value     Threshold  Converged?
 Maximum Force            0.037611     0.000450     NO 
 RMS     Force            0.007006     0.000300     NO 
 Maximum Displacement     0.314809     0.001800     NO 
 RMS     Displacement     0.065697     0.001200     NO 
 Predicted change in Energy=-1.578203D-02
 GradGradGradGradGradGradGradGradGradGradGradGradGradGradGradGradGradGrad

                          Input orientation:                          
 ---------------------------------------------------------------------
 Center     Atomic      Atomic             Coordinates (Angstroms)
 Number     Number       Type             X           Y           Z
 ---------------------------------------------------------------------
      1          8           0       -3.477969   -1.286585   -0.653033
      2          7           0       -3.055826   -0.141044   -0.438347
      3          8           0       -3.706480    0.907089   -0.570084
      4          6           0       -1.651823   -0.018449   -0.019760
      5          6           0       -1.286020    1.258092    0.293355
      6          7           0       -0.066580    1.695558    0.655833
      7          6           0        1.209516    0.991825    0.495643
      8          1           0        1.908013    1.528427    1.156310
      9          6           0        1.779884    1.037857   -0.919020
     10          6           0        3.200770    0.462903   -0.902599
     11          6           0        3.228727   -0.944624   -0.294646
     12          6           0        2.560574   -0.985584    1.079160
     13          6           0        1.123054   -0.458511    0.983758
     14          1           0        0.658533   -0.482766    1.978029
     15          7           0        0.409005   -1.373563    0.098651
     16          6           0       -0.863653   -1.237218   -0.084166
     17          1           0       -2.057820    2.022301    0.253694
     18          1           0        0.044009    2.702467    0.719311
     19          1           0        1.141726    0.446975   -1.586984
     20          1           0        1.780530    2.072478   -1.286482
     21          1           0        3.598820    0.441405   -1.923669
     22          1           0        3.849704    1.128493   -0.315767
     23          1           0        2.695698   -1.635827   -0.958235
     24          1           0        4.262729   -1.301494   -0.214782
     25          1           0        2.541484   -2.013996    1.456765
     26          1           0        3.126094   -0.378028    1.798908
     27          1           0       -1.391689   -2.075163   -0.543833
 ---------------------------------------------------------------------
                    Distance matrix (angstroms):
                    1          2          3          4          5
     1  O    0.000000
     2  N    1.239580   0.000000
     3  O    2.207102   1.240680   0.000000
     4  C    2.311712   1.470194   2.319718   0.000000
     5  C    3.489365   2.371747   2.593715   1.364334   0.000000
     6  N    4.716341   3.675041   3.920896   2.430481   1.345288
     7  C    5.336958   4.510972   5.030902   3.077913   2.517840
     8  H    6.340884   5.474464   5.906694   4.055662   3.319581
     9  C    5.754893   5.000494   5.499004   3.701494   3.304258
    10  C    6.908584   6.302799   6.929500   4.955680   4.711042
    11  C    6.724964   6.337350   7.183440   4.975252   5.057731
    12  C    6.289284   5.878778   6.751162   4.459514   4.521930
    13  C    4.953201   4.425631   5.253921   2.983395   3.037601
    14  H    4.967822   4.444334   5.241938   3.089416   3.106444
    15  N    3.959944   3.716520   4.752451   2.469285   3.136339
    16  C    2.675947   2.476422   3.593861   1.452845   2.558806
    17  H    3.713180   2.480927   2.154157   2.098635   1.086860
    18  H    5.495470   4.362878   4.353400   3.290205   2.009137
    19  H    5.021860   4.391421   4.975027   3.236777   3.176088
    20  H    6.271871   5.386032   5.654966   4.213977   3.544409
    21  H    7.394687   6.843226   7.444224   5.604069   5.426217
    22  H    7.722768   7.022328   7.563704   5.627601   5.173344
    23  H    6.191065   5.965291   6.899636   4.732609   5.078909
    24  H    7.753108   7.413358   8.277220   6.055259   6.131745
    25  H    6.419828   6.199136   7.188735   4.873003   5.168159
    26  H    7.102896   6.578572   7.344911   5.124972   4.940681
    27  H    2.233012   2.553683   3.775284   2.138316   3.438406
                    6          7          8          9         10
     6  N    0.000000
     7  C    1.466056   0.000000
     8  H    2.043876   1.101054   0.000000
     9  C    2.514390   1.526011   2.136368   0.000000
    10  C    3.824098   2.489967   2.654368   1.532893   0.000000
    11  C    4.328166   2.907165   3.156825   2.533618   1.533467
    12  C    3.777521   2.464954   2.598469   2.948985   2.536796
    13  C    2.482494   1.532712   2.143329   2.508207   2.953684
    14  H    2.649355   2.162283   2.506256   3.458701   3.956675
    15  N    3.155334   2.528533   3.433251   2.954642   3.488418
    16  C    3.127954   3.098845   4.107275   3.586256   4.481046
    17  H    2.057550   3.434516   4.097127   4.131870   5.605488
    18  H    1.014951   2.082001   2.245851   2.910037   4.196591
    19  H    2.837109   2.153786   3.046702   1.096614   2.169861
    20  H    2.706745   2.160980   2.505888   1.097938   2.180637
    21  H    4.654233   3.444533   3.677868   2.161852   1.096125
    22  H    4.074660   2.765440   2.469235   2.157843   1.099317
    23  H    4.618822   3.350680   3.886419   2.826453   2.159365
    24  H    5.336966   3.884086   3.928490   3.483250   2.171162
    25  H    4.604811   3.425325   3.611139   3.941852   3.483717
    26  H    3.974865   2.692261   2.351856   3.347259   2.830350
    27  H    4.172942   4.153696   5.173430   4.459880   5.259389
                   11         12         13         14         15
    11  C    0.000000
    12  C    1.528218   0.000000
    13  C    2.510872   1.534070   0.000000
    14  H    3.461829   2.162996   1.097699   0.000000
    15  N    2.879150   2.396075   1.459657   2.094718   0.000000
    16  C    4.108222   3.625187   2.386179   2.671871   1.292931
    17  H    6.086945   5.573000   4.099437   4.077654   4.200137
    18  H    4.946899   4.479320   3.350530   3.479614   4.139137
    19  H    2.821748   3.342706   2.725613   3.715805   2.587007
    20  H    3.490547   3.944169   3.462970   4.294784   3.959150
    21  H    2.170659   3.482992   3.923314   4.972185   4.190323
    22  H    2.164226   2.842006   3.412032   4.247497   4.274393
    23  H    1.096463   2.142908   2.762357   3.755161   2.532737
    24  H    1.096765   2.161346   3.464776   4.297553   3.867121
    25  H    2.164093   1.095710   2.157594   2.482315   2.608083
    26  H    2.171298   1.098623   2.164051   2.476270   3.356268
    27  H    4.763241   4.409272   3.357236   3.619244   2.036548
                   16         17         18         19         20
    16  C    0.000000
    17  H    3.487786   0.000000
    18  H    4.121959   2.257677   0.000000
    19  H    3.019357   4.013333   3.407524   0.000000
    20  H    4.403561   4.136131   2.726829   1.772182   0.000000
    21  H    5.110304   6.264001   4.973372   2.480060   2.524398
    22  H    5.278822   6.001834   4.246422   3.068160   2.472828
    23  H    3.686715   6.119363   5.354102   2.673616   3.833640
    24  H    5.128448   7.156564   5.890826   3.831545   4.323602
    25  H    3.817435   6.236399   5.387601   4.156935   4.980333
    26  H    4.494692   5.917958   4.489346   4.010313   4.163550
    27  H    1.091910   4.227173   5.146116   3.723915   5.274222
                   21         22         23         24         25
    21  H    0.000000
    22  H    1.766460   0.000000
    23  H    2.462231   3.063651   0.000000
    24  H    2.529578   2.466905   1.766376   0.000000
    25  H    4.309790   3.837779   2.449289   2.502881   0.000000
    26  H    3.840901   2.695379   3.060904   2.489914   1.770655
    27  H    5.756930   6.147164   4.131765   5.716580   4.413161
                   26         27
    26  H    0.000000
    27  H    5.364613   0.000000
 Symmetry turned off by external request.
 Stoichiometry    C9H13N3O2
 Framework group  C1[X(C9H13N3O2)]
 Deg. of freedom    75
 Full point group                 C1      NOp   1
 Rotational constants (GHZ):           1.6001489           0.4281428           0.3821564
 Standard basis: 6-31G(d) (6D, 7F)
   236 basis functions,   444 primitive gaussians,   236 cartesian basis functions
    52 alpha electrons       52 beta electrons
       nuclear repulsion energy       932.8730057400 Hartrees.
 NAtoms=   27 NActive=   27 NUniq=   27 SFac= 1.00D+00 NAtFMM=   60 NAOKFM=F Big=F
 Integral buffers will be    131072 words long.
 Raffenetti 1 integral format.
 Two-electron integral symmetry is turned off.
 One-electron integrals computed using PRISM.
 NBasis=   236 RedAO= T EigKep=  1.02D-03  NBF=   236
 NBsUse=   236 1.00D-06 EigRej= -1.00D+00 NBFU=   236
 Initial guess from the checkpoint file:  "/home/alexey/tmp/Gau-1233029.chk"
 B after Tr=     0.061210    0.004521    0.011093
         Rot=    0.999998   -0.002079    0.000025    0.000524 Ang=  -0.25 deg.
 ExpMin= 1.61D-01 ExpMax= 5.48D+03 ExpMxC= 8.25D+02 IAcc=3 IRadAn=         5 AccDes= 0.00D+00
 Harris functional with IExCor=  205 and IRadAn=       5 diagonalized for initial guess.
 HarFok:  IExCor=  205 AccDes= 0.00D+00 IRadAn=         5 IDoV= 1 UseB2=F ITyADJ=14
 ICtDFT=  3500011 ScaDFX=  1.000000  1.000000  1.000000  1.000000
 FoFCou: FMM=F IPFlag=           0 FMFlag=      100000 FMFlg1=           0
         NFxFlg=           0 DoJE=T BraDBF=F KetDBF=T FulRan=T
         wScrn=  0.000000 ICntrl=       500 IOpCl=  0 I1Cent=   200000004 NGrid=           0
         NMat0=    1 NMatS0=      1 NMatT0=    0 NMatD0=    1 NMtDS0=    0 NMtDT0=    0
 Symmetry not used in FoFCou.
 Keep R1 ints in memory in canonical form, NReq=397720213.
 Requested convergence on RMS density matrix=1.00D-08 within 128 cycles.
 Requested convergence on MAX density matrix=1.00D-06.
 Requested convergence on             energy=1.00D-06.
 No special actions if energy rises.
 SCF Done:  E(RHF) =  -661.292388941     A.U. after   15 cycles
            NFock= 15  Conv=0.58D-08     -V/T= 2.0025
 ExpMin= 1.61D-01 ExpMax= 5.48D+03 ExpMxC= 8.25D+02 IAcc=3 IRadAn=         5 AccDes= 0.00D+00
 HarFok:  IExCor=  205 AccDes= 0.00D+00 IRadAn=         5 IDoV=-2 UseB2=F ITyADJ=14
 ICtDFT= 12500011 ScaDFX=  1.000000  1.000000  1.000000  1.000000
 Range of M.O.s used for correlation:    15   236
 NBasis=   236 NAE=    52 NBE=    52 NFC=    14 NFV=     0
 NROrb=    222 NOA=    38 NOB=    38 NVA=   184 NVB=   184
 Fully direct method using O(ONN) memory.
 JobTyp=1 Pass  1:  I=  15 to  52 NPSUse=  4 ParTrn=T ParDer=T DoDerP=T.
 Spin components of T(2) and E(2):
     alpha-alpha T2 =       0.9154332133D-01 E2=     -0.2726818682D+00
     alpha-beta  T2 =       0.4920165915D+00 E2=     -0.1488673674D+01
     beta-beta   T2 =       0.9154332133D-01 E2=     -0.2726818682D+00
 ANorm=    0.1294257793D+01
 E2 =    -0.2034037410D+01 EUMP2 =    -0.66332642635123D+03
          IDoAtm=111111111111111111111111111
          Differentiating once with respect to electric field.
                with respect to dipole field.
          Differentiating once with respect to nuclear coordinates.
 Keep R1 ints in memory in canonical form, NReq=397723379.
[...]
    27  H    4.711387   4.403396   3.356644   3.645787   2.023992
                   16         17         18         19         20
    16  C    0.000000
    17  H    3.468417   0.000000
    18  H    4.114496   2.230259   0.000000
    19  H    2.988732   4.106031   3.497264   0.000000
    20  H    4.387874   4.261943   2.871564   1.769129   0.000000
    21  H    5.091474   6.359985   5.080076   2.499867   2.520455
    22  H    5.255995   6.037499   4.315221   3.070444   2.462223
    23  H    3.676179   6.160833   5.415541   2.701710   3.842156
    24  H    5.124184   7.173408   5.938080   3.847896   4.317335
    25  H    3.818011   6.172266   5.371959   4.167991   4.983490
    26  H    4.503453   5.871947   4.489197   4.030293   4.177895
    27  H    1.089168   4.217601   5.126116   3.618663   5.193116
                   21         22         23         24         25
    21  H    0.000000
    22  H    1.759059   0.000000
    23  H    2.470479   3.062939   0.000000
    24  H    2.517875   2.460900   1.764385   0.000000
    25  H    4.311696   3.838093   2.444174   2.519240   0.000000
    26  H    3.844817   2.701271   3.060529   2.494088   1.768778
    27  H    5.665045   6.075192   4.067951   5.673249   4.420702
                   26         27
    26  H    0.000000
    27  H    5.368306   0.000000
 Symmetry turned off by external request.
 Stoichiometry    C9H13N3O2
 Framework group  C1[X(C9H13N3O2)]
 Deg. of freedom    75
 Full point group                 C1      NOp   1
 Rotational constants (GHZ):           1.6152203           0.4239414           0.3805027

 **********************************************************************

            Population analysis using the SCF Density.

 **********************************************************************

 Alpha  occ. eigenvalues --  -20.59275 -20.58906 -15.84826 -15.64352 -15.55798
 Alpha  occ. eigenvalues --  -11.35109 -11.29550 -11.29509 -11.28789 -11.27032
 Alpha  occ. eigenvalues --  -11.23821 -11.23226 -11.22598 -11.22059  -1.57191
 Alpha  occ. eigenvalues --   -1.36742  -1.31133  -1.22782  -1.14689  -1.09783
 Alpha  occ. eigenvalues --   -1.02772  -1.01305  -0.94413  -0.89635  -0.85570
 Alpha  occ. eigenvalues --   -0.82457  -0.78782  -0.77317  -0.75205  -0.72145
 Alpha  occ. eigenvalues --   -0.69612  -0.69538  -0.67883  -0.64593  -0.63908
 Alpha  occ. eigenvalues --   -0.62383  -0.60017  -0.57808  -0.56885  -0.55161
 Alpha  occ. eigenvalues --   -0.54602  -0.50580  -0.50303  -0.48717  -0.48106
 Alpha  occ. eigenvalues --   -0.47330  -0.46299  -0.45784  -0.43763  -0.41850
 Alpha  occ. eigenvalues --   -0.39490  -0.33585
 Alpha virt. eigenvalues --    0.07450   0.11407   0.17176   0.22035   0.24397
 Alpha virt. eigenvalues --    0.25870   0.26689   0.28316   0.29201   0.29384
 Alpha virt. eigenvalues --    0.30906   0.32031   0.32126   0.32809   0.33799
 Alpha virt. eigenvalues --    0.34473   0.36173   0.37380   0.38673   0.40442
 Alpha virt. eigenvalues --    0.41048   0.42642   0.44524   0.45965   0.46656
 Alpha virt. eigenvalues --    0.47642   0.49319   0.54378   0.57795   0.59866
 Alpha virt. eigenvalues --    0.63638   0.69433   0.69676   0.73042   0.74117
 Alpha virt. eigenvalues --    0.75104   0.75748   0.76455   0.78604   0.79395
 Alpha virt. eigenvalues --    0.81080   0.84221   0.85419   0.85590   0.88259
 Alpha virt. eigenvalues --    0.88965   0.91524   0.92141   0.92875   0.94272
 Alpha virt. eigenvalues --    0.95854   0.97976   0.99715   1.01109   1.02174
 Alpha virt. eigenvalues --    1.03534   1.05818   1.06983   1.07993   1.08739
 Alpha virt. eigenvalues --    1.10527   1.12022   1.12268   1.12588   1.13795
 Alpha virt. eigenvalues --    1.14505   1.15220   1.16046   1.17306   1.18413
 Alpha virt. eigenvalues --    1.18734   1.21683   1.22983   1.24089   1.24220
 Alpha virt. eigenvalues --    1.25037   1.26100   1.26678   1.28189   1.29561
 Alpha virt. eigenvalues --    1.30549   1.32615   1.35894   1.37802   1.40172
 Alpha virt. eigenvalues --    1.40724   1.41327   1.46868   1.52518   1.54884
 Alpha virt. eigenvalues --    1.58209   1.58882   1.62110   1.62882   1.66233
 Alpha virt. eigenvalues --    1.68694   1.69309   1.72283   1.75779   1.78129
 Alpha virt. eigenvalues --    1.81188   1.83983   1.88127   1.89279   1.93259
 Alpha virt. eigenvalues --    1.95299   1.96076   2.00504   2.01045   2.01642
 Alpha virt. eigenvalues --    2.04091   2.05365   2.08415   2.09709   2.12186
 Alpha virt. eigenvalues --    2.12850   2.15196   2.18617   2.19909   2.22164
 Alpha virt. eigenvalues --    2.23791   2.24735   2.25622   2.27829   2.29090
 Alpha virt. eigenvalues --    2.30792   2.32771   2.34502   2.36057   2.38331
 Alpha virt. eigenvalues --    2.40702   2.42468   2.42951   2.46429   2.47839
 Alpha virt. eigenvalues --    2.50036   2.51952   2.53581   2.55478   2.59756
 Alpha virt. eigenvalues --    2.62476   2.65460   2.67185   2.68568   2.70355
 Alpha virt. eigenvalues --    2.71596   2.72119   2.74934   2.77906   2.84794
 Alpha virt. eigenvalues --    2.88572   2.89494   2.92461   2.93442   2.95824
 Alpha virt. eigenvalues --    2.99295   3.01373   3.05200   3.06401   3.08314
 Alpha virt. eigenvalues --    3.09848   3.16062   3.20676   3.24835   3.27501
 Alpha virt. eigenvalues --    3.33541   3.36572   3.38494   3.50543   3.65970
 Alpha virt. eigenvalues --    4.13775   4.26434   4.32179   4.39928   4.47165
 Alpha virt. eigenvalues --    4.55682   4.61814   4.62309   4.73304   4.80307
 Alpha virt. eigenvalues --    4.99591   5.00821   5.06249   5.10609
          Condensed to atoms (all electrons):
               1          2          3          4          5          6
     1  O    8.315587   0.304592  -0.083063  -0.080727   0.004414  -0.000015
     2  N    0.304592   5.713943   0.298048   0.269778  -0.054227   0.000959
     3  O   -0.083063   0.298048   8.355337  -0.089773   0.000273   0.000882
     4  C   -0.080727   0.269778  -0.089773   5.237554   0.546244  -0.049847
     5  C    0.004414  -0.054227   0.000273   0.546244   4.729604   0.324535
     6  N   -0.000015   0.000959   0.000882  -0.049847   0.324535   7.180573
     7  C    0.000001  -0.000126   0.000001   0.008011  -0.030463   0.173621
     8  H   -0.000000   0.000001   0.000000  -0.000363   0.003468  -0.048807
     9  C   -0.000000  -0.000003  -0.000000   0.001112  -0.000246  -0.063948
    10  C   -0.000000   0.000000   0.000000  -0.000053  -0.000022   0.003835
    11  C   -0.000000   0.000000  -0.000000  -0.000015   0.000013  -0.000175
    12  C    0.000000   0.000001  -0.000000  -0.000275  -0.000155   0.003905
    13  C   -0.000013   0.000023  -0.000001  -0.010918  -0.001290  -0.051194
    14  H   -0.000000  -0.000058   0.000001   0.001826   0.004055  -0.005906
    15  N    0.000584   0.001920  -0.000014  -0.065614  -0.005462   0.001561
    16  C   -0.002218  -0.025623   0.002817   0.319264  -0.056299  -0.000395
    17  H    0.000267  -0.007676   0.018066  -0.022285   0.375347  -0.034336
    18  H    0.000001  -0.000052   0.000012   0.001579  -0.031809   0.338614
    19  H    0.000001  -0.000021   0.000000  -0.001529   0.001762  -0.000885
    20  H    0.000000  -0.000000   0.000000  -0.000096   0.000086  -0.000058
    21  H   -0.000000   0.000000  -0.000000   0.000002   0.000000  -0.000081
    22  H    0.000000   0.000000  -0.000000  -0.000001  -0.000002  -0.000111
    23  H    0.000000  -0.000000   0.000000   0.000045  -0.000001  -0.000031
    24  H    0.000000  -0.000000   0.000000  -0.000000  -0.000000   0.000006
    25  H    0.000000  -0.000000   0.000000   0.000026  -0.000000  -0.000090
    26  H    0.000000  -0.000000   0.000000   0.000007  -0.000004  -0.000064
    27  H    0.008143  -0.001031   0.000094  -0.065275   0.002165  -0.000009
               7          8          9         10         11         12
     1  O    0.000001  -0.000000  -0.000000  -0.000000  -0.000000   0.000000
     2  N   -0.000126   0.000001  -0.000003   0.000000   0.000000   0.000001
     3  O    0.000001   0.000000  -0.000000   0.000000  -0.000000  -0.000000
     4  C    0.008011  -0.000363   0.001112  -0.000053  -0.000015  -0.000275
     5  C   -0.030463   0.003468  -0.000246  -0.000022   0.000013  -0.000155
     6  N    0.173621  -0.048807  -0.063948   0.003835  -0.000175   0.003905
     7  C    5.035707   0.416710   0.352775  -0.054527  -0.009402  -0.061812
     8  H    0.416710   0.533285  -0.052996   0.000418  -0.000217  -0.002428
     9  C    0.352775  -0.052996   5.157449   0.326205  -0.050948  -0.005145
    10  C   -0.054527   0.000418   0.326205   5.116900   0.337281  -0.061487
    11  C   -0.009402  -0.000217  -0.050948   0.337281   5.121219   0.335830
    12  C   -0.061812  -0.002428  -0.005145  -0.061487   0.335830   5.121548
    13  C    0.326734  -0.036272  -0.062134  -0.000006  -0.050014   0.372453
    14  H   -0.047217  -0.000815   0.004408  -0.000405   0.004238  -0.036755
    15  N   -0.059879   0.003780  -0.013770   0.001425  -0.013493  -0.083865
    16  C   -0.002520  -0.000056  -0.000713  -0.000073  -0.000009   0.002612
    17  H    0.001582  -0.000054  -0.000055   0.000001  -0.000000   0.000001
    18  H   -0.021857  -0.004650   0.001472  -0.000085   0.000004  -0.000114
    19  H   -0.036862   0.004222   0.391573  -0.032265  -0.002118   0.000656
    20  H   -0.043060  -0.002071   0.399272  -0.034850   0.003928  -0.000436
    21  H    0.004619  -0.000073  -0.036499   0.402418  -0.034877   0.004378
    22  H   -0.004908   0.003539  -0.047062   0.397809  -0.045205  -0.001033
    23  H    0.000657   0.000031  -0.002017  -0.039013   0.399213  -0.037933
    24  H   -0.000132  -0.000103   0.004416  -0.038409   0.402422  -0.038511
    25  H    0.005264  -0.000031  -0.000419   0.004204  -0.033273   0.397982
    26  H   -0.003699   0.001618   0.000991  -0.002263  -0.041615   0.396347
    27  H   -0.000394   0.000008  -0.000043   0.000005   0.000015  -0.000034
              13         14         15         16         17         18
     1  O   -0.000013  -0.000000   0.000584  -0.002218   0.000267   0.000001
     2  N    0.000023  -0.000058   0.001920  -0.025623  -0.007676  -0.000052
     3  O   -0.000001   0.000001  -0.000014   0.002817   0.018066   0.000012
     4  C   -0.010918   0.001826  -0.065614   0.319264  -0.022285   0.001579
     5  C   -0.001290   0.004055  -0.005462  -0.056299   0.375347  -0.031809
     6  N   -0.051194  -0.005906   0.001561  -0.000395  -0.034336   0.338614
     7  C    0.326734  -0.047217  -0.059879  -0.002520   0.001582  -0.021857
     8  H   -0.036272  -0.000815   0.003780  -0.000056  -0.000054  -0.004650
     9  C   -0.062134   0.004408  -0.013770  -0.000713  -0.000055   0.001472
    10  C   -0.000006  -0.000405   0.001425  -0.000073   0.000001  -0.000085
    11  C   -0.050014   0.004238  -0.013493  -0.000009  -0.000000   0.000004
    12  C    0.372453  -0.036755  -0.083865   0.002612   0.000001  -0.000114
    13  C    5.041029   0.406923   0.247935  -0.067150  -0.000067   0.003074
    14  H    0.406923   0.524385  -0.035919  -0.005838   0.000029  -0.000112
    15  N    0.247935  -0.035919   6.982039   0.579222  -0.000055  -0.000148
    16  C   -0.067150  -0.005838   0.579222   4.742661   0.001898  -0.000195
    17  H   -0.000067   0.000029  -0.000055   0.001898   0.374594  -0.002867
    18  H    0.003074  -0.000112  -0.000148  -0.000195  -0.002867   0.310458
    19  H   -0.007521   0.000096   0.007244   0.002618   0.000016  -0.000154
    20  H    0.004451  -0.000068   0.000136  -0.000041  -0.000006   0.000894
    21  H   -0.000453   0.000010  -0.000044   0.000004  -0.000000   0.000001
    22  H    0.000022  -0.000053   0.000025  -0.000001   0.000000   0.000001
    23  H   -0.007788   0.000001   0.008749   0.000126   0.000000   0.000000
    24  H    0.004706  -0.000060   0.000114   0.000007   0.000000  -0.000000
    25  H   -0.035478  -0.002906   0.000875  -0.000049  -0.000000   0.000002
    26  H   -0.047759  -0.001040   0.004990  -0.000045   0.000000   0.000000
    27  H    0.004868  -0.000175  -0.040744   0.406098  -0.000084   0.000000
              19         20         21         22         23         24
     1  O    0.000001   0.000000  -0.000000   0.000000   0.000000   0.000000
     2  N   -0.000021  -0.000000   0.000000   0.000000  -0.000000  -0.000000
     3  O    0.000000   0.000000  -0.000000  -0.000000   0.000000   0.000000
     4  C   -0.001529  -0.000096   0.000002  -0.000001   0.000045  -0.000000
     5  C    0.001762   0.000086   0.000000  -0.000002  -0.000001  -0.000000
     6  N   -0.000885  -0.000058  -0.000081  -0.000111  -0.000031   0.000006
     7  C   -0.036862  -0.043060   0.004619  -0.004908   0.000657  -0.000132
     8  H    0.004222  -0.002071  -0.000073   0.003539   0.000031  -0.000103
     9  C    0.391573   0.399272  -0.036499  -0.047062  -0.002017   0.004416
    10  C   -0.032265  -0.034850   0.402418   0.397809  -0.039013  -0.038409
    11  C   -0.002118   0.003928  -0.034877  -0.045205   0.399213   0.402422
    12  C    0.000656  -0.000436   0.004378  -0.001033  -0.037933  -0.038511
    13  C   -0.007521   0.004451  -0.000453   0.000022  -0.007788   0.004706
    14  H    0.000096  -0.000068   0.000010  -0.000053   0.000001  -0.000060
    15  N    0.007244   0.000136  -0.000044   0.000025   0.008749   0.000114
    16  C    0.002618  -0.000041   0.000004  -0.000001   0.000126   0.000007
    17  H    0.000016  -0.000006  -0.000000   0.000000   0.000000   0.000000
    18  H   -0.000154   0.000894   0.000001   0.000001   0.000000  -0.000000
    19  H    0.503635  -0.024849  -0.002761   0.003960   0.001517  -0.000069
    20  H   -0.024849   0.541091  -0.002730  -0.002973  -0.000044  -0.000084
    21  H   -0.002761  -0.002730   0.523655  -0.027372  -0.002874  -0.002245
    22  H    0.003960  -0.002973  -0.027372   0.570981   0.004122  -0.003628
    23  H    0.001517  -0.000044  -0.002874   0.004122   0.498384  -0.025438
    24  H   -0.000069  -0.000084  -0.002245  -0.003628  -0.025438   0.537662
    25  H   -0.000030   0.000012  -0.000086  -0.000082  -0.002275  -0.002325
    26  H    0.000020  -0.000030  -0.000079   0.002381   0.004073  -0.003019
    27  H    0.000069   0.000000  -0.000000   0.000000  -0.000039  -0.000000
              25         26         27
     1  O    0.000000   0.000000   0.008143
     2  N   -0.000000  -0.000000  -0.001031
     3  O    0.000000   0.000000   0.000094
     4  C    0.000026   0.000007  -0.065275
     5  C   -0.000000  -0.000004   0.002165
     6  N   -0.000090  -0.000064  -0.000009
     7  C    0.005264  -0.003699  -0.000394
     8  H   -0.000031   0.001618   0.000008
     9  C   -0.000419   0.000991  -0.000043
    10  C    0.004204  -0.002263   0.000005
    11  C   -0.033273  -0.041615   0.000015
    12  C    0.397982   0.396347  -0.000034
    13  C   -0.035478  -0.047759   0.004868
    14  H   -0.002906  -0.001040  -0.000175
    15  N    0.000875   0.004990  -0.040744
    16  C   -0.000049  -0.000045   0.406098
    17  H   -0.000000   0.000000  -0.000084
    18  H    0.000002   0.000000   0.000000
    19  H   -0.000030   0.000020   0.000069
    20  H    0.000012  -0.000030   0.000000
    21  H   -0.000086  -0.000079  -0.000000
    22  H   -0.000082   0.002381   0.000000
    23  H   -0.002275   0.004073  -0.000039
    24  H   -0.002325  -0.003019  -0.000000
    25  H    0.505748  -0.024037  -0.000016
    26  H   -0.024037   0.564094   0.000001
    27  H   -0.000016   0.000001   0.426617
 Mulliken charges:
               1
     1  O   -0.467553
     2  N    0.499555
     3  O   -0.502677
     4  C    0.001323
     5  C    0.188015
     6  N   -0.772536
     7  C    0.051178
     8  H    0.181855
     9  C   -0.303674
    10  C   -0.327042
    11  C   -0.322801
    12  C   -0.305731
    13  C   -0.034161
    14  H    0.191354
    15  N   -0.521593
    16  C    0.103899
    17  H    0.295682
    18  H    0.405929
    19  H    0.191674
    20  H    0.161526
    21  H    0.175088
    22  H    0.149592
    23  H    0.200534
    24  H    0.164689
    25  H    0.186982
    26  H    0.149131
    27  H    0.259761
 Sum of Mulliken charges =  -0.00000
 Mulliken charges with hydrogens summed into heavy atoms:
               1
     1  O   -0.467553
     2  N    0.499555
     3  O   -0.502677
     4  C    0.001323
     5  C    0.483698
     6  N   -0.366607
     7  C    0.233033
     9  C    0.049526
    10  C   -0.002362
    11  C    0.042422
    12  C    0.030382
    13  C    0.157194
    15  N   -0.521593
    16  C    0.363660
 Electronic spatial extent (au):  <R**2>=           2975.2653
 Charge=             -0.0000 electrons
 Dipole moment (field-independent basis, Debye):
    X=              5.2828    Y=              4.5886    Z=              2.1490  Tot=              7.3199
 Quadrupole moment (field-independent basis, Debye-Ang):
   XX=           -104.7159   YY=            -78.9131   ZZ=            -82.6558
   XY=             -0.2377   XZ=             -4.3008   YZ=              1.7601
 Traceless Quadrupole moment (field-independent basis, Debye-Ang):
   XX=            -15.9543   YY=              9.8485   ZZ=              6.1058
   XY=             -0.2377   XZ=             -4.3008   YZ=              1.7601
 Octapole moment (field-independent basis, Debye-Ang**2):
  XXX=             80.9684  YYY=             32.1961  ZZZ=              3.7827  XYY=             -7.0173
  XXY=              3.4714  XXZ=             23.2568  XZZ=             -5.6704  YZZ=              0.7917
  YYZ=             11.0924  XYZ=              1.6054
 Hexadecapole moment (field-independent basis, Debye-Ang**3):
 XXXX=          -3255.0661 YYYY=           -595.8446 ZZZZ=           -345.8037 XXXY=             22.9386
 XXXZ=           -141.5725 YYYX=             22.8595 YYYZ=             24.8730 ZZZX=            -62.7122
 ZZZY=              1.9609 XXYY=           -609.9564 XXZZ=           -535.6149 YYZZ=           -164.9981
 XXYZ=             -5.2633 YYXZ=            -25.0632 ZZXY=              7.7064
 N-N= 9.319649937198D+02 E-N=-3.410642762565D+03  KE= 6.596220397877D+02
 Unable to Open any file for archive entry.
 1\1\GINC-LOTUS\FOpt\RMP2-FC\6-31G(d)\C9H13N3O2\ALEXEY\01-Jul-2023\0\\#
 MP2/6-31G* SCF=Tight Opt=(ModRedun, MaxCycle=20 ) NoSymm\\MolName:\\0,
 1\O,-3.4521456938,-1.249866368,-0.8237651274\N,-3.0618043897,-0.142819
 9429,-0.4070235001\O,-3.7884756507,0.8693904682,-0.3804299897\C,-1.687
 0270632,-0.0505983726,0.0838845813\C,-1.2885319455,1.2399596761,0.3478
 081839\N,-0.0549607409,1.7138603414,0.5700989922\C,1.2118908136,1.0101
 716623,0.4512963078\H,1.9034796302,1.5533246055,1.1116452367\C,1.80038
 96625,1.0199677781,-0.9586042275\C,3.2153660872,0.4324030937,-0.906759
 7541\C,3.2366012987,-0.9591449779,-0.269021203\C,2.5519553017,-0.96773
 94532,1.0991781855\C,1.1189112268,-0.4365132599,0.9692773885\H,0.61771
 01943,-0.4232783373,1.9481544626\N,0.4195263147,-1.3568434433,0.076550
 2627\C,-0.852029892,-1.2163344862,-0.1348352769\H,-2.0749716805,1.9883
 691189,0.3791717445\H,0.0000571622,2.7056178747,0.771428011\H,1.155755
 9445,0.4277956259,-1.6174513901\H,1.8205316665,2.0451181587,-1.3488301
 923\H,3.6373027742,0.3932792818,-1.9175687957\H,3.8566099495,1.1111897
 42,-0.3267212968\H,2.7113593345,-1.6674045646,-0.9178310659\H,4.271147
 0714,-1.3097775228,-0.1747171381\H,2.5124928885,-1.9868071759,1.497209
 2852\H,3.1137383468,-0.3544443964,1.8173222135\H,-1.3338686115,-2.0258
 551262,-0.6814558979\\Version=ES64L-G16RevC.02\HF=-661.2950458\MP2=-66
 3.330287\RMSD=4.520e-09\RMSF=2.557e-03\Dipole=1.9511037,1.6307953,0.74
 25899\PG=C01 [X(C9H13N3O2)]\\@
 The archive entry for this job was punched.


 Spring appears, and we are once more children.
                                  -- Anonymous
 Job cpu time:       0 days  1 hours 52 minutes 48.5 seconds.
 Elapsed time:       0 days  0 hours 33 minutes 30.8 seconds.
 File lengths (MBytes):  RWF=     36 Int=      0 D2E=      0 Chk=      7 Scr=      1
 Normal termination of Gaussian 16 at Sat Jul  1 00:24:43 2023.
