 Entering Gaussian System, Link 0=g09
 Initial command:
 /home/ana/programs/g09/l1.exe /home/ana/programs/g09/scratch/Gau-704596.inp -scrdir=/home/ana/programs/g09/scratch/
 Entering Link 1 = /home/ana/programs/g09/l1.exe PID=    704598.
  
 Copyright (c) 1988,1990,1992,1993,1995,1998,2003,2009, Gaussian, Inc.
                  All Rights Reserved.
  
 This is part of the Gaussian(R) 09 program.  It is based on
 the Gaussian(R) 03 system (copyright 2003, Gaussian, Inc.),
 the Gaussian(R) 98 system (copyright 1998, Gaussian, Inc.),
 the Gaussian(R) 94 system (copyright 1995, Gaussian, Inc.),
 the Gaussian 92(TM) system (copyright 1992, Gaussian, Inc.),
 the Gaussian 90(TM) system (copyright 1990, Gaussian, Inc.),
 the Gaussian 88(TM) system (copyright 1988, Gaussian, Inc.),
 the Gaussian 86(TM) system (copyright 1986, Carnegie Mellon
 University), and the Gaussian 82(TM) system (copyright 1983,
 Carnegie Mellon University). Gaussian is a federally registered
 trademark of Gaussian, Inc.
  
 This software contains proprietary and confidential information,
 including trade secrets, belonging to Gaussian, Inc.
  
 This software is provided under written license and may be
 used, copied, transmitted, or stored only in accord with that
 written license.
  
 The following legend is applicable only to US Government
 contracts under FAR:
  
                    RESTRICTED RIGHTS LEGEND
  
 Use, reproduction and disclosure by the US Government is
 subject to restrictions as set forth in subparagraphs (a)
 and (c) of the Commercial Computer Software - Restricted
 Rights clause in FAR 52.227-19.
  
 Gaussian, Inc.
 340 Quinnipiac St., Bldg. 40, Wallingford CT 06492
  
  
 ---------------------------------------------------------------
 Warning -- This program may not be used in any manner that
 competes with the business of Gaussian, Inc. or will provide
 assistance to any competitor of Gaussian, Inc.  The licensee
 of this program is prohibited from giving any competitor of
 Gaussian, Inc. access to this program.  By using this program,
 the user acknowledges that Gaussian, Inc. is engaged in the
 business of creating and licensing software in the field of
 computational chemistry and represents and warrants to the
 licensee that it is not a competitor of Gaussian, Inc. and that
 it will not use this program in any manner prohibited above.
 ---------------------------------------------------------------
  

 Cite this work as:
 Gaussian 09, Revision A.01,
 M. J. Frisch, G. W. Trucks, H. B. Schlegel, G. E. Scuseria, 
 M. A. Robb, J. R. Cheeseman, G. Scalmani, V. Barone, B. Mennucci, 
 G. A. Petersson, H. Nakatsuji, M. Caricato, X. Li, H. P. Hratchian, 
 A. F. Izmaylov, J. Bloino, G. Zheng, J. L. Sonnenberg, M. Hada, 
 M. Ehara, K. Toyota, R. Fukuda, J. Hasegawa, M. Ishida, T. Nakajima, 
 Y. Honda, O. Kitao, H. Nakai, T. Vreven, J. A. Montgomery, Jr., 
 J. E. Peralta, F. Ogliaro, M. Bearpark, J. J. Heyd, E. Brothers, 
 K. N. Kudin, V. N. Staroverov, R. Kobayashi, J. Normand, 
 K. Raghavachari, A. Rendell, J. C. Burant, S. S. Iyengar, J. Tomasi, 
 M. Cossi, N. Rega, J. M. Millam, M. Klene, J. E. Knox, J. B. Cross, 
 V. Bakken, C. Adamo, J. Jaramillo, R. Gomperts, R. E. Stratmann, 
 O. Yazyev, A. J. Austin, R. Cammi, C. Pomelli, J. W. Ochterski, 
 R. L. Martin, K. Morokuma, V. G. Zakrzewski, G. A. Voth, 
 P. Salvador, J. J. Dannenberg, S. Dapprich, A. D. Daniels, 
 O. Farkas, J. B. Foresman, J. V. Ortiz, J. Cioslowski, 
 and D. J. Fox, Gaussian, Inc., Wallingford CT, 2009.
 
 ******************************************
 Gaussian 09:  EM64L-G09RevA.01  8-May-2009
                24-Sep-2021 
 ******************************************
 %NPROC=4
 Will use up to    4 processors via shared memory.
 %NoSave
 ------------------------------
 #HF/6-31G* Opt=Z-matrix NoSymm
 ------------------------------
 1/10=7,18=40,38=1/1,3;
 2/12=2,15=1,17=6,18=5,29=3,40=1/2;
 3/5=1,6=6,7=1,11=9,16=1,25=1,30=1,71=1/1,2,3;
 4//1;
 5/5=2,38=5/2;
 6/7=2,8=2,9=2,10=2,28=1/1;
 7/29=1,30=1/1,2,3,16;
 1/10=7,18=40/3(2);
 2/15=1,29=3/2;
 99//99;
 2/15=1,29=3/2;
 3/5=1,6=6,7=1,11=9,16=1,25=1,30=1,71=1/1,2,3;
 4/5=5,16=3/1;
 5/5=2,38=5/2;
 7/30=1/1,2,3,16;
 1/18=40/3(-5);
 2/15=1,29=3/2;
 6/7=2,8=2,9=2,10=2,19=2,28=1/1;
 99/9=1/99;
 -------------------------------
 water interaction with atom N10
 -------------------------------
 Symbolic Z-matrix:
 Charge =  0 Multiplicity = 1
 9                    -1   -1.9693    2.05368   0.00007 
 6                    -1   -1.22225   0.94423   0.00003 
 6                    -1    0.14003   1.0574   -0.00002 
 6                    -1    0.92795  -0.12364  -0.00008 
 6                    -1    2.41466  -0.01865  -0.00001 
 9                    -1    3.00708  -1.23461  -0.00056 
 9                    -1    2.85829   0.65448  -1.08602 
 9                    -1    2.85827   0.6535    1.08665 
 6                    -1    0.30654  -1.34149  -0.00009 
 7                    -1   -1.05417  -1.38997  -0.00006 
 6                    -1   -1.9305   -0.3121    0. 
 16                   -1   -3.57098  -0.50661   0.00003 
 1                    -1    0.59686   2.0431   -0.00002 
 1                    -1    0.83176  -2.28899  -0.00015 
 1                    -1   -1.52148  -2.29639  -0.00009 
 OH2                  10   RX       9    AOH2     11   DOH2     0
 H1                   16   ROH      10   AHOA     9    DHO1     0
 H2                   16   ROH      10   AHOA     9    DHO2     0
       Variables:
  RX                    3.2254                   
       Constants:
  ROH                   0.9572                   
  AOH2                 90.00012                  
  AHOA                127.74                     
  DOH2                -90.00024                  
  DHO1                 90.                       
  DHO2                -90.                       
 

 GradGradGradGradGradGradGradGradGradGradGradGradGradGradGradGradGradGrad
 Berny optimization.
 Initialization pass.
                       ----------------------------
                       !    Initial Parameters    !
                       ! (Angstroms and Degrees)  !
 ----------------------                            ----------------------
 !      Name          Value   Derivative information (Atomic Units)     !
 ------------------------------------------------------------------------
 !       RX          3.2254   estimate D2E/DX2                          !
 !       ROH         0.9572   Frozen                                    !
 !      AOH2        90.0001   Frozen                                    !
 !      AHOA       127.74     Frozen                                    !
 !      DOH2       -90.0002   Frozen                                    !
 !      DHO1        90.0      Frozen                                    !
 !      DHO2       -90.0      Frozen                                    !
 ------------------------------------------------------------------------
 Trust Radius=3.00D-01 FncErr=1.00D-07 GrdErr=1.00D-07
 Number of steps in this run=  20 maximum allowed number of steps= 100.
 GradGradGradGradGradGradGradGradGradGradGradGradGradGradGradGradGradGrad

 ---------------------------------------------------------------------------------------------------
                            Z-MATRIX (ANGSTROMS AND DEGREES)
   CD    Cent   Atom    N1       Length/X        N2       Alpha/Y        N3        Beta/Z          J
 ---------------------------------------------------------------------------------------------------
      1      1  F       -1  -1.969300          2.053680          0.000070
      2      2  C       -1  -1.222250          0.944230          0.000030
      3      3  C       -1   0.140030          1.057400         -0.000020
      4      4  C       -1   0.927950         -0.123640         -0.000080
      5      5  C       -1   2.414660         -0.018650         -0.000010
      6      6  F       -1   3.007080         -1.234610         -0.000560
      7      7  F       -1   2.858290          0.654480         -1.086020
      8      8  F       -1   2.858270          0.653500          1.086650
      9      9  C       -1   0.306540         -1.341490         -0.000090
     10     10  N       -1  -1.054170         -1.389970         -0.000060
     11     11  C       -1  -1.930500         -0.312100          0.000000
     12     12  S       -1  -3.570980         -0.506610          0.000030
     13     13  H       -1   0.596860          2.043100         -0.000020
     14     14  H       -1   0.831760         -2.288990         -0.000150
     15     15  H       -1  -1.521480         -2.296390         -0.000090
     16     16  O       10   3.225400(    15)      9   90.000(    31)     11  -90.000(    46)      0
     17     17  H       16   0.957200(    16)     10  127.740(    32)      9   90.000(    47)      0
     18     18  H       16   0.957200(    17)     10  127.740(    33)      9  -90.000(    48)      0
 ---------------------------------------------------------------------------------------------------
                         Z-Matrix orientation:                         
 ---------------------------------------------------------------------
 Center     Atomic      Atomic             Coordinates (Angstroms)
 Number     Number       Type             X           Y           Z
 ---------------------------------------------------------------------
      1          9           0       -1.969300    2.053680    0.000070
      2          6           0       -1.222250    0.944230    0.000030
      3          6           0        0.140030    1.057400   -0.000020
      4          6           0        0.927950   -0.123640   -0.000080
      5          6           0        2.414660   -0.018650   -0.000010
      6          9           0        3.007080   -1.234610   -0.000560
      7          9           0        2.858290    0.654480   -1.086020
      8          9           0        2.858270    0.653500    1.086650
      9          6           0        0.306540   -1.341490   -0.000090
     10          7           0       -1.054170   -1.389970   -0.000060
     11          6           0       -1.930500   -0.312100    0.000000
     12         16           0       -3.570980   -0.506610    0.000030
     13          1           0        0.596860    2.043100   -0.000020
     14          1           0        0.831760   -2.288990   -0.000150
     15          1           0       -1.521480   -2.296390   -0.000090
     16          8           0       -1.054101   -1.390102    3.225340
     17          1           0       -1.081040   -0.633656    3.811254
     18          1           0       -1.027137   -2.146596    3.811191
 ---------------------------------------------------------------------
                    Distance matrix (angstroms):
                    1          2          3          4          5
     1  F    0.000000
     2  C    1.337521   0.000000
     3  C    2.332777   1.366973   0.000000
     4  C    3.624194   2.400772   1.419744   0.000000
     5  C    4.849088   3.762214   2.516312   1.490413   0.000000
     6  F    5.964663   4.757581   3.670597   2.357337   1.352598
     7  F    5.142274   4.232525   2.954772   2.347541   1.352527
     8  F    5.142625   4.232719   2.955134   2.347566   1.352555
     9  C    4.087374   2.749857   2.404662   1.367227   2.488790
    10  N    3.563171   2.340244   2.723184   2.352104   3.730054
    11  C    2.366098   1.442215   2.482463   2.864656   4.355058
    12  S    3.020011   2.760701   4.027123   4.515201   6.005497
    13  H    2.566182   2.125247   1.086415   2.191890   2.748674
    14  H    5.167661   3.830492   3.417136   2.167485   2.767673
    15  H    4.373060   3.254406   3.742796   3.274225   4.547669
    16  O    4.806203   3.984972   4.221275   3.991965   4.931132
    17  H    4.747199   4.127359   4.344708   4.338482   5.208060
    18  H    5.749316   4.910827   5.114020   4.737141   5.558720
                    6          7          8          9         10
     6  F    0.000000
     7  F    2.183809   0.000000
     8  F    2.183834   2.172670   0.000000
     9  C    2.702654   3.416807   3.416477   0.000000
    10  N    4.064221   4.546034   4.545756   1.361573   0.000000
    11  C    5.023019   5.004620   5.004549   2.462517   1.389157
    12  S    6.618222   6.622926   6.622828   3.966382   2.667332
    13  H    4.068482   2.867355   2.868068   3.397019   3.809445
    14  H    2.417382   3.734964   3.734451   1.083334   2.089251
    15  H    4.651369   5.391592   5.391203   2.062399   1.019792
    16  O    5.188815   6.170490   4.904789   3.501015   3.225400
    17  H    5.621726   6.415677   4.959678   4.117372   3.885723
    18  H    5.624595   6.850200   5.509995   4.117372   3.885723
                   11         12         13         14         15
    11  C    0.000000
    12  S    1.651971   0.000000
    13  H    3.454637   4.885889   0.000000
    14  H    3.396789   4.749842   4.338454   0.000000
    15  H    2.026007   2.720986   4.828927   2.353252   0.000000
    16  O    3.511835   4.185435   4.991542   3.842949   3.382780
    17  H    3.917989   4.554269   4.950372   4.574466   4.181509
    18  H    4.325115   4.866790   5.892050   4.242887   3.846125
                   16         17         18
    16  O    0.000000
    17  H    0.957200   0.000000
    18  H    0.957200   1.513901   0.000000
 Symmetry turned off by external request.
 Stoichiometry    C6H5F4NOS
 Framework group  C1[X(C6H5F4NOS)]
 Deg. of freedom    48
 Full point group                 C1      NOp   1
 Rotational constants (GHZ):      1.0611053      0.3854175      0.3446854
 Standard basis: 6-31G(d) (6D, 7F)
 Integral buffers will be    131072 words long.
 Raffenetti 1 integral format.
 Two-electron integral symmetry is turned off.
   209 basis functions,   408 primitive gaussians,   209 cartesian basis functions
    54 alpha electrons       54 beta electrons
       nuclear repulsion energy       930.5033460225 Hartrees.
 NAtoms=   18 NActive=   18 NUniq=   18 SFac= 7.50D-01 NAtFMM=   80 NAOKFM=F Big=F
 One-electron integrals computed using PRISM.
 NBasis=   209 RedAO= T  NBF=   209
 NBsUse=   209 1.00D-06 NBFU=   209
 Harris functional with IExCor=  205 diagonalized for initial guess.
 ExpMin= 1.17D-01 ExpMax= 2.19D+04 ExpMxC= 3.30D+03 IAcc=1 IRadAn=         1 AccDes= 0.00D+00
 HarFok:  IExCor=  205 AccDes= 0.00D+00 IRadAn=         1 IDoV= 1
 ScaDFX=  1.000000  1.000000  1.000000  1.000000
 FoFCou: FMM=F IPFlag=           0 FMFlag=      100000 FMFlg1=           0
         NFxFlg=           0 DoJE=T BraDBF=F KetDBF=T FulRan=T
         Omega=  0.000000  0.000000  1.000000  0.000000  0.000000 ICntrl=     500 IOpCl=  0
         NMat0=    1 NMatS0=    1 NMatT0=    0 NMatD0=    1 NMtDS0=    0 NMtDT0=    0
         I1Cent=           4 NGrid=           0.
 Symmetry not used in FoFCou.
 Requested convergence on RMS density matrix=1.00D-08 within 128 cycles.
 Requested convergence on MAX density matrix=1.00D-06.
 Requested convergence on             energy=1.00D-06.
 No special actions if energy rises.
 Integral accuracy reduced to 1.0D-05 until final iterations.
 Initial convergence to 1.0D-05 achieved.  Increase integral accuracy.
 SCF Done:  E(RHF) =  -1154.67568357     A.U. after   15 cycles
             Convg  =    0.6876D-08             -V/T =  2.0019

 **********************************************************************

            Population analysis using the SCF density.

 **********************************************************************

 Alpha  occ. eigenvalues --  -91.89100 -26.35966 -26.35039 -26.35035 -26.32413
 Alpha  occ. eigenvalues --  -20.57488 -15.67192 -11.53211 -11.36493 -11.35918
 Alpha  occ. eigenvalues --  -11.34845 -11.30072 -11.28960  -8.90200  -6.58534
 Alpha  occ. eigenvalues --   -6.58252  -6.58132  -1.73223  -1.64233  -1.63694
 Alpha  occ. eigenvalues --   -1.63553  -1.35608  -1.33972  -1.15840  -1.10723
 Alpha  occ. eigenvalues --   -1.01831  -0.95958  -0.91429  -0.86953  -0.83745
 Alpha  occ. eigenvalues --   -0.82792  -0.82472  -0.75771  -0.74714  -0.72646
 Alpha  occ. eigenvalues --   -0.72130  -0.71411  -0.70661  -0.70299  -0.69053
 Alpha  occ. eigenvalues --   -0.66662  -0.66634  -0.65249  -0.62935  -0.61360
 Alpha  occ. eigenvalues --   -0.59580  -0.58218  -0.58169  -0.51320  -0.51241
 Alpha  occ. eigenvalues --   -0.45176  -0.41848  -0.32837  -0.29696
 Alpha virt. eigenvalues --    0.05857   0.10138   0.18577   0.20220   0.25477
 Alpha virt. eigenvalues --    0.26362   0.27671   0.27821   0.29345   0.31151
 Alpha virt. eigenvalues --    0.34860   0.36696   0.40380   0.41738   0.43816
 Alpha virt. eigenvalues --    0.43976   0.47972   0.50731   0.55418   0.56750
 Alpha virt. eigenvalues --    0.57929   0.60988   0.62532   0.65552   0.67867
 Alpha virt. eigenvalues --    0.68901   0.73141   0.73965   0.74823   0.76301
 Alpha virt. eigenvalues --    0.77898   0.79046   0.84085   0.85461   0.88305
 Alpha virt. eigenvalues --    0.90294   0.91089   0.93054   0.96836   0.99983
 Alpha virt. eigenvalues --    1.01603   1.03405   1.04264   1.05844   1.08666
 Alpha virt. eigenvalues --    1.10265   1.11168   1.13827   1.14233   1.15934
 Alpha virt. eigenvalues --    1.16362   1.17327   1.18930   1.25600   1.26321
 Alpha virt. eigenvalues --    1.29930   1.32460   1.32652   1.34448   1.35965
 Alpha virt. eigenvalues --    1.36155   1.37645   1.40076   1.42512   1.43551
 Alpha virt. eigenvalues --    1.44137   1.47665   1.48773   1.53154   1.61528
 Alpha virt. eigenvalues --    1.61857   1.62581   1.64832   1.65300   1.65535
 Alpha virt. eigenvalues --    1.66524   1.67812   1.68928   1.70763   1.71421
 Alpha virt. eigenvalues --    1.73190   1.77615   1.77724   1.82652   1.88363
 Alpha virt. eigenvalues --    1.90886   1.93527   1.95329   2.00816   2.01916
 Alpha virt. eigenvalues --    2.03113   2.05355   2.05793   2.07587   2.10280
 Alpha virt. eigenvalues --    2.11013   2.13227   2.13732   2.19086   2.21460
 Alpha virt. eigenvalues --    2.23694   2.23719   2.25762   2.29405   2.31225
 Alpha virt. eigenvalues --    2.31729   2.33778   2.35200   2.35885   2.37012
 Alpha virt. eigenvalues --    2.39352   2.40921   2.44606   2.46282   2.47218
 Alpha virt. eigenvalues --    2.48447   2.53677   2.61197   2.62142   2.63321
 Alpha virt. eigenvalues --    2.66676   2.69367   2.76341   2.84223   2.85632
 Alpha virt. eigenvalues --    2.85944   2.92764   2.94049   2.94548   2.94630
 Alpha virt. eigenvalues --    3.01613   3.08386   3.11012   3.18493   3.23470
 Alpha virt. eigenvalues --    3.30738   3.38333   3.39365   3.44107   3.45428
 Alpha virt. eigenvalues --    3.50566   3.72567   3.98705   4.38143   4.41528
 Alpha virt. eigenvalues --    4.46413   4.49599   4.61530   4.65495   4.69594
 Alpha virt. eigenvalues --    4.83041   5.02603   5.16499   5.59403   6.02781
          Condensed to atoms (all electrons):
              1          2          3          4          5          6
     1  F    9.166177   0.265630  -0.033981   0.002222  -0.000015   0.000000
     2  C    0.265630   4.585419   0.564825  -0.023240   0.000955  -0.000019
     3  C   -0.033981   0.564825   5.069272   0.352676  -0.012947   0.002186
     4  C    0.002222  -0.023240   0.352676   5.210248   0.419318  -0.045337
     5  C   -0.000015   0.000955  -0.012947   0.419318   3.554647   0.288251
     6  F    0.000000  -0.000019   0.002186  -0.045337   0.288251   9.190960
     7  F    0.000000   0.000293   0.005067  -0.055983   0.283697  -0.030688
     8  F    0.000000   0.000296   0.005029  -0.055496   0.283070  -0.030671
     9  C    0.000130  -0.026056  -0.050838   0.585552  -0.021401   0.005356
    10  N    0.001381  -0.046605  -0.024061  -0.029089   0.001366   0.000237
    11  C   -0.040778   0.380623  -0.075082  -0.004261   0.000025   0.000002
    12  S    0.003289  -0.084632   0.001982  -0.000134   0.000005   0.000000
    13  H   -0.000242  -0.018203   0.369152  -0.030423  -0.000331   0.000035
    14  H    0.000000  -0.000133   0.001893  -0.023598  -0.000215   0.004977
    15  H   -0.000018   0.003824  -0.000563   0.002413  -0.000016   0.000001
    16  O    0.000000  -0.000576   0.000273  -0.000740  -0.000022   0.000000
    17  H   -0.000001   0.000138  -0.000019   0.000068   0.000002   0.000000
    18  H    0.000000   0.000010  -0.000005   0.000015   0.000001   0.000000
              7          8          9         10         11         12
     1  F    0.000000   0.000000   0.000130   0.001381  -0.040778   0.003289
     2  C    0.000293   0.000296  -0.026056  -0.046605   0.380623  -0.084632
     3  C    0.005067   0.005029  -0.050838  -0.024061  -0.075082   0.001982
     4  C   -0.055983  -0.055496   0.585552  -0.029089  -0.004261  -0.000134
     5  C    0.283697   0.283070  -0.021401   0.001366   0.000025   0.000005
     6  F   -0.030688  -0.030671   0.005356   0.000237   0.000002   0.000000
     7  F    9.205232  -0.033976   0.000510  -0.000005  -0.000002   0.000000
     8  F   -0.033976   9.205729   0.000542  -0.000007  -0.000002   0.000000
     9  C    0.000510   0.000542   4.713307   0.266133  -0.035360   0.003462
    10  N   -0.000005  -0.000007   0.266133   7.206517   0.218660  -0.102690
    11  C   -0.000002  -0.000002  -0.035360   0.218660   4.924276   0.440324
    12  S    0.000000   0.000000   0.003462  -0.102690   0.440324  15.976065
    13  H    0.000908   0.000904   0.002491  -0.000278   0.002691  -0.000058
    14  H    0.000082   0.000084   0.380590  -0.032449   0.001060  -0.000134
    15  H    0.000000   0.000000  -0.021781   0.311581  -0.018184   0.013299
    16  O    0.000000   0.000000   0.002910  -0.002516   0.001705   0.000729
    17  H    0.000000   0.000000  -0.000119   0.000122  -0.000073  -0.000048
    18  H    0.000000   0.000000  -0.000050   0.000117  -0.000020  -0.000012
             13         14         15         16         17         18
     1  F   -0.000242   0.000000  -0.000018   0.000000  -0.000001   0.000000
     2  C   -0.018203  -0.000133   0.003824  -0.000576   0.000138   0.000010
     3  C    0.369152   0.001893  -0.000563   0.000273  -0.000019  -0.000005
     4  C   -0.030423  -0.023598   0.002413  -0.000740   0.000068   0.000015
     5  C   -0.000331  -0.000215  -0.000016  -0.000022   0.000002   0.000001
     6  F    0.000035   0.004977   0.000001   0.000000   0.000000   0.000000
     7  F    0.000908   0.000082   0.000000   0.000000   0.000000   0.000000
     8  F    0.000904   0.000084   0.000000   0.000000   0.000000   0.000000
     9  C    0.002491   0.380590  -0.021781   0.002910  -0.000119  -0.000050
    10  N   -0.000278  -0.032449   0.311581  -0.002516   0.000122   0.000117
    11  C    0.002691   0.001060  -0.018184   0.001705  -0.000073  -0.000020
    12  S   -0.000058  -0.000134   0.013299   0.000729  -0.000048  -0.000012
    13  H    0.399320  -0.000064   0.000009   0.000002  -0.000001   0.000000
    14  H   -0.000064   0.388267  -0.002194   0.000104  -0.000004  -0.000005
    15  H    0.000009  -0.002194   0.273019  -0.000037   0.000000   0.000008
    16  O    0.000002   0.000104  -0.000037   8.340427   0.266324   0.265153
    17  H   -0.000001  -0.000004   0.000000   0.266324   0.310229  -0.018132
    18  H    0.000000  -0.000005   0.000008   0.265153  -0.018132   0.316583
 Mulliken atomic charges:
              1
     1  F   -0.363795
     2  C    0.397454
     3  C   -0.174860
     4  C   -0.304209
     5  C    1.203609
     6  F   -0.385290
     7  F   -0.375138
     8  F   -0.375502
     9  C    0.194623
    10  N   -0.768415
    11  C    0.204395
    12  S   -0.251447
    13  H    0.274089
    14  H    0.281737
    15  H    0.438637
    16  O   -0.873736
    17  H    0.441512
    18  H    0.436335
 Sum of Mulliken atomic charges =   0.00000
 Mulliken charges with hydrogens summed into heavy atoms:
              1
     1  F   -0.363795
     2  C    0.397454
     3  C    0.099229
     4  C   -0.304209
     5  C    1.203609
     6  F   -0.385290
     7  F   -0.375138
     8  F   -0.375502
     9  C    0.476360
    10  N   -0.329777
    11  C    0.204395
    12  S   -0.251447
    16  O    0.004112
 Sum of Mulliken charges with hydrogens summed into heavy atoms =   0.00000
 Electronic spatial extent (au):  <R**2>=           3147.6659
 Charge=              0.0000 electrons
 Dipole moment (field-independent basis, Debye):
    X=              3.5610    Y=             -2.8777    Z=              2.5218  Tot=              5.2270
 Quadrupole moment (field-independent basis, Debye-Ang):
   XX=           -107.4260   YY=            -68.9626   ZZ=            -65.8973
   XY=              1.9937   XZ=             -2.7555   YZ=             -3.3382
 Traceless Quadrupole moment (field-independent basis, Debye-Ang):
   XX=            -26.6640   YY=             11.7994   ZZ=             14.8647
   XY=              1.9937   XZ=             -2.7555   YZ=             -3.3382
 Octapole moment (field-independent basis, Debye-Ang**2):
  XXX=            129.5653  YYY=              8.0550  ZZZ=             18.8163  XYY=             27.1829
  XXY=             14.0015  XXZ=            -20.3232  XZZ=              6.6530  YZZ=             -8.5285
  YYZ=             -7.7632  XYZ=              3.1839
 Hexadecapole moment (field-independent basis, Debye-Ang**3):
 XXXX=          -2752.8893 YYYY=           -501.5989 ZZZZ=           -182.3895 XXXY=            -73.4374
 XXXZ=             70.1741 YYYX=            -20.9382 YYYZ=             45.1755 ZZZX=            -20.7964
 ZZZY=            -24.7884 XXYY=           -535.3147 XXZZ=           -513.3105 YYZZ=           -131.5203
 XXYZ=             29.6254 YYXZ=              9.1997 ZZXY=             -4.1470
 N-N= 9.305033460225D+02 E-N=-4.599889264663D+03  KE= 1.152540952215D+03
 Calling FoFJK, ICntrl=      2127 FMM=F ISym2X=0 I1Cent= 0 IOpClX= 0 NMat=1 NMatS=1 NMatT=0.
 -------------------------------------------------------------------
 Center     Atomic                   Forces (Hartrees/Bohr)
 Number     Number              X              Y              Z
 -------------------------------------------------------------------
      1        9           0.000000000    0.000000000    0.000000000
      2        6           0.000000000    0.000000000    0.000000000
      3        6           0.000000000    0.000000000    0.000000000
      4        6           0.000000000    0.000000000    0.000000000
      5        6           0.000000000    0.000000000    0.000000000
      6        9           0.000000000    0.000000000    0.000000000
      7        9           0.000000000    0.000000000    0.000000000
      8        9           0.000000000    0.000000000    0.000000000
      9        6           0.000000000    0.000000000    0.000000000
     10        7           0.000000000    0.000000000    0.000000000
     11        6           0.000000000    0.000000000    0.000000000
     12       16           0.000000000    0.000000000    0.000000000
     13        1           0.000000000    0.000000000    0.000000000
     14        1           0.000000000    0.000000000    0.000000000
     15        1           0.000000000    0.000000000    0.000000000
     16        8           0.002424840   -0.000989794    0.014384849
     17        1          -0.000639677   -0.007095301   -0.007456355
     18        1          -0.001022589    0.007640705   -0.006681440
 -------------------------------------------------------------------
 Cartesian Forces:  Max     0.014384849 RMS     0.002802779
 -----------------------------------------------------------------------------------------------
                       Internal Coordinate Forces (Hartree/Bohr or radian)
  Cent   Atom   N1       Length/X         N2         Alpha/Y        N3         Beta/Z          J
 -----------------------------------------------------------------------------------------------
      1  F 
      2  C 
      3  C 
      4  C 
      5  C 
      6  F 
      7  F 
      8  F 
      9  C 
     10  N 
     11  C 
     12  S 
     13  H 
     14  H 
     15  H 
     16  O       10   0.000247(     1)      9  -0.002731(     4)     11  -0.001096(     7)     0
     17  H       16  -0.010153(     2)     10  -0.002840(     5)      9   0.001276(     8)     0
     18  H       16  -0.010157(     3)     10  -0.001064(     6)      9  -0.001072(     9)     0
 -----------------------------------------------------------------------------------------------
 Internal  Forces:  Max     0.010156759 RMS     0.005021558

 GradGradGradGradGradGradGradGradGradGradGradGradGradGradGradGradGradGrad
 Berny optimization.
 Search for a local minimum.
 Step number   1 out of a maximum of   20
 All quantities printed in internal units (Hartrees-Bohrs-Radians)
 Second derivative matrix not updated -- first step.
 The second derivative matrix:
                          RX        ROH      AOH2      AHOA      DOH2
           RX           0.01379
           ROH          0.00000   1.12160
           AOH2         0.00000   0.00000   0.40504
           AHOA         0.00000   0.00000   0.00000   0.96000
           DOH2         0.00000   0.00000   0.03402   0.00000   0.33889
           DHO1         0.00000   0.00000   0.00798   0.00000   0.00000
           DHO2         0.00000   0.00000  -0.00798   0.00000   0.00000
                         DHO1      DHO2
           DHO1         0.03504
           DHO2        -0.02814   0.03504
     Eigenvalues ---    0.013791000.000001000.000001000.000001000.00000
     Eigenvalues --- 1000.000001000.00000
 RFO step:  Lambda=-4.42793134D-06 EMin= 1.37880870D-02
 Linear search not attempted -- first point.
 Variable       Old X    -DE/DX   Delta X   Delta X   Delta X     New X
                                 (Linear)    (Quad)   (Total)
    RX        6.09512   0.00025   0.00000   0.01791   0.01791   6.11304
   ROH        1.80885  -0.02031   0.00000   0.00000   0.00000   1.80885
   AOH2       1.57080  -0.00273   0.00000   0.00000   0.00000   1.57080
   AHOA       2.22948  -0.00390   0.00000   0.00000   0.00000   2.22948
   DOH2      -1.57080  -0.00110   0.00000   0.00000   0.00000  -1.57080
   DHO1       1.57080   0.00128   0.00000   0.00000   0.00000   1.57080
   DHO2      -1.57080  -0.00107   0.00000   0.00000   0.00000  -1.57080
         Item               Value     Threshold  Converged?
 Maximum Force            0.000247     0.000450     YES
 RMS     Force            0.000247     0.000300     YES
 Maximum Displacement     0.017915     0.001800     NO 
 RMS     Displacement     0.006771     0.001200     NO 
 Predicted change in Energy=-2.213965D-06
 GradGradGradGradGradGradGradGradGradGradGradGradGradGradGradGradGradGrad

 ---------------------------------------------------------------------------------------------------
                            Z-MATRIX (ANGSTROMS AND DEGREES)
   CD    Cent   Atom    N1       Length/X        N2       Alpha/Y        N3        Beta/Z          J
 ---------------------------------------------------------------------------------------------------
      1      1  F       -1  -1.969300          2.053680          0.000070
      2      2  C       -1  -1.222250          0.944230          0.000030
      3      3  C       -1   0.140030          1.057400         -0.000020
      4      4  C       -1   0.927950         -0.123640         -0.000080
      5      5  C       -1   2.414660         -0.018650         -0.000010
      6      6  F       -1   3.007080         -1.234610         -0.000560
      7      7  F       -1   2.858290          0.654480         -1.086020
      8      8  F       -1   2.858270          0.653500          1.086650
      9      9  C       -1   0.306540         -1.341490         -0.000090
     10     10  N       -1  -1.054170         -1.389970         -0.000060
     11     11  C       -1  -1.930500         -0.312100          0.000000
     12     12  S       -1  -3.570980         -0.506610          0.000030
     13     13  H       -1   0.596860          2.043100         -0.000020
     14     14  H       -1   0.831760         -2.288990         -0.000150
     15     15  H       -1  -1.521480         -2.296390         -0.000090
     16     16  O       10   3.234880(    15)      9   90.000(    31)     11  -90.000(    46)      0
     17     17  H       16   0.957200(    16)     10  127.740(    32)      9   90.000(    47)      0
     18     18  H       16   0.957200(    17)     10  127.740(    33)      9  -90.000(    48)      0
 ---------------------------------------------------------------------------------------------------
                         Z-Matrix orientation:                         
 ---------------------------------------------------------------------
 Center     Atomic      Atomic             Coordinates (Angstroms)
 Number     Number       Type             X           Y           Z
 ---------------------------------------------------------------------
      1          9           0       -1.969300    2.053680    0.000070
      2          6           0       -1.222250    0.944230    0.000030
      3          6           0        0.140030    1.057400   -0.000020
      4          6           0        0.927950   -0.123640   -0.000080
      5          6           0        2.414660   -0.018650   -0.000010
      6          9           0        3.007080   -1.234610   -0.000560
      7          9           0        2.858290    0.654480   -1.086020
      8          9           0        2.858270    0.653500    1.086650
      9          6           0        0.306540   -1.341490   -0.000090
     10          7           0       -1.054170   -1.389970   -0.000060
     11          6           0       -1.930500   -0.312100    0.000000
     12         16           0       -3.570980   -0.506610    0.000030
     13          1           0        0.596860    2.043100   -0.000020
     14          1           0        0.831760   -2.288990   -0.000150
     15          1           0       -1.521480   -2.296390   -0.000090
     16          8           0       -1.054101   -1.390102    3.234820
     17          1           0       -1.081040   -0.633656    3.820734
     18          1           0       -1.027136   -2.146597    3.820671
 ---------------------------------------------------------------------
                    Distance matrix (angstroms):
                    1          2          3          4          5
     1  F    0.000000
     2  C    1.337521   0.000000
     3  C    2.332777   1.366973   0.000000
     4  C    3.624194   2.400772   1.419744   0.000000
     5  C    4.849088   3.762214   2.516312   1.490413   0.000000
     6  F    5.964663   4.757581   3.670597   2.357337   1.352598
     7  F    5.142274   4.232525   2.954772   2.347541   1.352527
     8  F    5.142625   4.232719   2.955134   2.347566   1.352555
     9  C    4.087374   2.749857   2.404662   1.367227   2.488790
    10  N    3.563171   2.340244   2.723184   2.352104   3.730054
    11  C    2.366098   1.442215   2.482463   2.864656   4.355058
    12  S    3.020011   2.760701   4.027123   4.515201   6.005497
    13  H    2.566182   2.125247   1.086415   2.191890   2.748674
    14  H    5.167661   3.830492   3.417136   2.167485   2.767673
    15  H    4.373060   3.254406   3.742796   3.274225   4.547669
    16  O    4.812571   3.992649   4.228523   3.999629   4.937338
    17  H    4.754814   4.136114   4.353027   4.346812   5.215001
    18  H    5.755605   4.918188   5.121089   4.744771   5.565224
                    6          7          8          9         10
     6  F    0.000000
     7  F    2.183809   0.000000
     8  F    2.183834   2.172670   0.000000
     9  C    2.702654   3.416807   3.416477   0.000000
    10  N    4.064221   4.546034   4.545756   1.361573   0.000000
    11  C    5.023019   5.004620   5.004549   2.462517   1.389157
    12  S    6.618222   6.622926   6.622828   3.966382   2.667332
    13  H    4.068482   2.867355   2.868068   3.397019   3.809445
    14  H    2.417382   3.734964   3.734451   1.083334   2.089251
    15  H    4.651369   5.391592   5.391203   2.062399   1.019792
    16  O    5.194714   6.177117   4.908930   3.509751   3.234880
    17  H    5.628158   6.422916   4.964892   4.126149   3.895022
    18  H    5.631024   6.856981   5.514689   4.126149   3.895022
                   11         12         13         14         15
    11  C    0.000000
    12  S    1.651971   0.000000
    13  H    3.454637   4.885889   0.000000
    14  H    3.396789   4.749842   4.338454   0.000000
    15  H    2.026007   2.720986   4.828927   2.353252   0.000000
    16  O    3.520543   4.192745   4.997673   3.850909   3.391820
    17  H    3.927211   4.562206   4.957674   4.582367   4.190151
    18  H    4.333471   4.874217   5.898186   4.251405   3.855519
                   16         17         18
    16  O    0.000000
    17  H    0.957200   0.000000
    18  H    0.957200   1.513901   0.000000
 Symmetry turned off by external request.
 Stoichiometry    C6H5F4NOS
 Framework group  C1[X(C6H5F4NOS)]
 Deg. of freedom    48
 Full point group                 C1      NOp   1
 Rotational constants (GHZ):      1.0588744      0.3852900      0.3445385
 Standard basis: 6-31G(d) (6D, 7F)
 Integral buffers will be    131072 words long.
 Raffenetti 1 integral format.
 Two-electron integral symmetry is turned off.
   209 basis functions,   408 primitive gaussians,   209 cartesian basis functions
    54 alpha electrons       54 beta electrons
       nuclear repulsion energy       930.2975052876 Hartrees.
 NAtoms=   18 NActive=   18 NUniq=   18 SFac= 7.50D-01 NAtFMM=   80 NAOKFM=F Big=F
 One-electron integrals computed using PRISM.
 NBasis=   209 RedAO= T  NBF=   209
 NBsUse=   209 1.00D-06 NBFU=   209
 Initial guess read from the read-write file.
 B after Tr=     0.000000    0.000000    0.000000
         Rot=    1.000000    0.000000    0.000000    0.000000 Ang=   0.00 deg.
 Requested convergence on RMS density matrix=1.00D-08 within 128 cycles.
 Requested convergence on MAX density matrix=1.00D-06.
 Requested convergence on             energy=1.00D-06.
 No special actions if energy rises.
 SCF Done:  E(RHF) =  -1154.67568752     A.U. after    8 cycles
             Convg  =    0.5214D-08             -V/T =  2.0019
 Calling FoFJK, ICntrl=      2127 FMM=F ISym2X=0 I1Cent= 0 IOpClX= 0 NMat=1 NMatS=1 NMatT=0.
 -------------------------------------------------------------------
 Center     Atomic                   Forces (Hartrees/Bohr)
 Number     Number              X              Y              Z
 -------------------------------------------------------------------
      1        9           0.000000000    0.000000000    0.000000000
      2        6           0.000000000    0.000000000    0.000000000
      3        6           0.000000000    0.000000000    0.000000000
      4        6           0.000000000    0.000000000    0.000000000
      5        6           0.000000000    0.000000000    0.000000000
      6        9           0.000000000    0.000000000    0.000000000
      7        9           0.000000000    0.000000000    0.000000000
      8        9           0.000000000    0.000000000    0.000000000
      9        6           0.000000000    0.000000000    0.000000000
     10        7           0.000000000    0.000000000    0.000000000
     11        6           0.000000000    0.000000000    0.000000000
     12       16           0.000000000    0.000000000    0.000000000
     13        1           0.000000000    0.000000000    0.000000000
     14        1           0.000000000    0.000000000    0.000000000
     15        1           0.000000000    0.000000000    0.000000000
     16        8           0.002414107   -0.000983850    0.014343328
     17        1          -0.000634975   -0.007097861   -0.007460144
     18        1          -0.001018923    0.007641591   -0.006688902
 -------------------------------------------------------------------
 Cartesian Forces:  Max     0.014343328 RMS     0.002799263
 -----------------------------------------------------------------------------------------------
                       Internal Coordinate Forces (Hartree/Bohr or radian)
  Cent   Atom   N1       Length/X         N2         Alpha/Y        N3         Beta/Z          J
 -----------------------------------------------------------------------------------------------
      1  F 
      2  C 
      3  C 
      4  C 
      5  C 
      6  F 
      7  F 
      8  F 
      9  C 
     10  N 
     11  C 
     12  S 
     13  H 
     14  H 
     15  H 
     16  O       10   0.000194(     1)      9  -0.002740(     4)     11  -0.001086(     7)     0
     17  H       16  -0.010158(     2)     10  -0.002842(     5)      9   0.001269(     8)     0
     18  H       16  -0.010162(     3)     10  -0.001074(     6)      9  -0.001067(     9)     0
 -----------------------------------------------------------------------------------------------
 Internal  Forces:  Max     0.010161924 RMS     0.005023829

 GradGradGradGradGradGradGradGradGradGradGradGradGradGradGradGradGradGrad
 Berny optimization.
 Search for a local minimum.
 Step number   2 out of a maximum of   20
 All quantities printed in internal units (Hartrees-Bohrs-Radians)
 Update second derivatives using D2CorN and points    1    2
 DE= -3.95D-06 DEPred=-2.21D-06 R= 1.78D+00
 SS=  1.41D+00  RLast= 1.79D-02 DXNew= 5.0454D-01 5.3744D-02
 Trust test= 1.78D+00 RLast= 1.79D-02 DXMaxT set to 3.00D-01
 The second derivative matrix:
                          RX        ROH      AOH2      AHOA      DOH2
           RX           0.00295
           ROH          0.00027   1.12160
           AOH2         0.00025   0.00000   0.40504
           AHOA         0.00034   0.00000   0.00000   0.96000
           DOH2        -0.00030   0.00000   0.03402   0.00000   0.33889
           DHO1         0.00018   0.00000   0.00798   0.00000   0.00000
           DHO2        -0.00015   0.00000  -0.00798   0.00000   0.00000
                         DHO1      DHO2
           DHO1         0.03504
           DHO2        -0.02814   0.03504
     Eigenvalues ---    0.002951000.000001000.000001000.000001000.00000
     Eigenvalues --- 1000.000001000.00000
 RFO step:  Lambda= 0.00000000D+00 EMin= 2.94573262D-03
 Quartic linear search produced a step of  2.00000.
 Variable       Old X    -DE/DX   Delta X   Delta X   Delta X     New X
                                 (Linear)    (Quad)   (Total)
    RX        6.11304   0.00019   0.03583   0.00000   0.03583   6.14887
   ROH        1.80885  -0.02032   0.00000   0.00000   0.00000   1.80885
   AOH2       1.57080  -0.00274   0.00000   0.00000   0.00000   1.57080
   AHOA       2.22948  -0.00392   0.00000   0.00000   0.00000   2.22948
   DOH2      -1.57080  -0.00109   0.00000   0.00000   0.00000  -1.57080
   DHO1       1.57080   0.00127   0.00000   0.00000   0.00000   1.57080
   DHO2      -1.57080  -0.00107   0.00000   0.00000   0.00000  -1.57080
         Item               Value     Threshold  Converged?
 Maximum Force            0.000194     0.000450     YES
 RMS     Force            0.000194     0.000300     YES
 Maximum Displacement     0.035829     0.001800     NO 
 RMS     Displacement     0.013542     0.001200     NO 
 Predicted change in Energy=-5.071457D-06
 GradGradGradGradGradGradGradGradGradGradGradGradGradGradGradGradGradGrad

 ---------------------------------------------------------------------------------------------------
                            Z-MATRIX (ANGSTROMS AND DEGREES)
   CD    Cent   Atom    N1       Length/X        N2       Alpha/Y        N3        Beta/Z          J
 ---------------------------------------------------------------------------------------------------
      1      1  F       -1  -1.969300          2.053680          0.000070
      2      2  C       -1  -1.222250          0.944230          0.000030
      3      3  C       -1   0.140030          1.057400         -0.000020
      4      4  C       -1   0.927950         -0.123640         -0.000080
      5      5  C       -1   2.414660         -0.018650         -0.000010
      6      6  F       -1   3.007080         -1.234610         -0.000560
      7      7  F       -1   2.858290          0.654480         -1.086020
      8      8  F       -1   2.858270          0.653500          1.086650
      9      9  C       -1   0.306540         -1.341490         -0.000090
     10     10  N       -1  -1.054170         -1.389970         -0.000060
     11     11  C       -1  -1.930500         -0.312100          0.000000
     12     12  S       -1  -3.570980         -0.506610          0.000030
     13     13  H       -1   0.596860          2.043100         -0.000020
     14     14  H       -1   0.831760         -2.288990         -0.000150
     15     15  H       -1  -1.521480         -2.296390         -0.000090
     16     16  O       10   3.253840(    15)      9   90.000(    31)     11  -90.000(    46)      0
     17     17  H       16   0.957200(    16)     10  127.740(    32)      9   90.000(    47)      0
     18     18  H       16   0.957200(    17)     10  127.740(    33)      9  -90.000(    48)      0
 ---------------------------------------------------------------------------------------------------
                         Z-Matrix orientation:                         
 ---------------------------------------------------------------------
 Center     Atomic      Atomic             Coordinates (Angstroms)
 Number     Number       Type             X           Y           Z
 ---------------------------------------------------------------------
      1          9           0       -1.969300    2.053680    0.000070
      2          6           0       -1.222250    0.944230    0.000030
      3          6           0        0.140030    1.057400   -0.000020
      4          6           0        0.927950   -0.123640   -0.000080
      5          6           0        2.414660   -0.018650   -0.000010
      6          9           0        3.007080   -1.234610   -0.000560
      7          9           0        2.858290    0.654480   -1.086020
      8          9           0        2.858270    0.653500    1.086650
      9          6           0        0.306540   -1.341490   -0.000090
     10          7           0       -1.054170   -1.389970   -0.000060
     11          6           0       -1.930500   -0.312100    0.000000
     12         16           0       -3.570980   -0.506610    0.000030
     13          1           0        0.596860    2.043100   -0.000020
     14          1           0        0.831760   -2.288990   -0.000150
     15          1           0       -1.521480   -2.296390   -0.000090
     16          8           0       -1.054100   -1.390103    3.253780
     17          1           0       -1.081040   -0.633657    3.839694
     18          1           0       -1.027136   -2.146598    3.839631
 ---------------------------------------------------------------------
                    Distance matrix (angstroms):
                    1          2          3          4          5
     1  F    0.000000
     2  C    1.337521   0.000000
     3  C    2.332777   1.366973   0.000000
     4  C    3.624194   2.400772   1.419744   0.000000
     5  C    4.849088   3.762214   2.516312   1.490413   0.000000
     6  F    5.964663   4.757581   3.670597   2.357337   1.352598
     7  F    5.142274   4.232525   2.954772   2.347541   1.352527
     8  F    5.142625   4.232719   2.955134   2.347566   1.352555
     9  C    4.087374   2.749857   2.404662   1.367227   2.488790
    10  N    3.563171   2.340244   2.723184   2.352104   3.730054
    11  C    2.366098   1.442215   2.482463   2.864656   4.355058
    12  S    3.020011   2.760701   4.027123   4.515201   6.005497
    13  H    2.566182   2.125247   1.086415   2.191890   2.748674
    14  H    5.167661   3.830492   3.417136   2.167485   2.767673
    15  H    4.373060   3.254406   3.742796   3.274225   4.547669
    16  O    4.825336   4.008026   4.243045   4.014979   4.949781
    17  H    4.770063   4.153635   4.369678   4.363487   5.228908
    18  H    5.768209   4.932932   5.135250   4.760052   5.578258
                    6          7          8          9         10
     6  F    0.000000
     7  F    2.183809   0.000000
     8  F    2.183834   2.172670   0.000000
     9  C    2.702654   3.416807   3.416477   0.000000
    10  N    4.064221   4.546034   4.545756   1.361573   0.000000
    11  C    5.023019   5.004620   5.004549   2.462517   1.389157
    12  S    6.618222   6.622926   6.622828   3.966382   2.667332
    13  H    4.068482   2.867355   2.868068   3.397019   3.809445
    14  H    2.417382   3.734964   3.734451   1.083334   2.089251
    15  H    4.651369   5.391592   5.391203   2.062399   1.019792
    16  O    5.206543   6.190394   4.917256   3.527233   3.253840
    17  H    5.641048   6.437412   4.975358   4.143712   3.913623
    18  H    5.643907   6.870561   5.524113   4.143712   3.913623
                   11         12         13         14         15
    11  C    0.000000
    12  S    1.651971   0.000000
    13  H    3.454637   4.885889   0.000000
    14  H    3.396789   4.749842   4.338454   0.000000
    15  H    2.026007   2.720986   4.828927   2.353252   0.000000
    16  O    3.537973   4.207390   5.009967   3.866850   3.409908
    17  H    3.945660   4.578096   4.972301   4.598188   4.207447
    18  H    4.350197   4.889094   5.910486   4.268452   3.874309
                   16         17         18
    16  O    0.000000
    17  H    0.957200   0.000000
    18  H    0.957200   1.513901   0.000000
 Symmetry turned off by external request.
 Stoichiometry    C6H5F4NOS
 Framework group  C1[X(C6H5F4NOS)]
 Deg. of freedom    48
 Full point group                 C1      NOp   1
 Rotational constants (GHZ):      1.0544220      0.3850369      0.3442417
 Standard basis: 6-31G(d) (6D, 7F)
 Integral buffers will be    131072 words long.
 Raffenetti 1 integral format.
 Two-electron integral symmetry is turned off.
   209 basis functions,   408 primitive gaussians,   209 cartesian basis functions
    54 alpha electrons       54 beta electrons
       nuclear repulsion energy       929.8876592097 Hartrees.
 NAtoms=   18 NActive=   18 NUniq=   18 SFac= 7.50D-01 NAtFMM=   80 NAOKFM=F Big=F
 One-electron integrals computed using PRISM.
 NBasis=   209 RedAO= T  NBF=   209
 NBsUse=   209 1.00D-06 NBFU=   209
 Initial guess read from the read-write file.
 B after Tr=     0.000000    0.000000    0.000000
         Rot=    1.000000    0.000000    0.000000    0.000000 Ang=   0.00 deg.
 Harris functional with IExCor=  205 diagonalized for initial guess.
 ExpMin= 1.17D-01 ExpMax= 2.19D+04 ExpMxC= 3.30D+03 IAcc=1 IRadAn=         1 AccDes= 0.00D+00
 HarFok:  IExCor=  205 AccDes= 0.00D+00 IRadAn=         1 IDoV= 1
 ScaDFX=  1.000000  1.000000  1.000000  1.000000
 FoFCou: FMM=F IPFlag=           0 FMFlag=      100000 FMFlg1=           0
         NFxFlg=           0 DoJE=T BraDBF=F KetDBF=T FulRan=T
         Omega=  0.000000  0.000000  1.000000  0.000000  0.000000 ICntrl=     500 IOpCl=  0
         NMat0=    1 NMatS0=    1 NMatT0=    0 NMatD0=    1 NMtDS0=    0 NMtDT0=    0
         I1Cent=           4 NGrid=           0.
 Symmetry not used in FoFCou.
 Requested convergence on RMS density matrix=1.00D-08 within 128 cycles.
 Requested convergence on MAX density matrix=1.00D-06.
 Requested convergence on             energy=1.00D-06.
 No special actions if energy rises.
 Integral accuracy reduced to 1.0D-05 until final iterations.
 Initial convergence to 1.0D-05 achieved.  Increase integral accuracy.
 SCF Done:  E(RHF) =  -1154.67569266     A.U. after    9 cycles
             Convg  =    0.6000D-08             -V/T =  2.0019
 Calling FoFJK, ICntrl=      2127 FMM=F ISym2X=0 I1Cent= 0 IOpClX= 0 NMat=1 NMatS=1 NMatT=0.
 -------------------------------------------------------------------
 Center     Atomic                   Forces (Hartrees/Bohr)
 Number     Number              X              Y              Z
 -------------------------------------------------------------------
      1        9           0.000000000    0.000000000    0.000000000
      2        6           0.000000000    0.000000000    0.000000000
      3        6           0.000000000    0.000000000    0.000000000
      4        6           0.000000000    0.000000000    0.000000000
      5        6           0.000000000    0.000000000    0.000000000
      6        9           0.000000000    0.000000000    0.000000000
      7        9           0.000000000    0.000000000    0.000000000
      8        9           0.000000000    0.000000000    0.000000000
      9        6           0.000000000    0.000000000    0.000000000
     10        7           0.000000000    0.000000000    0.000000000
     11        6           0.000000000    0.000000000    0.000000000
     12       16           0.000000000    0.000000000    0.000000000
     13        1           0.000000000    0.000000000    0.000000000
     14        1           0.000000000    0.000000000    0.000000000
     15        1           0.000000000    0.000000000    0.000000000
     16        8           0.002392593   -0.000972240    0.014264419
     17        1          -0.000625672   -0.007103110   -0.007467123
     18        1          -0.001011627    0.007643462   -0.006703186
 -------------------------------------------------------------------
 Cartesian Forces:  Max     0.014264419 RMS     0.002792601
 -----------------------------------------------------------------------------------------------
                       Internal Coordinate Forces (Hartree/Bohr or radian)
  Cent   Atom   N1       Length/X         N2         Alpha/Y        N3         Beta/Z          J
 -----------------------------------------------------------------------------------------------
      1  F 
      2  C 
      3  C 
      4  C 
      5  C 
      6  F 
      7  F 
      8  F 
      9  C 
     10  N 
     11  C 
     12  S 
     13  H 
     14  H 
     15  H 
     16  O       10   0.000094(     1)      9  -0.002757(     4)     11  -0.001066(     7)     0
     17  H       16  -0.010166(     2)     10  -0.002846(     5)      9   0.001256(     8)     0
     18  H       16  -0.010172(     3)     10  -0.001092(     6)      9  -0.001057(     9)     0
 -----------------------------------------------------------------------------------------------
 Internal  Forces:  Max     0.010171939 RMS     0.005028312

 GradGradGradGradGradGradGradGradGradGradGradGradGradGradGradGradGradGrad
 Berny optimization.
 Search for a local minimum.
 Step number   3 out of a maximum of   20
 All quantities printed in internal units (Hartrees-Bohrs-Radians)
 Update second derivatives using D2CorN and points    2    3
 DE= -5.15D-06 DEPred=-5.07D-06 R= 1.01D+00
 SS=  1.41D+00  RLast= 3.58D-02 DXNew= 5.0454D-01 1.0749D-01
 Trust test= 1.01D+00 RLast= 3.58D-02 DXMaxT set to 3.00D-01
 The second derivative matrix:
                          RX        ROH      AOH2      AHOA      DOH2
           RX           0.00280
           ROH          0.00040   1.12160
           AOH2         0.00036   0.00000   0.40504
           AHOA         0.00048   0.00000   0.00000   0.96000
           DOH2        -0.00043   0.00000   0.03402   0.00000   0.33889
           DHO1         0.00027   0.00000   0.00798   0.00000   0.00000
           DHO2        -0.00022   0.00000  -0.00798   0.00000   0.00000
                         DHO1      DHO2
           DHO1         0.03504
           DHO2        -0.02814   0.03504
     Eigenvalues ---    0.002801000.000001000.000001000.000001000.00000
     Eigenvalues --- 1000.000001000.00000
 RFO step:  Lambda= 0.00000000D+00 EMin= 2.79583076D-03
 Quartic linear search produced a step of  1.00967.
 Variable       Old X    -DE/DX   Delta X   Delta X   Delta X     New X
                                 (Linear)    (Quad)   (Total)
    RX        6.14887   0.00009   0.03618   0.00000   0.03618   6.18504
   ROH        1.80885  -0.02034   0.00000   0.00000   0.00000   1.80885
   AOH2       1.57080  -0.00276   0.00000   0.00000   0.00000   1.57080
   AHOA       2.22948  -0.00394   0.00000   0.00000   0.00000   2.22948
   DOH2      -1.57080  -0.00107   0.00000   0.00000   0.00000  -1.57080
   DHO1       1.57080   0.00126   0.00000   0.00000   0.00000   1.57080
   DHO2      -1.57080  -0.00106   0.00000   0.00000   0.00000  -1.57080
         Item               Value     Threshold  Converged?
 Maximum Force            0.000094     0.000450     YES
 RMS     Force            0.000094     0.000300     YES
 Maximum Displacement     0.036176     0.001800     NO 
 RMS     Displacement     0.013673     0.001200     NO 
 Predicted change in Energy=-1.576291D-06
 GradGradGradGradGradGradGradGradGradGradGradGradGradGradGradGradGradGrad

 ---------------------------------------------------------------------------------------------------
                            Z-MATRIX (ANGSTROMS AND DEGREES)
   CD    Cent   Atom    N1       Length/X        N2       Alpha/Y        N3        Beta/Z          J
 ---------------------------------------------------------------------------------------------------
      1      1  F       -1  -1.969300          2.053680          0.000070
      2      2  C       -1  -1.222250          0.944230          0.000030
      3      3  C       -1   0.140030          1.057400         -0.000020
      4      4  C       -1   0.927950         -0.123640         -0.000080
      5      5  C       -1   2.414660         -0.018650         -0.000010
      6      6  F       -1   3.007080         -1.234610         -0.000560
      7      7  F       -1   2.858290          0.654480         -1.086020
      8      8  F       -1   2.858270          0.653500          1.086650
      9      9  C       -1   0.306540         -1.341490         -0.000090
     10     10  N       -1  -1.054170         -1.389970         -0.000060
     11     11  C       -1  -1.930500         -0.312100          0.000000
     12     12  S       -1  -3.570980         -0.506610          0.000030
     13     13  H       -1   0.596860          2.043100         -0.000020
     14     14  H       -1   0.831760         -2.288990         -0.000150
     15     15  H       -1  -1.521480         -2.296390         -0.000090
     16     16  O       10   3.272984(    15)      9   90.000(    31)     11  -90.000(    46)      0
     17     17  H       16   0.957200(    16)     10  127.740(    32)      9   90.000(    47)      0
     18     18  H       16   0.957200(    17)     10  127.740(    33)      9  -90.000(    48)      0
 ---------------------------------------------------------------------------------------------------
                         Z-Matrix orientation:                         
 ---------------------------------------------------------------------
 Center     Atomic      Atomic             Coordinates (Angstroms)
 Number     Number       Type             X           Y           Z
 ---------------------------------------------------------------------
      1          9           0       -1.969300    2.053680    0.000070
      2          6           0       -1.222250    0.944230    0.000030
      3          6           0        0.140030    1.057400   -0.000020
      4          6           0        0.927950   -0.123640   -0.000080
      5          6           0        2.414660   -0.018650   -0.000010
      6          9           0        3.007080   -1.234610   -0.000560
      7          9           0        2.858290    0.654480   -1.086020
      8          9           0        2.858270    0.653500    1.086650
      9          6           0        0.306540   -1.341490   -0.000090
     10          7           0       -1.054170   -1.389970   -0.000060
     11          6           0       -1.930500   -0.312100    0.000000
     12         16           0       -3.570980   -0.506610    0.000030
     13          1           0        0.596860    2.043100   -0.000020
     14          1           0        0.831760   -2.288990   -0.000150
     15          1           0       -1.521480   -2.296390   -0.000090
     16          8           0       -1.054100   -1.390104    3.272924
     17          1           0       -1.081039   -0.633658    3.858837
     18          1           0       -1.027136   -2.146598    3.858774
 ---------------------------------------------------------------------
                    Distance matrix (angstroms):
                    1          2          3          4          5
     1  F    0.000000
     2  C    1.337521   0.000000
     3  C    2.332777   1.366973   0.000000
     4  C    3.624194   2.400772   1.419744   0.000000
     5  C    4.849088   3.762214   2.516312   1.490413   0.000000
     6  F    5.964663   4.757581   3.670597   2.357337   1.352598
     7  F    5.142274   4.232525   2.954772   2.347541   1.352527
     8  F    5.142625   4.232719   2.955134   2.347566   1.352555
     9  C    4.087374   2.749857   2.404662   1.367227   2.488790
    10  N    3.563171   2.340244   2.723184   2.352104   3.730054
    11  C    2.366098   1.442215   2.482463   2.864656   4.355058
    12  S    3.020011   2.760701   4.027123   4.515201   6.005497
    13  H    2.566182   2.125247   1.086415   2.191890   2.748674
    14  H    5.167661   3.830492   3.417136   2.167485   2.767673
    15  H    4.373060   3.254406   3.742796   3.274225   4.547669
    16  O    4.838265   4.023583   4.257744   4.030509   4.962386
    17  H    4.785486   4.171338   4.386510   4.380342   5.242981
    18  H    5.780970   4.947848   5.149580   4.775508   5.591452
                    6          7          8          9         10
     6  F    0.000000
     7  F    2.183809   0.000000
     8  F    2.183834   2.172670   0.000000
     9  C    2.702654   3.416807   3.416477   0.000000
    10  N    4.064221   4.546034   4.545756   1.361573   0.000000
    11  C    5.023019   5.004620   5.004549   2.462517   1.389157
    12  S    6.618222   6.622926   6.622828   3.966382   2.667332
    13  H    4.068482   2.867355   2.868068   3.397019   3.809445
    14  H    2.417382   3.734964   3.734451   1.083334   2.089251
    15  H    4.651369   5.391592   5.391203   2.062399   1.019792
    16  O    5.218530   6.203830   4.925723   3.544901   3.272984
    17  H    5.654097   6.452072   4.985976   4.161457   3.932406
    18  H    5.656950   6.884298   5.533679   4.161457   3.932406
                   11         12         13         14         15
    11  C    0.000000
    12  S    1.651971   0.000000
    13  H    3.454637   4.885889   0.000000
    14  H    3.396789   4.749842   4.338454   0.000000
    15  H    2.026007   2.720986   4.828927   2.353252   0.000000
    16  O    3.555587   4.222213   5.022421   3.882972   3.428180
    17  H    3.964292   4.594164   4.987099   4.614186   4.224925
    18  H    4.367103   4.904143   5.922941   4.285681   3.893282
                   16         17         18
    16  O    0.000000
    17  H    0.957200   0.000000
    18  H    0.957200   1.513901   0.000000
 Symmetry turned off by external request.
 Stoichiometry    C6H5F4NOS
 Framework group  C1[X(C6H5F4NOS)]
 Deg. of freedom    48
 Full point group                 C1      NOp   1
 Rotational constants (GHZ):      1.0499393      0.3847839      0.3439378
 Standard basis: 6-31G(d) (6D, 7F)
 Integral buffers will be    131072 words long.
 Raffenetti 1 integral format.
 Two-electron integral symmetry is turned off.
   209 basis functions,   408 primitive gaussians,   209 cartesian basis functions
    54 alpha electrons       54 beta electrons
       nuclear repulsion energy       929.4763160924 Hartrees.
 NAtoms=   18 NActive=   18 NUniq=   18 SFac= 7.50D-01 NAtFMM=   80 NAOKFM=F Big=F
 One-electron integrals computed using PRISM.
 NBasis=   209 RedAO= T  NBF=   209
 NBsUse=   209 1.00D-06 NBFU=   209
 Initial guess read from the read-write file.
 B after Tr=     0.000000    0.000000    0.000000
         Rot=    1.000000    0.000000    0.000000    0.000000 Ang=   0.00 deg.
 Harris functional with IExCor=  205 diagonalized for initial guess.
 ExpMin= 1.17D-01 ExpMax= 2.19D+04 ExpMxC= 3.30D+03 IAcc=1 IRadAn=         1 AccDes= 0.00D+00
 HarFok:  IExCor=  205 AccDes= 0.00D+00 IRadAn=         1 IDoV= 1
 ScaDFX=  1.000000  1.000000  1.000000  1.000000
 FoFCou: FMM=F IPFlag=           0 FMFlag=      100000 FMFlg1=           0
         NFxFlg=           0 DoJE=T BraDBF=F KetDBF=T FulRan=T
         Omega=  0.000000  0.000000  1.000000  0.000000  0.000000 ICntrl=     500 IOpCl=  0
         NMat0=    1 NMatS0=    1 NMatT0=    0 NMatD0=    1 NMtDS0=    0 NMtDT0=    0
         I1Cent=           4 NGrid=           0.
 Symmetry not used in FoFCou.
 Requested convergence on RMS density matrix=1.00D-08 within 128 cycles.
 Requested convergence on MAX density matrix=1.00D-06.
 Requested convergence on             energy=1.00D-06.
 No special actions if energy rises.
 Integral accuracy reduced to 1.0D-05 until final iterations.
 Initial convergence to 1.0D-05 achieved.  Increase integral accuracy.
 SCF Done:  E(RHF) =  -1154.67569435     A.U. after    9 cycles
             Convg  =    0.5924D-08             -V/T =  2.0019
 Calling FoFJK, ICntrl=      2127 FMM=F ISym2X=0 I1Cent= 0 IOpClX= 0 NMat=1 NMatS=1 NMatT=0.
 -------------------------------------------------------------------
 Center     Atomic                   Forces (Hartrees/Bohr)
 Number     Number              X              Y              Z
 -------------------------------------------------------------------
      1        9           0.000000000    0.000000000    0.000000000
      2        6           0.000000000    0.000000000    0.000000000
      3        6           0.000000000    0.000000000    0.000000000
      4        6           0.000000000    0.000000000    0.000000000
      5        6           0.000000000    0.000000000    0.000000000
      6        9           0.000000000    0.000000000    0.000000000
      7        9           0.000000000    0.000000000    0.000000000
      8        9           0.000000000    0.000000000    0.000000000
      9        6           0.000000000    0.000000000    0.000000000
     10        7           0.000000000    0.000000000    0.000000000
     11        6           0.000000000    0.000000000    0.000000000
     12       16           0.000000000    0.000000000    0.000000000
     13        1           0.000000000    0.000000000    0.000000000
     14        1           0.000000000    0.000000000    0.000000000
     15        1           0.000000000    0.000000000    0.000000000
     16        8           0.002370834   -0.000960886    0.014190053
     17        1          -0.000616421   -0.007108552   -0.007473385
     18        1          -0.001004313    0.007645468   -0.006716767
 -------------------------------------------------------------------
 Cartesian Forces:  Max     0.014190053 RMS     0.002786347
 -----------------------------------------------------------------------------------------------
                       Internal Coordinate Forces (Hartree/Bohr or radian)
  Cent   Atom   N1       Length/X         N2         Alpha/Y        N3         Beta/Z          J
 -----------------------------------------------------------------------------------------------
      1  F 
      2  C 
      3  C 
      4  C 
      5  C 
      6  F 
      7  F 
      8  F 
      9  C 
     10  N 
     11  C 
     12  S 
     13  H 
     14  H 
     15  H 
     16  O       10   0.000000(     1)      9  -0.002771(     4)     11  -0.001047(     7)     0
     17  H       16  -0.010175(     2)     10  -0.002848(     5)      9   0.001243(     8)     0
     18  H       16  -0.010182(     3)     10  -0.001110(     6)      9  -0.001046(     9)     0
 -----------------------------------------------------------------------------------------------
 Internal  Forces:  Max     0.010181630 RMS     0.005032721

 GradGradGradGradGradGradGradGradGradGradGradGradGradGradGradGradGradGrad
 Berny optimization.
 Search for a local minimum.
 Step number   4 out of a maximum of   20
 All quantities printed in internal units (Hartrees-Bohrs-Radians)
 Update second derivatives using D2CorN and points    3    4
 DE= -1.68D-06 DEPred=-1.58D-06 R= 1.07D+00
 SS=  1.41D+00  RLast= 3.62D-02 DXNew= 5.0454D-01 1.0853D-01
 Trust test= 1.07D+00 RLast= 3.62D-02 DXMaxT set to 3.00D-01
 The second derivative matrix:
                          RX        ROH      AOH2      AHOA      DOH2
           RX           0.00260
           ROH          0.00045   1.12160
           AOH2         0.00038   0.00000   0.40504
           AHOA         0.00052   0.00000   0.00000   0.96000
           DOH2        -0.00047   0.00000   0.03402   0.00000   0.33889
           DHO1         0.00032   0.00000   0.00798   0.00000   0.00000
           DHO2        -0.00026   0.00000  -0.00798   0.00000   0.00000
                         DHO1      DHO2
           DHO1         0.03504
           DHO2        -0.02814   0.03504
     Eigenvalues ---    0.002601000.000001000.000001000.000001000.00000
     Eigenvalues --- 1000.000001000.00000
 RFO step:  Lambda= 0.00000000D+00 EMin= 2.60420558D-03
 Quartic linear search produced a step of -0.00072.
 Variable       Old X    -DE/DX   Delta X   Delta X   Delta X     New X
                                 (Linear)    (Quad)   (Total)
    RX        6.18504   0.00000  -0.00003   0.00000  -0.00003   6.18502
   ROH        1.80885  -0.02036   0.00000   0.00000   0.00000   1.80885
   AOH2       1.57080  -0.00277   0.00000   0.00000   0.00000   1.57080
   AHOA       2.22948  -0.00396   0.00000   0.00000   0.00000   2.22948
   DOH2      -1.57080  -0.00105   0.00000   0.00000   0.00000  -1.57080
   DHO1       1.57080   0.00124   0.00000   0.00000   0.00000   1.57080
   DHO2      -1.57080  -0.00105   0.00000   0.00000   0.00000  -1.57080
         Item               Value     Threshold  Converged?
 Maximum Force            0.000000     0.000450     YES
 RMS     Force            0.000000     0.000300     YES
 Maximum Displacement     0.000026     0.001800     YES
 RMS     Displacement     0.000010     0.001200     YES
 Predicted change in Energy=-8.206994D-13
 Optimization completed.
    -- Stationary point found.
                       ----------------------------
                       !   Optimized Parameters   !
                       ! (Angstroms and Degrees)  !
 ----------------------                            ----------------------
 !      Name          Value   Derivative information (Atomic Units)     !
 ------------------------------------------------------------------------
 !       RX          3.273    -DE/DX =    0.0                           !
 !       ROH         0.9572   -DE/DX =   -0.0204                        !
 !      AOH2        90.0001   -DE/DX =   -0.0028                        !
 !      AHOA       127.74     -DE/DX =   -0.004                         !
 !      DOH2       -90.0002   -DE/DX =   -0.001                         !
 !      DHO1        90.0      -DE/DX =    0.0012                        !
 !      DHO2       -90.0      -DE/DX =   -0.001                         !
 ------------------------------------------------------------------------
 GradGradGradGradGradGradGradGradGradGradGradGradGradGradGradGradGradGrad

 ---------------------------------------------------------------------------------------------------
                            Z-MATRIX (ANGSTROMS AND DEGREES)
   CD    Cent   Atom    N1       Length/X        N2       Alpha/Y        N3        Beta/Z          J
 ---------------------------------------------------------------------------------------------------
      1      1  F       -1  -1.969300          2.053680          0.000070
      2      2  C       -1  -1.222250          0.944230          0.000030
      3      3  C       -1   0.140030          1.057400         -0.000020
      4      4  C       -1   0.927950         -0.123640         -0.000080
      5      5  C       -1   2.414660         -0.018650         -0.000010
      6      6  F       -1   3.007080         -1.234610         -0.000560
      7      7  F       -1   2.858290          0.654480         -1.086020
      8      8  F       -1   2.858270          0.653500          1.086650
      9      9  C       -1   0.306540         -1.341490         -0.000090
     10     10  N       -1  -1.054170         -1.389970         -0.000060
     11     11  C       -1  -1.930500         -0.312100          0.000000
     12     12  S       -1  -3.570980         -0.506610          0.000030
     13     13  H       -1   0.596860          2.043100         -0.000020
     14     14  H       -1   0.831760         -2.288990         -0.000150
     15     15  H       -1  -1.521480         -2.296390         -0.000090
     16     16  O       10   3.272984(    15)      9   90.000(    31)     11  -90.000(    46)      0
     17     17  H       16   0.957200(    16)     10  127.740(    32)      9   90.000(    47)      0
     18     18  H       16   0.957200(    17)     10  127.740(    33)      9  -90.000(    48)      0
 ---------------------------------------------------------------------------------------------------
                         Z-Matrix orientation:                         
 ---------------------------------------------------------------------
 Center     Atomic      Atomic             Coordinates (Angstroms)
 Number     Number       Type             X           Y           Z
 ---------------------------------------------------------------------
      1          9           0       -1.969300    2.053680    0.000070
      2          6           0       -1.222250    0.944230    0.000030
      3          6           0        0.140030    1.057400   -0.000020
      4          6           0        0.927950   -0.123640   -0.000080
      5          6           0        2.414660   -0.018650   -0.000010
      6          9           0        3.007080   -1.234610   -0.000560
      7          9           0        2.858290    0.654480   -1.086020
      8          9           0        2.858270    0.653500    1.086650
      9          6           0        0.306540   -1.341490   -0.000090
     10          7           0       -1.054170   -1.389970   -0.000060
     11          6           0       -1.930500   -0.312100    0.000000
     12         16           0       -3.570980   -0.506610    0.000030
     13          1           0        0.596860    2.043100   -0.000020
     14          1           0        0.831760   -2.288990   -0.000150
     15          1           0       -1.521480   -2.296390   -0.000090
     16          8           0       -1.054100   -1.390104    3.272924
     17          1           0       -1.081039   -0.633658    3.858837
     18          1           0       -1.027136   -2.146598    3.858774
 ---------------------------------------------------------------------
                    Distance matrix (angstroms):
                    1          2          3          4          5
     1  F    0.000000
     2  C    1.337521   0.000000
     3  C    2.332777   1.366973   0.000000
     4  C    3.624194   2.400772   1.419744   0.000000
     5  C    4.849088   3.762214   2.516312   1.490413   0.000000
     6  F    5.964663   4.757581   3.670597   2.357337   1.352598
     7  F    5.142274   4.232525   2.954772   2.347541   1.352527
     8  F    5.142625   4.232719   2.955134   2.347566   1.352555
     9  C    4.087374   2.749857   2.404662   1.367227   2.488790
    10  N    3.563171   2.340244   2.723184   2.352104   3.730054
    11  C    2.366098   1.442215   2.482463   2.864656   4.355058
    12  S    3.020011   2.760701   4.027123   4.515201   6.005497
    13  H    2.566182   2.125247   1.086415   2.191890   2.748674
    14  H    5.167661   3.830492   3.417136   2.167485   2.767673
    15  H    4.373060   3.254406   3.742796   3.274225   4.547669
    16  O    4.838265   4.023583   4.257744   4.030509   4.962386
    17  H    4.785486   4.171338   4.386510   4.380342   5.242981
    18  H    5.780970   4.947848   5.149580   4.775508   5.591452
                    6          7          8          9         10
     6  F    0.000000
     7  F    2.183809   0.000000
     8  F    2.183834   2.172670   0.000000
     9  C    2.702654   3.416807   3.416477   0.000000
    10  N    4.064221   4.546034   4.545756   1.361573   0.000000
    11  C    5.023019   5.004620   5.004549   2.462517   1.389157
    12  S    6.618222   6.622926   6.622828   3.966382   2.667332
    13  H    4.068482   2.867355   2.868068   3.397019   3.809445
    14  H    2.417382   3.734964   3.734451   1.083334   2.089251
    15  H    4.651369   5.391592   5.391203   2.062399   1.019792
    16  O    5.218530   6.203830   4.925723   3.544901   3.272984
    17  H    5.654097   6.452072   4.985976   4.161457   3.932406
    18  H    5.656950   6.884298   5.533679   4.161457   3.932406
                   11         12         13         14         15
    11  C    0.000000
    12  S    1.651971   0.000000
    13  H    3.454637   4.885889   0.000000
    14  H    3.396789   4.749842   4.338454   0.000000
    15  H    2.026007   2.720986   4.828927   2.353252   0.000000
    16  O    3.555587   4.222213   5.022421   3.882972   3.428180
    17  H    3.964292   4.594164   4.987099   4.614186   4.224925
    18  H    4.367103   4.904143   5.922941   4.285681   3.893282
                   16         17         18
    16  O    0.000000
    17  H    0.957200   0.000000
    18  H    0.957200   1.513901   0.000000
 Symmetry turned off by external request.
 Stoichiometry    C6H5F4NOS
 Framework group  C1[X(C6H5F4NOS)]
 Deg. of freedom    48
 Full point group                 C1      NOp   1
 Rotational constants (GHZ):      1.0499393      0.3847839      0.3439378

 **********************************************************************

            Population analysis using the SCF density.

 **********************************************************************

 Alpha  occ. eigenvalues --  -91.89122 -26.35973 -26.35045 -26.35043 -26.32425
 Alpha  occ. eigenvalues --  -20.57436 -15.67228 -11.53222 -11.36517 -11.35936
 Alpha  occ. eigenvalues --  -11.34865 -11.30086 -11.28983  -8.90222  -6.58556
 Alpha  occ. eigenvalues --   -6.58275  -6.58154  -1.73230  -1.64240  -1.63705
 Alpha  occ. eigenvalues --   -1.63560  -1.35553  -1.34007  -1.15860  -1.10745
 Alpha  occ. eigenvalues --   -1.01847  -0.95976  -0.91446  -0.86975  -0.83760
 Alpha  occ. eigenvalues --   -0.82800  -0.82478  -0.75789  -0.74730  -0.72663
 Alpha  occ. eigenvalues --   -0.72077  -0.71418  -0.70670  -0.70310  -0.69071
 Alpha  occ. eigenvalues --   -0.66668  -0.66642  -0.65255  -0.62948  -0.61316
 Alpha  occ. eigenvalues --   -0.59596  -0.58234  -0.58189  -0.51339  -0.51186
 Alpha  occ. eigenvalues --   -0.45202  -0.41873  -0.32857  -0.29714
 Alpha virt. eigenvalues --    0.05835   0.10115   0.18594   0.20224   0.25465
 Alpha virt. eigenvalues --    0.26347   0.27655   0.27805   0.29381   0.31136
 Alpha virt. eigenvalues --    0.34844   0.36665   0.40365   0.41727   0.43799
 Alpha virt. eigenvalues --    0.43964   0.47949   0.50712   0.55399   0.56729
 Alpha virt. eigenvalues --    0.57909   0.60969   0.62514   0.65542   0.67859
 Alpha virt. eigenvalues --    0.68892   0.73135   0.73986   0.74813   0.76319
 Alpha virt. eigenvalues --    0.77905   0.79035   0.84085   0.85489   0.88318
 Alpha virt. eigenvalues --    0.90283   0.91075   0.93086   0.96822   1.00064
 Alpha virt. eigenvalues --    1.01565   1.03393   1.04214   1.05816   1.08664
 Alpha virt. eigenvalues --    1.10250   1.11138   1.13804   1.14260   1.15922
 Alpha virt. eigenvalues --    1.16346   1.17244   1.18846   1.24627   1.26254
 Alpha virt. eigenvalues --    1.29860   1.32454   1.32616   1.34433   1.35940
 Alpha virt. eigenvalues --    1.36108   1.37538   1.40063   1.42531   1.43522
 Alpha virt. eigenvalues --    1.44058   1.47642   1.48734   1.53136   1.61520
 Alpha virt. eigenvalues --    1.61832   1.62575   1.64813   1.65289   1.65521
 Alpha virt. eigenvalues --    1.66510   1.67790   1.68900   1.70745   1.71397
 Alpha virt. eigenvalues --    1.73175   1.77595   1.77689   1.82613   1.88299
 Alpha virt. eigenvalues --    1.90875   1.93516   1.95289   2.00813   2.01966
 Alpha virt. eigenvalues --    2.02933   2.05341   2.05783   2.07536   2.10273
 Alpha virt. eigenvalues --    2.10999   2.13221   2.13720   2.19067   2.21438
 Alpha virt. eigenvalues --    2.23680   2.23705   2.25737   2.29396   2.31187
 Alpha virt. eigenvalues --    2.31691   2.33760   2.35151   2.35873   2.36999
 Alpha virt. eigenvalues --    2.39308   2.40838   2.44559   2.46266   2.47155
 Alpha virt. eigenvalues --    2.48398   2.53642   2.61207   2.62119   2.63292
 Alpha virt. eigenvalues --    2.66654   2.69352   2.76326   2.84184   2.85620
 Alpha virt. eigenvalues --    2.85917   2.92716   2.94032   2.94474   2.94608
 Alpha virt. eigenvalues --    3.01588   3.08375   3.10975   3.18468   3.23438
 Alpha virt. eigenvalues --    3.30722   3.38325   3.39356   3.44076   3.45419
 Alpha virt. eigenvalues --    3.50547   3.72536   3.98430   4.38045   4.41501
 Alpha virt. eigenvalues --    4.46380   4.49570   4.61482   4.65470   4.69582
 Alpha virt. eigenvalues --    4.83021   5.02587   5.16486   5.59290   6.02767
          Condensed to atoms (all electrons):
              1          2          3          4          5          6
     1  F    9.166032   0.265685  -0.033967   0.002221  -0.000015   0.000000
     2  C    0.265685   4.585231   0.564748  -0.023132   0.000959  -0.000019
     3  C   -0.033967   0.564748   5.069329   0.352477  -0.012949   0.002186
     4  C    0.002221  -0.023132   0.352477   5.210234   0.419236  -0.045334
     5  C   -0.000015   0.000959  -0.012949   0.419236   3.554564   0.288275
     6  F    0.000000  -0.000019   0.002186  -0.045334   0.288275   9.190893
     7  F    0.000000   0.000293   0.005065  -0.055962   0.283716  -0.030690
     8  F    0.000000   0.000295   0.005030  -0.055486   0.283129  -0.030673
     9  C    0.000130  -0.026080  -0.050831   0.585528  -0.021402   0.005356
    10  N    0.001381  -0.046672  -0.024057  -0.029152   0.001364   0.000237
    11  C   -0.040774   0.380388  -0.075065  -0.004278   0.000024   0.000002
    12  S    0.003294  -0.084600   0.001978  -0.000136   0.000005   0.000000
    13  H   -0.000243  -0.018194   0.369154  -0.030424  -0.000334   0.000035
    14  H    0.000000  -0.000135   0.001896  -0.023579  -0.000219   0.004982
    15  H   -0.000018   0.003828  -0.000564   0.002413  -0.000016   0.000001
    16  O    0.000000  -0.000540   0.000261  -0.000694  -0.000020   0.000000
    17  H    0.000000   0.000121  -0.000019   0.000062   0.000002   0.000000
    18  H    0.000000   0.000009  -0.000005   0.000015   0.000001   0.000000
              7          8          9         10         11         12
     1  F    0.000000   0.000000   0.000130   0.001381  -0.040774   0.003294
     2  C    0.000293   0.000295  -0.026080  -0.046672   0.380388  -0.084600
     3  C    0.005065   0.005030  -0.050831  -0.024057  -0.075065   0.001978
     4  C   -0.055962  -0.055486   0.585528  -0.029152  -0.004278  -0.000136
     5  C    0.283716   0.283129  -0.021402   0.001364   0.000024   0.000005
     6  F   -0.030690  -0.030673   0.005356   0.000237   0.000002   0.000000
     7  F    9.205172  -0.033975   0.000511  -0.000005  -0.000002   0.000000
     8  F   -0.033975   9.205575   0.000541  -0.000007  -0.000002   0.000000
     9  C    0.000511   0.000541   4.714412   0.265788  -0.035369   0.003463
    10  N   -0.000005  -0.000007   0.265788   7.208162   0.218253  -0.102746
    11  C   -0.000002  -0.000002  -0.035369   0.218253   4.925283   0.440543
    12  S    0.000000   0.000000   0.003463  -0.102746   0.440543  15.975075
    13  H    0.000908   0.000904   0.002492  -0.000278   0.002692  -0.000058
    14  H    0.000082   0.000084   0.380581  -0.032459   0.001062  -0.000134
    15  H    0.000000   0.000000  -0.021776   0.311517  -0.018182   0.013311
    16  O    0.000000   0.000000   0.002667  -0.002048   0.001603   0.000670
    17  H    0.000000   0.000000  -0.000107   0.000102  -0.000065  -0.000042
    18  H    0.000000   0.000000  -0.000047   0.000098  -0.000021  -0.000011
             13         14         15         16         17         18
     1  F   -0.000243   0.000000  -0.000018   0.000000   0.000000   0.000000
     2  C   -0.018194  -0.000135   0.003828  -0.000540   0.000121   0.000009
     3  C    0.369154   0.001896  -0.000564   0.000261  -0.000019  -0.000005
     4  C   -0.030424  -0.023579   0.002413  -0.000694   0.000062   0.000015
     5  C   -0.000334  -0.000219  -0.000016  -0.000020   0.000002   0.000001
     6  F    0.000035   0.004982   0.000001   0.000000   0.000000   0.000000
     7  F    0.000908   0.000082   0.000000   0.000000   0.000000   0.000000
     8  F    0.000904   0.000084   0.000000   0.000000   0.000000   0.000000
     9  C    0.002492   0.380581  -0.021776   0.002667  -0.000107  -0.000047
    10  N   -0.000278  -0.032459   0.311517  -0.002048   0.000102   0.000098
    11  C    0.002692   0.001062  -0.018182   0.001603  -0.000065  -0.000021
    12  S   -0.000058  -0.000134   0.013311   0.000670  -0.000042  -0.000011
    13  H    0.399198  -0.000064   0.000009   0.000002  -0.000001   0.000000
    14  H   -0.000064   0.388019  -0.002193   0.000098  -0.000003  -0.000005
    15  H    0.000009  -0.002193   0.272850  -0.000041   0.000000   0.000008
    16  O    0.000002   0.000098  -0.000041   8.340193   0.266362   0.265214
    17  H   -0.000001  -0.000003   0.000000   0.266362   0.310530  -0.018187
    18  H    0.000000  -0.000005   0.000008   0.265214  -0.018187   0.316762
 Mulliken atomic charges:
              1
     1  F   -0.363725
     2  C    0.397813
     3  C   -0.174668
     4  C   -0.304008
     5  C    1.203679
     6  F   -0.385249
     7  F   -0.375115
     8  F   -0.375416
     9  C    0.194142
    10  N   -0.769477
    11  C    0.203907
    12  S   -0.250613
    13  H    0.274202
    14  H    0.281988
    15  H    0.438854
    16  O   -0.873726
    17  H    0.441245
    18  H    0.436167
 Sum of Mulliken atomic charges =   0.00000
 Mulliken charges with hydrogens summed into heavy atoms:
              1
     1  F   -0.363725
     2  C    0.397813
     3  C    0.099534
     4  C   -0.304008
     5  C    1.203679
     6  F   -0.385249
     7  F   -0.375115
     8  F   -0.375416
     9  C    0.476131
    10  N   -0.330623
    11  C    0.203907
    12  S   -0.250613
    16  O    0.003686
 Sum of Mulliken charges with hydrogens summed into heavy atoms =   0.00000
 Electronic spatial extent (au):  <R**2>=           3158.9244
 Charge=              0.0000 electrons
 Dipole moment (field-independent basis, Debye):
    X=              3.5595    Y=             -2.8680    Z=              2.5119  Tot=              5.2159
 Quadrupole moment (field-independent basis, Debye-Ang):
   XX=           -107.3805   YY=            -68.9617   ZZ=            -65.6992
   XY=              1.9871   XZ=             -2.7431   YZ=             -3.3221
 Traceless Quadrupole moment (field-independent basis, Debye-Ang):
   XX=            -26.7001   YY=             11.7188   ZZ=             14.9813
   XY=              1.9871   XZ=             -2.7431   YZ=             -3.3221
 Octapole moment (field-independent basis, Debye-Ang**2):
  XXX=            129.4215  YYY=              8.0780  ZZZ=             20.0691  XYY=             27.1832
  XXY=             14.0033  XXZ=            -20.6788  XZZ=              6.4418  YZZ=             -8.7914
  YYZ=             -7.9823  XYZ=              3.1629
 Hexadecapole moment (field-independent basis, Debye-Ang**3):
 XXXX=          -2752.0221 YYYY=           -501.5645 ZZZZ=           -179.1618 XXXY=            -73.3977
 XXXZ=             71.2927 YYYX=            -20.9622 YYYZ=             46.0468 ZZZX=            -22.1260
 ZZZY=            -26.5025 XXYY=           -535.2599 XXZZ=           -515.3193 YYZZ=           -132.3508
 XXYZ=             30.1404 YYXZ=              9.4456 ZZXY=             -3.8982
 N-N= 9.294763160924D+02 E-N=-4.597824239103D+03  KE= 1.152540573441D+03
 1\1\GINC-B1\FOpt\RHF\6-31G(d)\C6H5F4N1O1S1\ANA\24-Sep-2021\1\\#HF/6-31
 G* Opt=Z-matrix NoSymm\\water interaction with atom N10\\0,1\F,-1,-1.9
 693,2.05368,0.00007\C,-1,-1.22225,0.94423,0.00003\C,-1,0.14003,1.0574,
 -0.00002\C,-1,0.92795,-0.12364,-0.00008\C,-1,2.41466,-0.01865,-0.00001
 \F,-1,3.00708,-1.23461,-0.00056\F,-1,2.85829,0.65448,-1.08602\F,-1,2.8
 5827,0.6535,1.08665\C,-1,0.30654,-1.34149,-0.00009\N,-1,-1.05417,-1.38
 997,-0.00006\C,-1,-1.9305,-0.3121,0.\S,-1,-3.57098,-0.50661,0.00003\H,
 -1,0.59686,2.0431,-0.00002\H,-1,0.83176,-2.28899,-0.00015\H,-1,-1.5214
 8,-2.29639,-0.00009\O,10,RX,9,AOH2,11,DOH2,0\H,16,ROH,10,AHOA,9,DHO1,0
 \H,16,ROH,10,AHOA,9,DHO2,0\\RX=3.27298352\ROH=0.9572\AOH2=90.00012\AHO
 A=127.74\DOH2=-90.00024\DHO1=90.\DHO2=-90.\\Version=EM64L-G09RevA.01\H
 F=-1154.6756943\RMSD=5.924e-09\RMSF=2.786e-03\Dipole=1.4004252,-1.1283
 771,0.9882399\Quadrupole=-19.8508595,8.7126361,11.1382234,1.4773296,-2
 .0394492,-2.4699216\PG=C01 [X(C6H5F4N1O1S1)]\\@


 Fatherhood is pretending the present you love most is soap-on-a-rope.
 -- Bill Cosby
 Job cpu time:  0 days  0 hours  4 minutes 26.8 seconds.
 File lengths (MBytes):  RWF=     33 Int=      0 D2E=      0 Chk=      3 Scr=      1
 Normal termination of Gaussian 09 at Fri Sep 24 08:18:24 2021.
