 Entering Gaussian System, Link 0=g09
 Initial command:
 /home/anac/programs/g09/g09/l1.exe /home/anac/programs/g09/g09/scratch/Gau-339040.inp -scrdir=/home/anac/programs/g09/g09/scratch/
 Entering Link 1 = /home/anac/programs/g09/g09/l1.exe PID=    339042.
  
 Copyright (c) 1988,1990,1992,1993,1995,1998,2003,2009, Gaussian, Inc.
                  All Rights Reserved.
  
 This is part of the Gaussian(R) 09 program.  It is based on
 the Gaussian(R) 03 system (copyright 2003, Gaussian, Inc.),
 the Gaussian(R) 98 system (copyright 1998, Gaussian, Inc.),
 the Gaussian(R) 94 system (copyright 1995, Gaussian, Inc.),
 the Gaussian 92(TM) system (copyright 1992, Gaussian, Inc.),
 the Gaussian 90(TM) system (copyright 1990, Gaussian, Inc.),
 the Gaussian 88(TM) system (copyright 1988, Gaussian, Inc.),
 the Gaussian 86(TM) system (copyright 1986, Carnegie Mellon
 University), and the Gaussian 82(TM) system (copyright 1983,
 Carnegie Mellon University). Gaussian is a federally registered
 trademark of Gaussian, Inc.
  
 This software contains proprietary and confidential information,
 including trade secrets, belonging to Gaussian, Inc.
  
 This software is provided under written license and may be
 used, copied, transmitted, or stored only in accord with that
 written license.
  
 The following legend is applicable only to US Government
 contracts under FAR:
  
                    RESTRICTED RIGHTS LEGEND
  
 Use, reproduction and disclosure by the US Government is
 subject to restrictions as set forth in subparagraphs (a)
 and (c) of the Commercial Computer Software - Restricted
 Rights clause in FAR 52.227-19.
  
 Gaussian, Inc.
 340 Quinnipiac St., Bldg. 40, Wallingford CT 06492
  
  
 ---------------------------------------------------------------
 Warning -- This program may not be used in any manner that
 competes with the business of Gaussian, Inc. or will provide
 assistance to any competitor of Gaussian, Inc.  The licensee
 of this program is prohibited from giving any competitor of
 Gaussian, Inc. access to this program.  By using this program,
 the user acknowledges that Gaussian, Inc. is engaged in the
 business of creating and licensing software in the field of
 computational chemistry and represents and warrants to the
 licensee that it is not a competitor of Gaussian, Inc. and that
 it will not use this program in any manner prohibited above.
 ---------------------------------------------------------------
  

 Cite this work as:
 Gaussian 09, Revision A.01,
 M. J. Frisch, G. W. Trucks, H. B. Schlegel, G. E. Scuseria, 
 M. A. Robb, J. R. Cheeseman, G. Scalmani, V. Barone, B. Mennucci, 
 G. A. Petersson, H. Nakatsuji, M. Caricato, X. Li, H. P. Hratchian, 
 A. F. Izmaylov, J. Bloino, G. Zheng, J. L. Sonnenberg, M. Hada, 
 M. Ehara, K. Toyota, R. Fukuda, J. Hasegawa, M. Ishida, T. Nakajima, 
 Y. Honda, O. Kitao, H. Nakai, T. Vreven, J. A. Montgomery, Jr., 
 J. E. Peralta, F. Ogliaro, M. Bearpark, J. J. Heyd, E. Brothers, 
 K. N. Kudin, V. N. Staroverov, R. Kobayashi, J. Normand, 
 K. Raghavachari, A. Rendell, J. C. Burant, S. S. Iyengar, J. Tomasi, 
 M. Cossi, N. Rega, J. M. Millam, M. Klene, J. E. Knox, J. B. Cross, 
 V. Bakken, C. Adamo, J. Jaramillo, R. Gomperts, R. E. Stratmann, 
 O. Yazyev, A. J. Austin, R. Cammi, C. Pomelli, J. W. Ochterski, 
 R. L. Martin, K. Morokuma, V. G. Zakrzewski, G. A. Voth, 
 P. Salvador, J. J. Dannenberg, S. Dapprich, A. D. Daniels, 
 O. Farkas, J. B. Foresman, J. V. Ortiz, J. Cioslowski, 
 and D. J. Fox, Gaussian, Inc., Wallingford CT, 2009.
 
 ******************************************
 Gaussian 09:  EM64L-G09RevA.01  8-May-2009
                 7-Jul-2024 
 ******************************************
 %NPROC=4
 Will use up to    4 processors via shared memory.
 %NoSave
 ------------------------------
 #HF/6-31G* Opt=Z-matrix NoSymm
 ------------------------------
 1/10=7,18=40,38=1/1,3;
 2/12=2,15=1,17=6,18=5,29=3,40=1/2;
 3/5=1,6=6,7=1,11=9,16=1,25=1,30=1,71=1/1,2,3;
 4//1;
 5/5=2,38=5/2;
 6/7=2,8=2,9=2,10=2,28=1/1;
 7/29=1,30=1/1,2,3,16;
 1/10=7,18=40/3(2);
 2/15=1,29=3/2;
 99//99;
 2/15=1,29=3/2;
 3/5=1,6=6,7=1,11=9,16=1,25=1,30=1,71=1/1,2,3;
 4/5=5,16=3/1;
 5/5=2,38=5/2;
 7/30=1/1,2,3,16;
 1/18=40/3(-5);
 2/15=1,29=3/2;
 6/7=2,8=2,9=2,10=2,19=2,28=1/1;
 99/9=1/99;
 -------------------------------
 water interaction with atom N10
 -------------------------------
 Symbolic Z-matrix:
 Charge =  0 Multiplicity = 1
 9                    -1   -1.9693    2.05368   0.00007 
 6                    -1   -1.22225   0.94423   0.00003 
 6                    -1    0.14003   1.0574   -0.00002 
 6                    -1    0.92795  -0.12364  -0.00008 
 6                    -1    2.41466  -0.01865  -0.00001 
 9                    -1    3.00708  -1.23461  -0.00056 
 9                    -1    2.85829   0.65448  -1.08602 
 9                    -1    2.85827   0.6535    1.08665 
 6                    -1    0.30654  -1.34149  -0.00009 
 7                    -1   -1.05417  -1.38997  -0.00006 
 6                    -1   -1.9305   -0.3121    0. 
 16                   -1   -3.57098  -0.50661   0.00003 
 1                    -1    0.59686   2.0431   -0.00002 
 1                    -1    0.83176  -2.28899  -0.00015 
 1                    -1   -1.52148  -2.29639  -0.00009 
 H1                   10   RX       9    AH1      11   DH1      0
 X                    16   RDUM     10   ADUM     9    DDUM     0
 X                    17   RDUM     16   ADUM     10   DDUM     0
 OH2                  16   ROH      17   AOH2     18   DOH2     0
 H2                   19   ROH      16   AHOH     17   DH2      0
       Variables:
  RX                    4.                       
       Constants:
  RDUM                  1.                       
  ROH                   0.9572                   
  AH1                  90.00012                  
  ADUM                 90.                       
  AOH2                 90.                       
  AHOH                104.52                     
  DH1                 -90.00024                  
  DDUM                180.                       
  DOH2                  0.                       
  DH2                 270.                       
 

 GradGradGradGradGradGradGradGradGradGradGradGradGradGradGradGradGradGrad
 Berny optimization.
 Initialization pass.
                       ----------------------------
                       !    Initial Parameters    !
                       ! (Angstroms and Degrees)  !
 ----------------------                            ----------------------
 !      Name          Value   Derivative information (Atomic Units)     !
 ------------------------------------------------------------------------
 !       RX          4.0      estimate D2E/DX2                          !
 !      RDUM         1.0      Frozen                                    !
 !       ROH         0.9572   Frozen                                    !
 !       AH1        90.0001   Frozen                                    !
 !      ADUM        90.0      Frozen                                    !
 !      AOH2        90.0      Frozen                                    !
 !      AHOH       104.52     Frozen                                    !
 !       DH1       -90.0002   Frozen                                    !
 !      DDUM       180.0      Frozen                                    !
 !      DOH2         0.0      Frozen                                    !
 !       DH2       270.0      Frozen                                    !
 ------------------------------------------------------------------------
 Trust Radius=3.00D-01 FncErr=1.00D-07 GrdErr=1.00D-07
 Number of steps in this run=  21 maximum allowed number of steps= 100.
 GradGradGradGradGradGradGradGradGradGradGradGradGradGradGradGradGradGrad

 ---------------------------------------------------------------------------------------------------
                            Z-MATRIX (ANGSTROMS AND DEGREES)
   CD    Cent   Atom    N1       Length/X        N2       Alpha/Y        N3        Beta/Z          J
 ---------------------------------------------------------------------------------------------------
      1      1  F       -1  -1.969300          2.053680          0.000070
      2      2  C       -1  -1.222250          0.944230          0.000030
      3      3  C       -1   0.140030          1.057400         -0.000020
      4      4  C       -1   0.927950         -0.123640         -0.000080
      5      5  C       -1   2.414660         -0.018650         -0.000010
      6      6  F       -1   3.007080         -1.234610         -0.000560
      7      7  F       -1   2.858290          0.654480         -1.086020
      8      8  F       -1   2.858270          0.653500          1.086650
      9      9  C       -1   0.306540         -1.341490         -0.000090
     10     10  N       -1  -1.054170         -1.389970         -0.000060
     11     11  C       -1  -1.930500         -0.312100          0.000000
     12     12  S       -1  -3.570980         -0.506610          0.000030
     13     13  H       -1   0.596860          2.043100         -0.000020
     14     14  H       -1   0.831760         -2.288990         -0.000150
     15     15  H       -1  -1.521480         -2.296390         -0.000090
     16     16  H       10   4.000000(    15)      9   90.000(    33)     11  -90.000(    50)      0
     17         X       16   1.000000(    16)     10   90.000(    34)      9  180.000(    51)      0
     18         X       17   1.000000(    17)     16   90.000(    35)     10  180.000(    52)      0
     19     17  O       16   0.957200(    18)     17   90.000(    36)     18    0.000(    53)      0
     20     18  H       19   0.957200(    19)     16  104.520(    37)     17  270.000(    54)      0
 ---------------------------------------------------------------------------------------------------
                         Z-Matrix orientation:                         
 ---------------------------------------------------------------------
 Center     Atomic      Atomic             Coordinates (Angstroms)
 Number     Number       Type             X           Y           Z
 ---------------------------------------------------------------------
      1          9           0       -1.969300    2.053680    0.000070
      2          6           0       -1.222250    0.944230    0.000030
      3          6           0        0.140030    1.057400   -0.000020
      4          6           0        0.927950   -0.123640   -0.000080
      5          6           0        2.414660   -0.018650   -0.000010
      6          9           0        3.007080   -1.234610   -0.000560
      7          9           0        2.858290    0.654480   -1.086020
      8          9           0        2.858270    0.653500    1.086650
      9          6           0        0.306540   -1.341490   -0.000090
     10          7           0       -1.054170   -1.389970   -0.000060
     11          6           0       -1.930500   -0.312100    0.000000
     12         16           0       -3.570980   -0.506610    0.000030
     13          1           0        0.596860    2.043100   -0.000020
     14          1           0        0.831760   -2.288990   -0.000150
     15          1           0       -1.521480   -2.296390   -0.000090
     16          1           0       -1.054084   -1.390134    3.999940
     17         -1           0       -2.053450   -1.425740    3.999960
     18         -1           0       -2.053429   -1.425781    4.999960
     19          8           0       -1.054064   -1.390173    4.957140
     20          1           0       -1.087052   -0.464143    5.197166
 ---------------------------------------------------------------------
                    Distance matrix (angstroms):
                    1          2          3          4          5
     1  F    0.000000
     2  C    1.337521   0.000000
     3  C    2.332777   1.366973   0.000000
     4  C    3.624194   2.400772   1.419744   0.000000
     5  C    4.849088   3.762214   2.516312   1.490413   0.000000
     6  F    5.964663   4.757581   3.670597   2.357337   1.352598
     7  F    5.142274   4.232525   2.954772   2.347541   1.352527
     8  F    5.142625   4.232719   2.955134   2.347566   1.352555
     9  C    4.087374   2.749857   2.404662   1.367227   2.488790
    10  N    3.563171   2.340244   2.723184   2.352104   3.730054
    11  C    2.366098   1.442215   2.482463   2.864656   4.355058
    12  S    3.020011   2.760701   4.027123   4.515201   6.005497
    13  H    2.566182   2.125247   1.086415   2.191890   2.748674
    14  H    5.167661   3.830492   3.417136   2.167485   2.767673
    15  H    4.373060   3.254406   3.742796   3.274225   4.547669
    16  H    5.356905   4.634308   4.839009   4.640326   5.469255
    17  X    5.302128   4.723038   5.193956   5.156019   6.159843
    18  X    6.092013   5.595275   5.998104   5.965282   6.851535
    19  O    6.104943   5.481849   5.655962   5.486940   6.203745
    20  H    5.841883   5.386280   5.552618   5.584581   6.282602
                    6          7          8          9         10
     6  F    0.000000
     7  F    2.183809   0.000000
     8  F    2.183834   2.172670   0.000000
     9  C    2.702654   3.416807   3.416477   0.000000
    10  N    4.064221   4.546034   4.545756   1.361573   0.000000
    11  C    5.023019   5.004620   5.004549   2.462517   1.389157
    12  S    6.618222   6.622926   6.622828   3.966382   2.667332
    13  H    4.068482   2.867355   2.868068   3.397019   3.809445
    14  H    2.417382   3.734964   3.734451   1.083334   2.089251
    15  H    4.651369   5.391592   5.391203   2.062399   1.019792
    16  H    5.702740   6.734546   5.288687   4.225388   4.000000
    17  X    6.453655   7.370190   6.077467   4.645110   4.123106
    18  X    7.116916   8.092689   6.615300   5.529653   5.099020
    19  O    6.410607   7.483776   5.870575   5.140792   4.957200
    20  H    6.661223   7.503030   5.806120   5.451908   5.279147
                   11         12         13         14         15
    11  C    0.000000
    12  S    1.651971   0.000000
    13  H    3.454637   4.885889   0.000000
    14  H    3.396789   4.749842   4.338454   0.000000
    15  H    2.026007   2.720986   4.828927   2.353252   0.000000
    16  H    4.234357   4.807771   5.523802   4.512768   4.127953
    17  X    4.153913   4.375744   5.920881   5.007047   4.128126
    18  X    5.123963   5.305387   6.637542   5.836998   5.103080
    19  O    5.148167   5.629253   6.251908   5.379491   5.061011
    20  H    5.267357   5.760375   6.011037   5.833009   5.527868
                   16         17         18         19         20
    16  H    0.000000
    17  X    1.000000   0.000000
    18  X    1.414214   1.000000   0.000000
    19  O    0.957200   1.384280   1.000916   0.000000
    20  H    1.513901   1.814358   1.377505   0.957200   0.000000
 Symmetry turned off by external request.
 Stoichiometry    C6H5F4NOS
 Framework group  C1[X(C6H5F4NOS)]
 Deg. of freedom    48
 Full point group                 C1      NOp   1
 Rotational constants (GHZ):      0.7362103      0.3712484      0.3078088
 Standard basis: 6-31G(d) (6D, 7F)
 Integral buffers will be    131072 words long.
 Raffenetti 1 integral format.
 Two-electron integral symmetry is turned off.
   209 basis functions,   408 primitive gaussians,   209 cartesian basis functions
    54 alpha electrons       54 beta electrons
       nuclear repulsion energy       904.0121461418 Hartrees.
 NAtoms=   18 NActive=   18 NUniq=   18 SFac= 7.50D-01 NAtFMM=   80 NAOKFM=F Big=F
 One-electron integrals computed using PRISM.
 NBasis=   209 RedAO= T  NBF=   209
 NBsUse=   209 1.00D-06 NBFU=   209
 Harris functional with IExCor=  205 diagonalized for initial guess.
 ExpMin= 1.17D-01 ExpMax= 2.19D+04 ExpMxC= 3.30D+03 IAcc=1 IRadAn=         1 AccDes= 0.00D+00
 HarFok:  IExCor=  205 AccDes= 0.00D+00 IRadAn=         1 IDoV= 1
 ScaDFX=  1.000000  1.000000  1.000000  1.000000
 FoFCou: FMM=F IPFlag=           0 FMFlag=      100000 FMFlg1=           0
         NFxFlg=           0 DoJE=T BraDBF=F KetDBF=T FulRan=T
         Omega=  0.000000  0.000000  1.000000  0.000000  0.000000 ICntrl=     500 IOpCl=  0
         NMat0=    1 NMatS0=    1 NMatT0=    0 NMatD0=    1 NMtDS0=    0 NMtDT0=    0
         I1Cent=           4 NGrid=           0.
 Symmetry not used in FoFCou.
 Requested convergence on RMS density matrix=1.00D-08 within 128 cycles.
 Requested convergence on MAX density matrix=1.00D-06.
 Requested convergence on             energy=1.00D-06.
 No special actions if energy rises.
 Integral accuracy reduced to 1.0D-05 until final iterations.
 Initial convergence to 1.0D-05 achieved.  Increase integral accuracy.
 SCF Done:  E(RHF) =  -1154.67248277     A.U. after   15 cycles
             Convg  =    0.7933D-08             -V/T =  2.0018

 **********************************************************************

            Population analysis using the SCF density.

 **********************************************************************

 Alpha  occ. eigenvalues --  -91.90928 -26.37038 -26.36147 -26.36110 -26.33891
 Alpha  occ. eigenvalues --  -20.56458 -15.69199 -11.54440 -11.38285 -11.37637
 Alpha  occ. eigenvalues --  -11.36547 -11.31681 -11.30750  -8.92015  -6.60342
 Alpha  occ. eigenvalues --   -6.60066  -6.59939  -1.74301  -1.65294  -1.65148
 Alpha  occ. eigenvalues --   -1.64625  -1.36033  -1.34596  -1.17550  -1.12524
 Alpha  occ. eigenvalues --   -1.03351  -0.97544  -0.92974  -0.88670  -0.85183
 Alpha  occ. eigenvalues --   -0.83930  -0.83542  -0.77381  -0.76252  -0.74226
 Alpha  occ. eigenvalues --   -0.72486  -0.71841  -0.71753  -0.71126  -0.70658
 Alpha  occ. eigenvalues --   -0.67730  -0.67710  -0.66298  -0.64394  -0.63031
 Alpha  occ. eigenvalues --   -0.61147  -0.59706  -0.57514  -0.53005  -0.50196
 Alpha  occ. eigenvalues --   -0.47020  -0.43770  -0.34547  -0.31428
 Alpha virt. eigenvalues --    0.03993   0.08293   0.17190   0.20468   0.24118
 Alpha virt. eigenvalues --    0.24885   0.26097   0.26149   0.29356   0.29915
 Alpha virt. eigenvalues --    0.33439   0.35059   0.38984   0.40411   0.42191
 Alpha virt. eigenvalues --    0.42740   0.46284   0.49203   0.53802   0.55143
 Alpha virt. eigenvalues --    0.56335   0.59433   0.60771   0.63987   0.66490
 Alpha virt. eigenvalues --    0.67739   0.71501   0.72688   0.73330   0.75003
 Alpha virt. eigenvalues --    0.76780   0.77477   0.82518   0.84012   0.86985
 Alpha virt. eigenvalues --    0.88747   0.89630   0.91796   0.95227   0.99267
 Alpha virt. eigenvalues --    1.01849   1.01925   1.02330   1.04205   1.07087
 Alpha virt. eigenvalues --    1.08753   1.09415   1.12725   1.13236   1.14728
 Alpha virt. eigenvalues --    1.15546   1.16380   1.16805   1.17723   1.24054
 Alpha virt. eigenvalues --    1.27986   1.30846   1.31498   1.33103   1.33681
 Alpha virt. eigenvalues --    1.34624   1.37956   1.38823   1.41715   1.41968
 Alpha virt. eigenvalues --    1.43186   1.46361   1.47102   1.51572   1.60247
 Alpha virt. eigenvalues --    1.60451   1.61564   1.63441   1.64024   1.64084
 Alpha virt. eigenvalues --    1.65284   1.66182   1.67133   1.69181   1.69790
 Alpha virt. eigenvalues --    1.71715   1.75724   1.76119   1.80933   1.86315
 Alpha virt. eigenvalues --    1.89552   1.92245   1.93480   1.99935   2.01603
 Alpha virt. eigenvalues --    2.02962   2.03934   2.05723   2.06379   2.09178
 Alpha virt. eigenvalues --    2.09627   2.12178   2.12458   2.17555   2.19804
 Alpha virt. eigenvalues --    2.22235   2.22302   2.24268   2.28301   2.29337
 Alpha virt. eigenvalues --    2.30211   2.32338   2.33285   2.34672   2.35819
 Alpha virt. eigenvalues --    2.37473   2.38797   2.42867   2.44856   2.45166
 Alpha virt. eigenvalues --    2.46819   2.51793   2.60538   2.61467   2.61840
 Alpha virt. eigenvalues --    2.65065   2.68102   2.74903   2.82350   2.84091
 Alpha virt. eigenvalues --    2.84131   2.91084   2.92465   2.92878   2.94306
 Alpha virt. eigenvalues --    3.00025   3.07145   3.09186   3.16969   3.21734
 Alpha virt. eigenvalues --    3.29240   3.37225   3.38202   3.42456   3.44267
 Alpha virt. eigenvalues --    3.48944   3.70770   3.96992   4.35893   4.39633
 Alpha virt. eigenvalues --    4.44690   4.47804   4.59646   4.63867   4.68497
 Alpha virt. eigenvalues --    4.81459   5.01095   5.15269   5.57175   6.01590
          Condensed to atoms (all electrons):
              1          2          3          4          5          6
     1  F    9.159938   0.267478  -0.033800   0.002217  -0.000015   0.000000
     2  C    0.267478   4.584053   0.568653  -0.026871   0.000849  -0.000019
     3  C   -0.033800   0.568653   5.068826   0.354812  -0.012002   0.002200
     4  C    0.002217  -0.026871   0.354812   5.208295   0.414680  -0.045542
     5  C   -0.000015   0.000849  -0.012002   0.414680   3.547619   0.289860
     6  F    0.000000  -0.000019   0.002200  -0.045542   0.289860   9.186857
     7  F    0.000000   0.000293   0.004996  -0.055090   0.285113  -0.030796
     8  F    0.000000   0.000293   0.005013  -0.055140   0.284747  -0.030778
     9  C    0.000129  -0.022887  -0.055627   0.591989  -0.020866   0.005551
    10  N    0.001388  -0.054835  -0.020786  -0.036740   0.001200   0.000241
    11  C   -0.040943   0.376662  -0.079072  -0.001293   0.000079   0.000002
    12  S    0.003537  -0.084005   0.001560  -0.000054   0.000006   0.000000
    13  H   -0.000268  -0.017655   0.368590  -0.029714  -0.000289   0.000035
    14  H    0.000000  -0.000111   0.001809  -0.022219  -0.000137   0.005057
    15  H   -0.000018   0.003869  -0.000580   0.002330  -0.000014   0.000001
    16  H    0.000000  -0.000005  -0.000001   0.000005   0.000000   0.000000
    17  O    0.000000  -0.000001   0.000000  -0.000001   0.000000   0.000000
    18  H    0.000000   0.000000   0.000000   0.000000   0.000000   0.000000
              7          8          9         10         11         12
     1  F    0.000000   0.000000   0.000129   0.001388  -0.040943   0.003537
     2  C    0.000293   0.000293  -0.022887  -0.054835   0.376662  -0.084005
     3  C    0.004996   0.005013  -0.055627  -0.020786  -0.079072   0.001560
     4  C   -0.055090  -0.055140   0.591989  -0.036740  -0.001293  -0.000054
     5  C    0.285113   0.284747  -0.020866   0.001200   0.000079   0.000006
     6  F   -0.030796  -0.030778   0.005551   0.000241   0.000002   0.000000
     7  F    9.200471  -0.033965   0.000534  -0.000006  -0.000002   0.000000
     8  F   -0.033965   9.201585   0.000532  -0.000006  -0.000002   0.000000
     9  C    0.000534   0.000532   4.743604   0.263792  -0.038579   0.003294
    10  N   -0.000006  -0.000006   0.263792   7.243106   0.210419  -0.104840
    11  C   -0.000002  -0.000002  -0.038579   0.210419   4.965979   0.447109
    12  S    0.000000   0.000000   0.003294  -0.104840   0.447109  15.945814
    13  H    0.000913   0.000909   0.002433  -0.000261   0.002615  -0.000055
    14  H    0.000085   0.000084   0.379599  -0.031963   0.000950  -0.000130
    15  H    0.000000   0.000000  -0.021480   0.309634  -0.017843   0.013709
    16  H    0.000000   0.000000   0.000078   0.000119   0.000072   0.000051
    17  O    0.000000   0.000000   0.000000  -0.000004  -0.000001  -0.000001
    18  H    0.000000   0.000000   0.000000  -0.000001   0.000000   0.000000
             13         14         15         16         17         18
     1  F   -0.000268   0.000000  -0.000018   0.000000   0.000000   0.000000
     2  C   -0.017655  -0.000111   0.003869  -0.000005  -0.000001   0.000000
     3  C    0.368590   0.001809  -0.000580  -0.000001   0.000000   0.000000
     4  C   -0.029714  -0.022219   0.002330   0.000005  -0.000001   0.000000
     5  C   -0.000289  -0.000137  -0.000014   0.000000   0.000000   0.000000
     6  F    0.000035   0.005057   0.000001   0.000000   0.000000   0.000000
     7  F    0.000913   0.000085   0.000000   0.000000   0.000000   0.000000
     8  F    0.000909   0.000084   0.000000   0.000000   0.000000   0.000000
     9  C    0.002433   0.379599  -0.021480   0.000078   0.000000   0.000000
    10  N   -0.000261  -0.031963   0.309634   0.000119  -0.000004  -0.000001
    11  C    0.002615   0.000950  -0.017843   0.000072  -0.000001   0.000000
    12  S   -0.000055  -0.000130   0.013709   0.000051  -0.000001   0.000000
    13  H    0.390904  -0.000061   0.000008   0.000000   0.000000   0.000000
    14  H   -0.000061   0.378137  -0.002094   0.000001   0.000000   0.000000
    15  H    0.000008  -0.002094   0.269317   0.000002   0.000000   0.000000
    16  H    0.000000   0.000001   0.000002   0.325263   0.264636  -0.018848
    17  O    0.000000   0.000000   0.000000   0.264636   8.334229   0.265952
    18  H    0.000000   0.000000   0.000000  -0.018848   0.265952   0.317083
 Mulliken atomic charges:
              1
     1  F   -0.359643
     2  C    0.404238
     3  C   -0.174590
     4  C   -0.301662
     5  C    1.209171
     6  F   -0.382669
     7  F   -0.372546
     8  F   -0.373272
     9  C    0.167904
    10  N   -0.780458
    11  C    0.173849
    12  S   -0.225996
    13  H    0.281894
    14  H    0.290993
    15  H    0.443157
    16  H    0.428627
    17  O   -0.864809
    18  H    0.435813
 Sum of Mulliken atomic charges =   0.00000
 Mulliken charges with hydrogens summed into heavy atoms:
              1
     1  F   -0.359643
     2  C    0.404238
     3  C    0.107304
     4  C   -0.301662
     5  C    1.209171
     6  F   -0.382669
     7  F   -0.372546
     8  F   -0.373272
     9  C    0.458898
    10  N   -0.337300
    11  C    0.173849
    12  S   -0.225996
    17  O   -0.000370
 Sum of Mulliken charges with hydrogens summed into heavy atoms =   0.00000
 Electronic spatial extent (au):  <R**2>=           3615.4566
 Charge=              0.0000 electrons
 Dipole moment (field-independent basis, Debye):
    X=              3.4851    Y=             -0.8725    Z=             -1.4404  Tot=              3.8707
 Quadrupole moment (field-independent basis, Debye-Ang):
   XX=           -105.5945   YY=            -74.4995   ZZ=            -93.2380
   XY=              0.1407   XZ=              1.1348   YZ=             11.3195
 Traceless Quadrupole moment (field-independent basis, Debye-Ang):
   XX=            -14.4838   YY=             16.6112   ZZ=             -2.1274
   XY=              0.1407   XZ=              1.1348   YZ=             11.3195
 Octapole moment (field-independent basis, Debye-Ang**2):
  XXX=            124.8850  YYY=             22.9332  ZZZ=           -168.8074  XYY=             32.9451
  XXY=             15.2655  XXZ=            -36.5681  XZZ=             33.7175  YZZ=             79.0622
  YYZ=            -52.7928  XYZ=            -11.8328
 Hexadecapole moment (field-independent basis, Debye-Ang**3):
 XXXX=          -2718.9493 YYYY=           -530.5524 ZZZZ=          -1497.2810 XXXY=            -72.2616
 XXXZ=            113.6208 YYYX=            -36.0582 YYYZ=            160.7854 ZZZX=            167.5466
 ZZZY=            493.9942 XXYY=           -537.6771 XXZZ=           -635.0913 YYZZ=           -400.5129
 XXYZ=             59.9250 YYXZ=             55.8054 ZZXY=            -94.3644
 N-N= 9.040121461418D+02 E-N=-4.545521201609D+03  KE= 1.152550961617D+03
 Calling FoFJK, ICntrl=      2127 FMM=F ISym2X=0 I1Cent= 0 IOpClX= 0 NMat=1 NMatS=1 NMatT=0.
 -------------------------------------------------------------------
 Center     Atomic                   Forces (Hartrees/Bohr)
 Number     Number              X              Y              Z
 -------------------------------------------------------------------
      1        9           0.000000000    0.000000000    0.000000000
      2        6           0.000000000    0.000000000    0.000000000
      3        6           0.000000000    0.000000000    0.000000000
      4        6           0.000000000    0.000000000    0.000000000
      5        6           0.000000000    0.000000000    0.000000000
      6        9           0.000000000    0.000000000    0.000000000
      7        9           0.000000000    0.000000000    0.000000000
      8        9           0.000000000    0.000000000    0.000000000
      9        6           0.000000000    0.000000000    0.000000000
     10        7           0.000000000    0.000000000    0.000000000
     11        6           0.000000000    0.000000000    0.000000000
     12       16           0.000000000    0.000000000    0.000000000
     13        1           0.000000000    0.000000000    0.000000000
     14        1           0.000000000    0.000000000    0.000000000
     15        1           0.000000000    0.000000000    0.000000000
     16        1          -0.000958971   -0.000643401    0.010941094
     17        8           0.000743209    0.011105761   -0.009472467
     18        1          -0.000104866   -0.010328848   -0.001344344
 -------------------------------------------------------------------
 Cartesian Forces:  Max     0.011105761 RMS     0.002864736
 -----------------------------------------------------------------------------------------------
                       Internal Coordinate Forces (Hartree/Bohr or radian)
  Cent   Atom   N1       Length/X         N2         Alpha/Y        N3         Beta/Z          J
 -----------------------------------------------------------------------------------------------
      1  F 
      2  C 
      3  C 
      4  C 
      5  C 
      6  F 
      7  F 
      8  F 
      9  C 
     10  N 
     11  C 
     12  S 
     13  H 
     14  H 
     15  H 
     16  H       10   0.000124(     1)      9   0.001396(     6)     11   0.000131(    11)     0
         X       16   0.000000(     2)     10   0.000990(     7)      9   0.000827(    12)     0
         X       17   0.000000(     3)     16   0.000000(     8)     10  -0.000964(    13)     0
     17  O       16  -0.010817(     4)     17   0.000990(     9)     18   0.000964(    14)     0
     18  H       19  -0.010326(     5)     16   0.002326(    10)     17   0.000827(    15)     0
 -----------------------------------------------------------------------------------------------
 Internal  Forces:  Max     0.010816829 RMS     0.003968298

 GradGradGradGradGradGradGradGradGradGradGradGradGradGradGradGradGradGrad
 Berny optimization.
 Search for a local minimum.
 Step number   1 out of a maximum of   21
 All quantities printed in internal units (Hartrees-Bohrs-Radians)
 Second derivative matrix not updated -- first step.
 The second derivative matrix:
                          RX       RDUM       ROH       AH1      ADUM
           RX           0.00463
           RDUM         0.00000   0.00000
           ROH          0.00000   0.00000   1.12160
           AH1          0.00000   0.00000   0.00000   0.28008
           ADUM         0.00000   0.00000   0.00000   0.00000   0.25000
           AOH2         0.00000   0.00000   0.00000   0.00000   0.25000
           AHOH         0.00000   0.00000   0.00000   0.00000   0.00000
           DH1          0.00000   0.00000   0.00000  -0.00927   0.00000
           DDUM         0.00000   0.00000   0.00000   0.00000   0.00000
           DOH2         0.00000   0.00000   0.00000   0.00000   0.00000
           DH2          0.00000   0.00000   0.00000   0.00000   0.00000
                         AOH2      AHOH       DH1      DDUM      DOH2
           AOH2         0.25000
           AHOH         0.00000   0.16000
           DH1          0.00000   0.00000   0.28159
           DDUM         0.00000   0.00000   0.00000   0.25000
           DOH2         0.00000   0.00000   0.00000  -0.25000   0.25000
           DH2          0.00000   0.00000   0.00000   0.00000   0.00000
                          DH2
           DH2          0.00000
     Eigenvalues ---    0.004631000.000001000.000001000.000001000.00000
     Eigenvalues --- 1000.000001000.000001000.000001000.000001000.00000
     Eigenvalues --- 1000.00000
 RFO step:  Lambda=-3.33377683D-06 EMin= 4.63236515D-03
 Linear search not attempted -- first point.
 Variable       Old X    -DE/DX   Delta X   Delta X   Delta X     New X
                                 (Linear)    (Quad)   (Total)
    RX        7.55890   0.00012   0.00000   0.02681   0.02681   7.58571
   RDUM       1.88973   0.00000   0.00000   0.00000   0.00000   1.88973
   ROH        1.80885  -0.02114   0.00000   0.00000   0.00000   1.80885
   AH1        1.57080   0.00140   0.00000   0.00000   0.00000   1.57080
   ADUM       1.57080   0.00099   0.00000   0.00000   0.00000   1.57080
   AOH2       1.57080   0.00099   0.00000   0.00000   0.00000   1.57080
   AHOH       1.82422   0.00233   0.00000   0.00000   0.00000   1.82422
   DH1       -1.57080   0.00013   0.00000   0.00000   0.00000  -1.57080
   DDUM       3.14159  -0.00014   0.00000   0.00000   0.00000   3.14159
   DOH2       0.00000   0.00096   0.00000   0.00000   0.00000   0.00000
   DH2        4.71239   0.00083   0.00000   0.00000   0.00000   4.71239
         Item               Value     Threshold  Converged?
 Maximum Force            0.000124     0.000450     YES
 RMS     Force            0.000124     0.000300     YES
 Maximum Displacement     0.026807     0.001800     NO 
 RMS     Displacement     0.008083     0.001200     NO 
 Predicted change in Energy=-1.666888D-06
 GradGradGradGradGradGradGradGradGradGradGradGradGradGradGradGradGradGrad

 ---------------------------------------------------------------------------------------------------
                            Z-MATRIX (ANGSTROMS AND DEGREES)
   CD    Cent   Atom    N1       Length/X        N2       Alpha/Y        N3        Beta/Z          J
 ---------------------------------------------------------------------------------------------------
      1      1  F       -1  -1.969300          2.053680          0.000070
      2      2  C       -1  -1.222250          0.944230          0.000030
      3      3  C       -1   0.140030          1.057400         -0.000020
      4      4  C       -1   0.927950         -0.123640         -0.000080
      5      5  C       -1   2.414660         -0.018650         -0.000010
      6      6  F       -1   3.007080         -1.234610         -0.000560
      7      7  F       -1   2.858290          0.654480         -1.086020
      8      8  F       -1   2.858270          0.653500          1.086650
      9      9  C       -1   0.306540         -1.341490         -0.000090
     10     10  N       -1  -1.054170         -1.389970         -0.000060
     11     11  C       -1  -1.930500         -0.312100          0.000000
     12     12  S       -1  -3.570980         -0.506610          0.000030
     13     13  H       -1   0.596860          2.043100         -0.000020
     14     14  H       -1   0.831760         -2.288990         -0.000150
     15     15  H       -1  -1.521480         -2.296390         -0.000090
     16     16  H       10   4.014186(    15)      9   90.000(    33)     11  -90.000(    50)      0
     17         X       16   1.000000(    16)     10   90.000(    34)      9  180.000(    51)      0
     18         X       17   1.000000(    17)     16   90.000(    35)     10  180.000(    52)      0
     19     17  O       16   0.957200(    18)     17   90.000(    36)     18    0.000(    53)      0
     20     18  H       19   0.957200(    19)     16  104.520(    37)     17  270.000(    54)      0
 ---------------------------------------------------------------------------------------------------
                         Z-Matrix orientation:                         
 ---------------------------------------------------------------------
 Center     Atomic      Atomic             Coordinates (Angstroms)
 Number     Number       Type             X           Y           Z
 ---------------------------------------------------------------------
      1          9           0       -1.969300    2.053680    0.000070
      2          6           0       -1.222250    0.944230    0.000030
      3          6           0        0.140030    1.057400   -0.000020
      4          6           0        0.927950   -0.123640   -0.000080
      5          6           0        2.414660   -0.018650   -0.000010
      6          9           0        3.007080   -1.234610   -0.000560
      7          9           0        2.858290    0.654480   -1.086020
      8          9           0        2.858270    0.653500    1.086650
      9          6           0        0.306540   -1.341490   -0.000090
     10          7           0       -1.054170   -1.389970   -0.000060
     11          6           0       -1.930500   -0.312100    0.000000
     12         16           0       -3.570980   -0.506610    0.000030
     13          1           0        0.596860    2.043100   -0.000020
     14          1           0        0.831760   -2.288990   -0.000150
     15          1           0       -1.521480   -2.296390   -0.000090
     16          1           0       -1.054084   -1.390134    4.014126
     17         -1           0       -2.053450   -1.425740    4.014146
     18         -1           0       -2.053429   -1.425781    5.014146
     19          8           0       -1.054064   -1.390174    4.971326
     20          1           0       -1.087052   -0.464144    5.211352
 ---------------------------------------------------------------------
                    Distance matrix (angstroms):
                    1          2          3          4          5
     1  F    0.000000
     2  C    1.337521   0.000000
     3  C    2.332777   1.366973   0.000000
     4  C    3.624194   2.400772   1.419744   0.000000
     5  C    4.849088   3.762214   2.516312   1.490413   0.000000
     6  F    5.964663   4.757581   3.670597   2.357337   1.352598
     7  F    5.142274   4.232525   2.954772   2.347541   1.352527
     8  F    5.142625   4.232719   2.955134   2.347566   1.352555
     9  C    4.087374   2.749857   2.404662   1.367227   2.488790
    10  N    3.563171   2.340244   2.723184   2.352104   3.730054
    11  C    2.366098   1.442215   2.482463   2.864656   4.355058
    12  S    3.020011   2.760701   4.027123   4.515201   6.005497
    13  H    2.566182   2.125247   1.086415   2.191890   2.748674
    14  H    5.167661   3.830492   3.417136   2.167485   2.767673
    15  H    4.373060   3.254406   3.742796   3.274225   4.547669
    16  H    5.367506   4.646558   4.850742   4.652560   5.479639
    17  X    5.312838   4.735058   5.204889   5.167032   6.169064
    18  X    6.103661   5.607956   6.009934   5.977177   6.861894
    19  O    6.116467   5.494680   5.668400   5.499760   6.215086
    20  H    5.854507   5.399969   5.565898   5.597785   6.294342
                    6          7          8          9         10
     6  F    0.000000
     7  F    2.183809   0.000000
     8  F    2.183834   2.172670   0.000000
     9  C    2.702654   3.416807   3.416477   0.000000
    10  N    4.064221   4.546034   4.545756   1.361573   0.000000
    11  C    5.023019   5.004620   5.004549   2.462517   1.389157
    12  S    6.618222   6.622926   6.622828   3.966382   2.667332
    13  H    4.068482   2.867355   2.868068   3.397019   3.809445
    14  H    2.417382   3.734964   3.734451   1.083334   2.089251
    15  H    4.651369   5.391592   5.391203   2.062399   1.019792
    16  H    5.712700   6.745265   5.296515   4.238820   4.014186
    17  X    6.462457   7.379986   6.084280   4.657332   4.136869
    18  X    7.126890   8.103363   6.623701   5.542483   5.112931
    19  O    6.421584   7.495236   5.879937   5.154473   4.971386
    20  H    6.672298   7.514914   5.816172   5.465433   5.293113
                   11         12         13         14         15
    11  C    0.000000
    12  S    1.651971   0.000000
    13  H    3.454637   4.885889   0.000000
    14  H    3.396789   4.749842   4.338454   0.000000
    15  H    2.026007   2.720986   4.828927   2.353252   0.000000
    16  H    4.247761   4.819579   5.534084   4.525346   4.141701
    17  X    4.167575   4.388715   5.930474   5.018387   4.141873
    18  X    5.137806   5.318759   6.648235   5.849154   5.116981
    19  O    5.161828   5.641749   6.263162   5.392567   5.074907
    20  H    5.281355   5.773177   6.023307   5.845652   5.541207
                   16         17         18         19         20
    16  H    0.000000
    17  X    1.000000   0.000000
    18  X    1.414214   1.000000   0.000000
    19  O    0.957200   1.384280   1.000916   0.000000
    20  H    1.513901   1.814358   1.377505   0.957200   0.000000
 Symmetry turned off by external request.
 Stoichiometry    C6H5F4NOS
 Framework group  C1[X(C6H5F4NOS)]
 Deg. of freedom    48
 Full point group                 C1      NOp   1
 Rotational constants (GHZ):      0.7338593      0.3711759      0.3074070
 Standard basis: 6-31G(d) (6D, 7F)
 Integral buffers will be    131072 words long.
 Raffenetti 1 integral format.
 Two-electron integral symmetry is turned off.
   209 basis functions,   408 primitive gaussians,   209 cartesian basis functions
    54 alpha electrons       54 beta electrons
       nuclear repulsion energy       903.8133888855 Hartrees.
 NAtoms=   18 NActive=   18 NUniq=   18 SFac= 7.50D-01 NAtFMM=   80 NAOKFM=F Big=F
 One-electron integrals computed using PRISM.
 NBasis=   209 RedAO= T  NBF=   209
 NBsUse=   209 1.00D-06 NBFU=   209
 Initial guess read from the read-write file.
 B after Tr=     0.000000    0.000000    0.000000
         Rot=    1.000000    0.000000    0.000000    0.000000 Ang=   0.00 deg.
 Harris functional with IExCor=  205 diagonalized for initial guess.
 ExpMin= 1.17D-01 ExpMax= 2.19D+04 ExpMxC= 3.30D+03 IAcc=1 IRadAn=         1 AccDes= 0.00D+00
 HarFok:  IExCor=  205 AccDes= 0.00D+00 IRadAn=         1 IDoV= 1
 ScaDFX=  1.000000  1.000000  1.000000  1.000000
 FoFCou: FMM=F IPFlag=           0 FMFlag=      100000 FMFlg1=           0
         NFxFlg=           0 DoJE=T BraDBF=F KetDBF=T FulRan=T
         Omega=  0.000000  0.000000  1.000000  0.000000  0.000000 ICntrl=     500 IOpCl=  0
         NMat0=    1 NMatS0=    1 NMatT0=    0 NMatD0=    1 NMtDS0=    0 NMtDT0=    0
         I1Cent=           4 NGrid=           0.
 Symmetry not used in FoFCou.
 Requested convergence on RMS density matrix=1.00D-08 within 128 cycles.
 Requested convergence on MAX density matrix=1.00D-06.
 Requested convergence on             energy=1.00D-06.
 No special actions if energy rises.
 Integral accuracy reduced to 1.0D-05 until final iterations.
 Initial convergence to 1.0D-05 achieved.  Increase integral accuracy.
 SCF Done:  E(RHF) =  -1154.67248609     A.U. after    6 cycles
             Convg  =    0.8905D-08             -V/T =  2.0018
 Calling FoFJK, ICntrl=      2127 FMM=F ISym2X=0 I1Cent= 0 IOpClX= 0 NMat=1 NMatS=1 NMatT=0.
 -------------------------------------------------------------------
 Center     Atomic                   Forces (Hartrees/Bohr)
 Number     Number              X              Y              Z
 -------------------------------------------------------------------
      1        9           0.000000000    0.000000000    0.000000000
      2        6           0.000000000    0.000000000    0.000000000
      3        6           0.000000000    0.000000000    0.000000000
      4        6           0.000000000    0.000000000    0.000000000
      5        6           0.000000000    0.000000000    0.000000000
      6        9           0.000000000    0.000000000    0.000000000
      7        9           0.000000000    0.000000000    0.000000000
      8        9           0.000000000    0.000000000    0.000000000
      9        6           0.000000000    0.000000000    0.000000000
     10        7           0.000000000    0.000000000    0.000000000
     11        6           0.000000000    0.000000000    0.000000000
     12       16           0.000000000    0.000000000    0.000000000
     13        1           0.000000000    0.000000000    0.000000000
     14        1           0.000000000    0.000000000    0.000000000
     15        1           0.000000000    0.000000000    0.000000000
     16        1          -0.000951736   -0.000647241    0.010937218
     17        8           0.000735052    0.011109419   -0.009468442
     18        1          -0.000101577   -0.010329322   -0.001344953
 -------------------------------------------------------------------
 Cartesian Forces:  Max     0.011109419 RMS     0.002864445
 -----------------------------------------------------------------------------------------------
                       Internal Coordinate Forces (Hartree/Bohr or radian)
  Cent   Atom   N1       Length/X         N2         Alpha/Y        N3         Beta/Z          J
 -----------------------------------------------------------------------------------------------
      1  F 
      2  C 
      3  C 
      4  C 
      5  C 
      6  F 
      7  F 
      8  F 
      9  C 
     10  N 
     11  C 
     12  S 
     13  H 
     14  H 
     15  H 
     16  H       10   0.000124(     1)      9   0.001394(     6)     11   0.000136(    11)     0
         X       16   0.000000(     2)     10   0.000983(     7)      9   0.000822(    12)     0
         X       17   0.000000(     3)     16   0.000000(     8)     10  -0.000957(    13)     0
     17  O       16  -0.010813(     4)     17   0.000983(     9)     18   0.000957(    14)     0
     18  H       19  -0.010327(     5)     16   0.002325(    10)     17   0.000822(    15)     0
 -----------------------------------------------------------------------------------------------
 Internal  Forces:  Max     0.010813413 RMS     0.003967115

 GradGradGradGradGradGradGradGradGradGradGradGradGradGradGradGradGradGrad
 Berny optimization.
 Search for a local minimum.
 Step number   2 out of a maximum of   21
 All quantities printed in internal units (Hartrees-Bohrs-Radians)
 Update second derivatives using D2CorN and points    1    2
 DE= -3.33D-06 DEPred=-1.67D-06 R= 1.99D+00
 SS=  1.41D+00  RLast= 2.68D-02 DXNew= 5.0454D-01 8.0422D-02
 Trust test= 1.99D+00 RLast= 2.68D-02 DXMaxT set to 3.00D-01
 The second derivative matrix:
                          RX       RDUM       ROH       AH1      ADUM
           RX           0.00002
           RDUM         0.00000   0.00000
           ROH         -0.00005   0.00000   1.12160
           AH1          0.00004   0.00000   0.00000   0.28008
           ADUM         0.00013   0.00000   0.00000   0.00000   0.25000
           AOH2         0.00013   0.00000   0.00000   0.00000   0.25000
           AHOH         0.00001   0.00000   0.00000   0.00000   0.00000
           DH1         -0.00010   0.00000   0.00000  -0.00927   0.00000
           DDUM        -0.00002   0.00000   0.00000   0.00000   0.00000
           DOH2         0.00013   0.00000   0.00000   0.00000   0.00000
           DH2          0.00011   0.00000   0.00000   0.00000   0.00000
                         AOH2      AHOH       DH1      DDUM      DOH2
           AOH2         0.25000
           AHOH         0.00000   0.16000
           DH1          0.00000   0.00000   0.28159
           DDUM         0.00000   0.00000   0.00000   0.25000
           DOH2         0.00000   0.00000   0.00000  -0.25000   0.25000
           DH2          0.00000   0.00000   0.00000   0.00000   0.00000
                          DH2
           DH2          0.00000
     Eigenvalues ---    0.000021000.000001000.000001000.000001000.00000
     Eigenvalues --- 1000.000001000.000001000.000001000.000001000.00000
     Eigenvalues --- 1000.00000
 RFO step:  Lambda= 0.00000000D+00 EMin= 1.71519164D-05
 Quartic linear search produced a step of  2.00000.
 Variable       Old X    -DE/DX   Delta X   Delta X   Delta X     New X
                                 (Linear)    (Quad)   (Total)
    RX        7.58571   0.00012   0.05361   0.00000   0.05361   7.63933
   RDUM       1.88973   0.00000   0.00000   0.00000   0.00000   1.88973
   ROH        1.80885  -0.02114   0.00000   0.00000   0.00000   1.80885
   AH1        1.57080   0.00139   0.00000   0.00000   0.00000   1.57080
   ADUM       1.57080   0.00098   0.00000   0.00000   0.00000   1.57080
   AOH2       1.57080   0.00098   0.00000   0.00000   0.00000   1.57080
   AHOH       1.82422   0.00233   0.00000   0.00000   0.00000   1.82422
   DH1       -1.57080   0.00014   0.00000   0.00000   0.00000  -1.57080
   DDUM       3.14159  -0.00014   0.00000   0.00000   0.00000   3.14159
   DOH2       0.00000   0.00096   0.00000   0.00000   0.00000   0.00000
   DH2        4.71239   0.00082   0.00000   0.00000   0.00000   4.71239
         Item               Value     Threshold  Converged?
 Maximum Force            0.000124     0.000450     YES
 RMS     Force            0.000124     0.000300     YES
 Maximum Displacement     0.053615     0.001800     NO 
 RMS     Displacement     0.016165     0.001200     NO 
 Predicted change in Energy=-6.613455D-06
 GradGradGradGradGradGradGradGradGradGradGradGradGradGradGradGradGradGrad

 ---------------------------------------------------------------------------------------------------
                            Z-MATRIX (ANGSTROMS AND DEGREES)
   CD    Cent   Atom    N1       Length/X        N2       Alpha/Y        N3        Beta/Z          J
 ---------------------------------------------------------------------------------------------------
      1      1  F       -1  -1.969300          2.053680          0.000070
      2      2  C       -1  -1.222250          0.944230          0.000030
      3      3  C       -1   0.140030          1.057400         -0.000020
      4      4  C       -1   0.927950         -0.123640         -0.000080
      5      5  C       -1   2.414660         -0.018650         -0.000010
      6      6  F       -1   3.007080         -1.234610         -0.000560
      7      7  F       -1   2.858290          0.654480         -1.086020
      8      8  F       -1   2.858270          0.653500          1.086650
      9      9  C       -1   0.306540         -1.341490         -0.000090
     10     10  N       -1  -1.054170         -1.389970         -0.000060
     11     11  C       -1  -1.930500         -0.312100          0.000000
     12     12  S       -1  -3.570980         -0.506610          0.000030
     13     13  H       -1   0.596860          2.043100         -0.000020
     14     14  H       -1   0.831760         -2.288990         -0.000150
     15     15  H       -1  -1.521480         -2.296390         -0.000090
     16     16  H       10   4.042558(    15)      9   90.000(    33)     11  -90.000(    50)      0
     17         X       16   1.000000(    16)     10   90.000(    34)      9  180.000(    51)      0
     18         X       17   1.000000(    17)     16   90.000(    35)     10  180.000(    52)      0
     19     17  O       16   0.957200(    18)     17   90.000(    36)     18    0.000(    53)      0
     20     18  H       19   0.957200(    19)     16  104.520(    37)     17  270.000(    54)      0
 ---------------------------------------------------------------------------------------------------
                         Z-Matrix orientation:                         
 ---------------------------------------------------------------------
 Center     Atomic      Atomic             Coordinates (Angstroms)
 Number     Number       Type             X           Y           Z
 ---------------------------------------------------------------------
      1          9           0       -1.969300    2.053680    0.000070
      2          6           0       -1.222250    0.944230    0.000030
      3          6           0        0.140030    1.057400   -0.000020
      4          6           0        0.927950   -0.123640   -0.000080
      5          6           0        2.414660   -0.018650   -0.000010
      6          9           0        3.007080   -1.234610   -0.000560
      7          9           0        2.858290    0.654480   -1.086020
      8          9           0        2.858270    0.653500    1.086650
      9          6           0        0.306540   -1.341490   -0.000090
     10          7           0       -1.054170   -1.389970   -0.000060
     11          6           0       -1.930500   -0.312100    0.000000
     12         16           0       -3.570980   -0.506610    0.000030
     13          1           0        0.596860    2.043100   -0.000020
     14          1           0        0.831760   -2.288990   -0.000150
     15          1           0       -1.521480   -2.296390   -0.000090
     16          1           0       -1.054083   -1.390135    4.042498
     17         -1           0       -2.053449   -1.425741    4.042518
     18         -1           0       -2.053428   -1.425782    5.042518
     19          8           0       -1.054063   -1.390175    4.999698
     20          1           0       -1.087051   -0.464145    5.239723
 ---------------------------------------------------------------------
                    Distance matrix (angstroms):
                    1          2          3          4          5
     1  F    0.000000
     2  C    1.337521   0.000000
     3  C    2.332777   1.366973   0.000000
     4  C    3.624194   2.400772   1.419744   0.000000
     5  C    4.849088   3.762214   2.516312   1.490413   0.000000
     6  F    5.964663   4.757581   3.670597   2.357337   1.352598
     7  F    5.142274   4.232525   2.954772   2.347541   1.352527
     8  F    5.142625   4.232719   2.955134   2.347566   1.352555
     9  C    4.087374   2.749857   2.404662   1.367227   2.488790
    10  N    3.563171   2.340244   2.723184   2.352104   3.730054
    11  C    2.366098   1.442215   2.482463   2.864656   4.355058
    12  S    3.020011   2.760701   4.027123   4.515201   6.005497
    13  H    2.566182   2.125247   1.086415   2.191890   2.748674
    14  H    5.167661   3.830492   3.417136   2.167485   2.767673
    15  H    4.373060   3.254406   3.742796   3.274225   4.547669
    16  H    5.388757   4.671090   4.874247   4.677061   5.500456
    17  X    5.334307   4.759135   5.226801   5.189104   6.187563
    18  X    6.126990   5.633338   6.033625   6.000998   6.882653
    19  O    6.139550   5.520363   5.693299   5.525420   6.237804
    20  H    5.879777   5.427355   5.592472   5.624208   6.317852
                    6          7          8          9         10
     6  F    0.000000
     7  F    2.183809   0.000000
     8  F    2.183834   2.172670   0.000000
     9  C    2.702654   3.416807   3.416477   0.000000
    10  N    4.064221   4.546034   4.545756   1.361573   0.000000
    11  C    5.023019   5.004620   5.004549   2.462517   1.389157
    12  S    6.618222   6.622926   6.622828   3.966382   2.667332
    13  H    4.068482   2.867355   2.868068   3.397019   3.809445
    14  H    2.417382   3.734964   3.734451   1.083334   2.089251
    15  H    4.651369   5.391592   5.391203   2.062399   1.019792
    16  H    5.732674   6.766743   5.312249   4.265698   4.042558
    17  X    6.480121   7.399622   6.097982   4.681808   4.164405
    18  X    7.146882   8.124742   6.640563   5.568163   5.140757
    19  O    6.443575   7.518183   5.898720   5.181842   4.999758
    20  H    6.694483   7.538705   5.836327   5.492493   5.321049
                   11         12         13         14         15
    11  C    0.000000
    12  S    1.651971   0.000000
    13  H    3.454637   4.885889   0.000000
    14  H    3.396789   4.749842   4.338454   0.000000
    15  H    2.026007   2.720986   4.828927   2.353252   0.000000
    16  H    4.274582   4.843235   5.554698   4.550532   4.169205
    17  X    4.194909   4.414681   5.949715   5.041110   4.169376
    18  X    5.165499   5.345514   6.669659   5.873494   5.144785
    19  O    5.189158   5.666766   6.285706   5.418734   5.102703
    20  H    5.309353   5.798801   6.047871   5.870960   5.567899
                   16         17         18         19         20
    16  H    0.000000
    17  X    1.000000   0.000000
    18  X    1.414214   1.000000   0.000000
    19  O    0.957200   1.384280   1.000916   0.000000
    20  H    1.513901   1.814358   1.377505   0.957200   0.000000
 Symmetry turned off by external request.
 Stoichiometry    C6H5F4NOS
 Framework group  C1[X(C6H5F4NOS)]
 Deg. of freedom    48
 Full point group                 C1      NOp   1
 Rotational constants (GHZ):      0.7291842      0.3710317      0.3066019
 Standard basis: 6-31G(d) (6D, 7F)
 Integral buffers will be    131072 words long.
 Raffenetti 1 integral format.
 Two-electron integral symmetry is turned off.
   209 basis functions,   408 primitive gaussians,   209 cartesian basis functions
    54 alpha electrons       54 beta electrons
       nuclear repulsion energy       903.4181694762 Hartrees.
 NAtoms=   18 NActive=   18 NUniq=   18 SFac= 7.50D-01 NAtFMM=   80 NAOKFM=F Big=F
 One-electron integrals computed using PRISM.
 NBasis=   209 RedAO= T  NBF=   209
 NBsUse=   209 1.00D-06 NBFU=   209
 Initial guess read from the read-write file.
 B after Tr=     0.000000    0.000000    0.000000
         Rot=    1.000000    0.000000    0.000000    0.000000 Ang=   0.00 deg.
 Harris functional with IExCor=  205 diagonalized for initial guess.
 ExpMin= 1.17D-01 ExpMax= 2.19D+04 ExpMxC= 3.30D+03 IAcc=1 IRadAn=         1 AccDes= 0.00D+00
 HarFok:  IExCor=  205 AccDes= 0.00D+00 IRadAn=         1 IDoV= 1
 ScaDFX=  1.000000  1.000000  1.000000  1.000000
 FoFCou: FMM=F IPFlag=           0 FMFlag=      100000 FMFlg1=           0
         NFxFlg=           0 DoJE=T BraDBF=F KetDBF=T FulRan=T
         Omega=  0.000000  0.000000  1.000000  0.000000  0.000000 ICntrl=     500 IOpCl=  0
         NMat0=    1 NMatS0=    1 NMatT0=    0 NMatD0=    1 NMtDS0=    0 NMtDT0=    0
         I1Cent=           4 NGrid=           0.
 Symmetry not used in FoFCou.
 Requested convergence on RMS density matrix=1.00D-08 within 128 cycles.
 Requested convergence on MAX density matrix=1.00D-06.
 Requested convergence on             energy=1.00D-06.
 No special actions if energy rises.
 Integral accuracy reduced to 1.0D-05 until final iterations.
 Initial convergence to 1.0D-05 achieved.  Increase integral accuracy.
 SCF Done:  E(RHF) =  -1154.67249271     A.U. after    7 cycles
             Convg  =    0.7672D-08             -V/T =  2.0018
 Calling FoFJK, ICntrl=      2127 FMM=F ISym2X=0 I1Cent= 0 IOpClX= 0 NMat=1 NMatS=1 NMatT=0.
 -------------------------------------------------------------------
 Center     Atomic                   Forces (Hartrees/Bohr)
 Number     Number              X              Y              Z
 -------------------------------------------------------------------
      1        9           0.000000000    0.000000000    0.000000000
      2        6           0.000000000    0.000000000    0.000000000
      3        6           0.000000000    0.000000000    0.000000000
      4        6           0.000000000    0.000000000    0.000000000
      5        6           0.000000000    0.000000000    0.000000000
      6        9           0.000000000    0.000000000    0.000000000
      7        9           0.000000000    0.000000000    0.000000000
      8        9           0.000000000    0.000000000    0.000000000
      9        6           0.000000000    0.000000000    0.000000000
     10        7           0.000000000    0.000000000    0.000000000
     11        6           0.000000000    0.000000000    0.000000000
     12       16           0.000000000    0.000000000    0.000000000
     13        1           0.000000000    0.000000000    0.000000000
     14        1           0.000000000    0.000000000    0.000000000
     15        1           0.000000000    0.000000000    0.000000000
     16        1          -0.000937459   -0.000654913    0.010929710
     17        8           0.000719020    0.011116672   -0.009460534
     18        1          -0.000095113   -0.010330245   -0.001346153
 -------------------------------------------------------------------
 Cartesian Forces:  Max     0.011116672 RMS     0.002863889
 -----------------------------------------------------------------------------------------------
                       Internal Coordinate Forces (Hartree/Bohr or radian)
  Cent   Atom   N1       Length/X         N2         Alpha/Y        N3         Beta/Z          J
 -----------------------------------------------------------------------------------------------
      1  F 
      2  C 
      3  C 
      4  C 
      5  C 
      6  F 
      7  F 
      8  F 
      9  C 
     10  N 
     11  C 
     12  S 
     13  H 
     14  H 
     15  H 
     16  H       10   0.000123(     1)      9   0.001389(     6)     11   0.000146(    11)     0
         X       16   0.000000(     2)     10   0.000969(     7)      9   0.000810(    12)     0
         X       17   0.000000(     3)     16   0.000000(     8)     10  -0.000943(    13)     0
     17  O       16  -0.010807(     4)     17   0.000969(     9)     18   0.000943(    14)     0
     18  H       19  -0.010328(     5)     16   0.002324(    10)     17   0.000810(    15)     0
 -----------------------------------------------------------------------------------------------
 Internal  Forces:  Max     0.010806706 RMS     0.003964786

 GradGradGradGradGradGradGradGradGradGradGradGradGradGradGradGradGradGrad
 Berny optimization.
 Search for a local minimum.
 Step number   3 out of a maximum of   21
 All quantities printed in internal units (Hartrees-Bohrs-Radians)
 Update second derivatives using D2CorN and points    2    3
 DE= -6.62D-06 DEPred=-6.61D-06 R= 1.00D+00
 SS=  1.41D+00  RLast= 5.36D-02 DXNew= 5.0454D-01 1.6084D-01
 Trust test= 1.00D+00 RLast= 5.36D-02 DXMaxT set to 3.00D-01
 The second derivative matrix:
                          RX       RDUM       ROH       AH1      ADUM
           RX           0.00001
           RDUM         0.00000   0.00000
           ROH         -0.00007   0.00000   1.12160
           AH1          0.00007   0.00000   0.00000   0.28008
           ADUM         0.00020   0.00000   0.00000   0.00000   0.25000
           AOH2         0.00020   0.00000   0.00000   0.00000   0.25000
           AHOH         0.00002   0.00000   0.00000   0.00000   0.00000
           DH1         -0.00014   0.00000   0.00000  -0.00927   0.00000
           DDUM        -0.00003   0.00000   0.00000   0.00000   0.00000
           DOH2         0.00019   0.00000   0.00000   0.00000   0.00000
           DH2          0.00016   0.00000   0.00000   0.00000   0.00000
                         AOH2      AHOH       DH1      DDUM      DOH2
           AOH2         0.25000
           AHOH         0.00000   0.16000
           DH1          0.00000   0.00000   0.28159
           DDUM         0.00000   0.00000   0.00000   0.25000
           DOH2         0.00000   0.00000   0.00000  -0.25000   0.25000
           DH2          0.00000   0.00000   0.00000   0.00000   0.00000
                          DH2
           DH2          0.00000
     Eigenvalues ---    0.000011000.000001000.000001000.000001000.00000
     Eigenvalues --- 1000.000001000.000001000.000001000.000001000.00000
     Eigenvalues --- 1000.00000
 RFO step:  Lambda= 0.00000000D+00 EMin= 1.49249269D-05
 Quartic linear search produced a step of  2.00000.
 Variable       Old X    -DE/DX   Delta X   Delta X   Delta X     New X
                                 (Linear)    (Quad)   (Total)
    RX        7.63933   0.00012   0.10723   0.00000   0.10723   7.74656
   RDUM       1.88973   0.00000   0.00000   0.00000   0.00000   1.88973
   ROH        1.80885  -0.02113   0.00000   0.00000   0.00000   1.80885
   AH1        1.57080   0.00139   0.00000   0.00000   0.00000   1.57080
   ADUM       1.57080   0.00097   0.00000   0.00000   0.00000   1.57080
   AOH2       1.57080   0.00097   0.00000   0.00000   0.00000   1.57080
   AHOH       1.82422   0.00232   0.00000   0.00000   0.00000   1.82422
   DH1       -1.57080   0.00015   0.00000   0.00000   0.00000  -1.57080
   DDUM       3.14159  -0.00013   0.00000   0.00000   0.00000   3.14159
   DOH2       0.00000   0.00094   0.00000   0.00000   0.00000   0.00000
   DH2        4.71239   0.00081   0.00000   0.00000   0.00000   4.71239
         Item               Value     Threshold  Converged?
 Maximum Force            0.000123     0.000450     YES
 RMS     Force            0.000123     0.000300     YES
 Maximum Displacement     0.107230     0.001800     NO 
 RMS     Displacement     0.032331     0.001200     NO 
 Predicted change in Energy=-1.310460D-05
 GradGradGradGradGradGradGradGradGradGradGradGradGradGradGradGradGradGrad

 ---------------------------------------------------------------------------------------------------
                            Z-MATRIX (ANGSTROMS AND DEGREES)
   CD    Cent   Atom    N1       Length/X        N2       Alpha/Y        N3        Beta/Z          J
 ---------------------------------------------------------------------------------------------------
      1      1  F       -1  -1.969300          2.053680          0.000070
      2      2  C       -1  -1.222250          0.944230          0.000030
      3      3  C       -1   0.140030          1.057400         -0.000020
      4      4  C       -1   0.927950         -0.123640         -0.000080
      5      5  C       -1   2.414660         -0.018650         -0.000010
      6      6  F       -1   3.007080         -1.234610         -0.000560
      7      7  F       -1   2.858290          0.654480         -1.086020
      8      8  F       -1   2.858270          0.653500          1.086650
      9      9  C       -1   0.306540         -1.341490         -0.000090
     10     10  N       -1  -1.054170         -1.389970         -0.000060
     11     11  C       -1  -1.930500         -0.312100          0.000000
     12     12  S       -1  -3.570980         -0.506610          0.000030
     13     13  H       -1   0.596860          2.043100         -0.000020
     14     14  H       -1   0.831760         -2.288990         -0.000150
     15     15  H       -1  -1.521480         -2.296390         -0.000090
     16     16  H       10   4.099301(    15)      9   90.000(    33)     11  -90.000(    50)      0
     17         X       16   1.000000(    16)     10   90.000(    34)      9  180.000(    51)      0
     18         X       17   1.000000(    17)     16   90.000(    35)     10  180.000(    52)      0
     19     17  O       16   0.957200(    18)     17   90.000(    36)     18    0.000(    53)      0
     20     18  H       19   0.957200(    19)     16  104.520(    37)     17  270.000(    54)      0
 ---------------------------------------------------------------------------------------------------
                         Z-Matrix orientation:                         
 ---------------------------------------------------------------------
 Center     Atomic      Atomic             Coordinates (Angstroms)
 Number     Number       Type             X           Y           Z
 ---------------------------------------------------------------------
      1          9           0       -1.969300    2.053680    0.000070
      2          6           0       -1.222250    0.944230    0.000030
      3          6           0        0.140030    1.057400   -0.000020
      4          6           0        0.927950   -0.123640   -0.000080
      5          6           0        2.414660   -0.018650   -0.000010
      6          9           0        3.007080   -1.234610   -0.000560
      7          9           0        2.858290    0.654480   -1.086020
      8          9           0        2.858270    0.653500    1.086650
      9          6           0        0.306540   -1.341490   -0.000090
     10          7           0       -1.054170   -1.389970   -0.000060
     11          6           0       -1.930500   -0.312100    0.000000
     12         16           0       -3.570980   -0.506610    0.000030
     13          1           0        0.596860    2.043100   -0.000020
     14          1           0        0.831760   -2.288990   -0.000150
     15          1           0       -1.521480   -2.296390   -0.000090
     16          1           0       -1.054082   -1.390138    4.099241
     17         -1           0       -2.053448   -1.425744    4.099261
     18         -1           0       -2.053427   -1.425785    5.099261
     19          8           0       -1.054062   -1.390177    5.056441
     20          1           0       -1.087050   -0.464147    5.296467
 ---------------------------------------------------------------------
                    Distance matrix (angstroms):
                    1          2          3          4          5
     1  F    0.000000
     2  C    1.337521   0.000000
     3  C    2.332777   1.366973   0.000000
     4  C    3.624194   2.400772   1.419744   0.000000
     5  C    4.849088   3.762214   2.516312   1.490413   0.000000
     6  F    5.964663   4.757581   3.670597   2.357337   1.352598
     7  F    5.142274   4.232525   2.954772   2.347541   1.352527
     8  F    5.142625   4.232719   2.955134   2.347566   1.352555
     9  C    4.087374   2.749857   2.404662   1.367227   2.488790
    10  N    3.563171   2.340244   2.723184   2.352104   3.730054
    11  C    2.366098   1.442215   2.482463   2.864656   4.355058
    12  S    3.020011   2.760701   4.027123   4.515201   6.005497
    13  H    2.566182   2.125247   1.086415   2.191890   2.748674
    14  H    5.167661   3.830492   3.417136   2.167485   2.767673
    15  H    4.373060   3.254406   3.742796   3.274225   4.547669
    16  H    5.431455   4.720284   4.921411   4.726193   5.542293
    17  X    5.377438   4.807428   5.270811   5.233431   6.224783
    18  X    6.173775   5.684187   6.081129   6.048757   6.924333
    19  O    6.185847   5.571807   5.743195   5.576817   6.283376
    20  H    5.930399   5.482157   5.645671   5.677110   6.364991
                    6          7          8          9         10
     6  F    0.000000
     7  F    2.183809   0.000000
     8  F    2.183834   2.172670   0.000000
     9  C    2.702654   3.416807   3.416477   0.000000
    10  N    4.064221   4.546034   4.545756   1.361573   0.000000
    11  C    5.023019   5.004620   5.004549   2.462517   1.389157
    12  S    6.618222   6.622926   6.622828   3.966382   2.667332
    13  H    4.068482   2.867355   2.868068   3.397019   3.809445
    14  H    2.417382   3.734964   3.734451   1.083334   2.089251
    15  H    4.651369   5.391592   5.391203   2.062399   1.019792
    16  H    5.772833   6.809849   5.344030   4.319511   4.099301
    17  X    6.515674   7.439062   6.125688   4.730890   4.219510
    18  X    7.187033   8.167629   6.674521   5.619602   5.196429
    19  O    6.487706   7.564188   5.936514   5.236613   5.056501
    20  H    6.738991   7.586381   5.876839   5.546651   5.376935
                   11         12         13         14         15
    11  C    0.000000
    12  S    1.651971   0.000000
    13  H    3.454637   4.885889   0.000000
    14  H    3.396789   4.749842   4.338454   0.000000
    15  H    2.026007   2.720986   4.828927   2.353252   0.000000
    16  H    4.328285   4.890698   5.596130   4.601015   4.224248
    17  X    4.249619   4.466699   5.988415   5.086727   4.224416
    18  X    5.220907   5.399075   6.712663   5.922281   5.200414
    19  O    5.243853   5.716893   6.330934   5.471133   5.158314
    20  H    5.365360   5.850124   6.097099   5.921658   5.621331
                   16         17         18         19         20
    16  H    0.000000
    17  X    1.000000   0.000000
    18  X    1.414214   1.000000   0.000000
    19  O    0.957200   1.384280   1.000916   0.000000
    20  H    1.513901   1.814358   1.377505   0.957200   0.000000
 Symmetry turned off by external request.
 Stoichiometry    C6H5F4NOS
 Framework group  C1[X(C6H5F4NOS)]
 Deg. of freedom    48
 Full point group                 C1      NOp   1
 Rotational constants (GHZ):      0.7199413      0.3707462      0.3049856
 Standard basis: 6-31G(d) (6D, 7F)
 Integral buffers will be    131072 words long.
 Raffenetti 1 integral format.
 Two-electron integral symmetry is turned off.
   209 basis functions,   408 primitive gaussians,   209 cartesian basis functions
    54 alpha electrons       54 beta electrons
       nuclear repulsion energy       902.6368011171 Hartrees.
 NAtoms=   18 NActive=   18 NUniq=   18 SFac= 7.50D-01 NAtFMM=   80 NAOKFM=F Big=F
 One-electron integrals computed using PRISM.
 NBasis=   209 RedAO= T  NBF=   209
 NBsUse=   209 1.00D-06 NBFU=   209
 Initial guess read from the read-write file.
 B after Tr=     0.000000    0.000000    0.000000
         Rot=    1.000000    0.000000    0.000000    0.000000 Ang=   0.00 deg.
 Harris functional with IExCor=  205 diagonalized for initial guess.
 ExpMin= 1.17D-01 ExpMax= 2.19D+04 ExpMxC= 3.30D+03 IAcc=1 IRadAn=         1 AccDes= 0.00D+00
 HarFok:  IExCor=  205 AccDes= 0.00D+00 IRadAn=         1 IDoV= 1
 ScaDFX=  1.000000  1.000000  1.000000  1.000000
 FoFCou: FMM=F IPFlag=           0 FMFlag=      100000 FMFlg1=           0
         NFxFlg=           0 DoJE=T BraDBF=F KetDBF=T FulRan=T
         Omega=  0.000000  0.000000  1.000000  0.000000  0.000000 ICntrl=     500 IOpCl=  0
         NMat0=    1 NMatS0=    1 NMatT0=    0 NMatD0=    1 NMtDS0=    0 NMtDT0=    0
         I1Cent=           4 NGrid=           0.
 Symmetry not used in FoFCou.
 Requested convergence on RMS density matrix=1.00D-08 within 128 cycles.
 Requested convergence on MAX density matrix=1.00D-06.
 Requested convergence on             energy=1.00D-06.
 No special actions if energy rises.
 Integral accuracy reduced to 1.0D-05 until final iterations.
 Initial convergence to 1.0D-05 achieved.  Increase integral accuracy.
 SCF Done:  E(RHF) =  -1154.67250583     A.U. after    8 cycles
             Convg  =    0.8464D-08             -V/T =  2.0018
 Calling FoFJK, ICntrl=      2127 FMM=F ISym2X=0 I1Cent= 0 IOpClX= 0 NMat=1 NMatS=1 NMatT=0.
 -------------------------------------------------------------------
 Center     Atomic                   Forces (Hartrees/Bohr)
 Number     Number              X              Y              Z
 -------------------------------------------------------------------
      1        9           0.000000000    0.000000000    0.000000000
      2        6           0.000000000    0.000000000    0.000000000
      3        6           0.000000000    0.000000000    0.000000000
      4        6           0.000000000    0.000000000    0.000000000
      5        6           0.000000000    0.000000000    0.000000000
      6        9           0.000000000    0.000000000    0.000000000
      7        9           0.000000000    0.000000000    0.000000000
      8        9           0.000000000    0.000000000    0.000000000
      9        6           0.000000000    0.000000000    0.000000000
     10        7           0.000000000    0.000000000    0.000000000
     11        6           0.000000000    0.000000000    0.000000000
     12       16           0.000000000    0.000000000    0.000000000
     13        1           0.000000000    0.000000000    0.000000000
     14        1           0.000000000    0.000000000    0.000000000
     15        1           0.000000000    0.000000000    0.000000000
     16        1          -0.000909431   -0.000670122    0.010915396
     17        8           0.000687671    0.011130953   -0.009445107
     18        1          -0.000082493   -0.010332092   -0.001348486
 -------------------------------------------------------------------
 Cartesian Forces:  Max     0.011130953 RMS     0.002862854
 -----------------------------------------------------------------------------------------------
                       Internal Coordinate Forces (Hartree/Bohr or radian)
  Cent   Atom   N1       Length/X         N2         Alpha/Y        N3         Beta/Z          J
 -----------------------------------------------------------------------------------------------
      1  F 
      2  C 
      3  C 
      4  C 
      5  C 
      6  F 
      7  F 
      8  F 
      9  C 
     10  N 
     11  C 
     12  S 
     13  H 
     14  H 
     15  H 
     16  H       10   0.000122(     1)      9   0.001378(     6)     11   0.000164(    11)     0
         X       16   0.000000(     2)     10   0.000942(     7)      9   0.000789(    12)     0
         X       17   0.000000(     3)     16   0.000000(     8)     10  -0.000917(    13)     0
     17  O       16  -0.010794(     4)     17   0.000942(     9)     18   0.000917(    14)     0
     18  H       19  -0.010331(     5)     16   0.002321(    10)     17   0.000789(    15)     0
 -----------------------------------------------------------------------------------------------
 Internal  Forces:  Max     0.010793613 RMS     0.003960263

 GradGradGradGradGradGradGradGradGradGradGradGradGradGradGradGradGradGrad
 Berny optimization.
 Search for a local minimum.
 Step number   4 out of a maximum of   21
 All quantities printed in internal units (Hartrees-Bohrs-Radians)
 Update second derivatives using D2CorN and points    3    4
 DE= -1.31D-05 DEPred=-1.31D-05 R= 1.00D+00
 SS=  1.41D+00  RLast= 1.07D-01 DXNew= 5.0454D-01 3.2169D-01
 Trust test= 1.00D+00 RLast= 1.07D-01 DXMaxT set to 3.22D-01
 The second derivative matrix:
                          RX       RDUM       ROH       AH1      ADUM
           RX           0.00001
           RDUM         0.00000   0.00000
           ROH         -0.00009   0.00000   1.12160
           AH1          0.00008   0.00000   0.00000   0.28008
           ADUM         0.00023   0.00000   0.00000   0.00000   0.25000
           AOH2         0.00023   0.00000   0.00000   0.00000   0.25000
           AHOH         0.00003   0.00000   0.00000   0.00000   0.00000
           DH1         -0.00015   0.00000   0.00000  -0.00927   0.00000
           DDUM        -0.00004   0.00000   0.00000   0.00000   0.00000
           DOH2         0.00022   0.00000   0.00000   0.00000   0.00000
           DH2          0.00018   0.00000   0.00000   0.00000   0.00000
                         AOH2      AHOH       DH1      DDUM      DOH2
           AOH2         0.25000
           AHOH         0.00000   0.16000
           DH1          0.00000   0.00000   0.28159
           DDUM         0.00000   0.00000   0.00000   0.25000
           DOH2         0.00000   0.00000   0.00000  -0.25000   0.25000
           DH2          0.00000   0.00000   0.00000   0.00000   0.00000
                          DH2
           DH2          0.00000
     Eigenvalues ---    0.000011000.000001000.000001000.000001000.00000
     Eigenvalues --- 1000.000001000.000001000.000001000.000001000.00000
     Eigenvalues --- 1000.00000
 RFO step:  Lambda= 0.00000000D+00 EMin= 1.13723517D-05
 Quartic linear search produced a step of  2.00000.
 Variable       Old X    -DE/DX   Delta X   Delta X   Delta X     New X
                                 (Linear)    (Quad)   (Total)
    RX        7.74656   0.00012   0.21446   0.00000   0.21446   7.96102
   RDUM       1.88973   0.00000   0.00000   0.00000   0.00000   1.88973
   ROH        1.80885  -0.02112   0.00000   0.00000   0.00000   1.80885
   AH1        1.57080   0.00138   0.00000   0.00000   0.00000   1.57080
   ADUM       1.57080   0.00094   0.00000   0.00000   0.00000   1.57080
   AOH2       1.57080   0.00094   0.00000   0.00000   0.00000   1.57080
   AHOH       1.82422   0.00232   0.00000   0.00000   0.00000   1.82422
   DH1       -1.57080   0.00016   0.00000   0.00000   0.00000  -1.57080
   DDUM       3.14159  -0.00013   0.00000   0.00000   0.00000   3.14159
   DOH2       0.00000   0.00092   0.00000   0.00000   0.00000   0.00000
   DH2        4.71239   0.00079   0.00000   0.00000   0.00000   4.71239
         Item               Value     Threshold  Converged?
 Maximum Force            0.000122     0.000450     YES
 RMS     Force            0.000122     0.000300     YES
 Maximum Displacement     0.214459     0.001800     NO 
 RMS     Displacement     0.064662     0.001200     NO 
 Predicted change in Energy=-2.585777D-05
 GradGradGradGradGradGradGradGradGradGradGradGradGradGradGradGradGradGrad

 ---------------------------------------------------------------------------------------------------
                            Z-MATRIX (ANGSTROMS AND DEGREES)
   CD    Cent   Atom    N1       Length/X        N2       Alpha/Y        N3        Beta/Z          J
[...]
 !       ROH         0.9572   -DE/DX =   -0.0209                        !
 !       AH1        90.0001   -DE/DX =    0.0002                        !
 !      ADUM        90.0      -DE/DX =    0.0001                        !
 !      AOH2        90.0      -DE/DX =    0.0001                        !
 !      AHOH       104.52     -DE/DX =    0.0022                        !
 !       DH1       -90.0002   -DE/DX =    0.0001                        !
 !      DDUM       180.0      -DE/DX =    0.0                           !
 !      DOH2         0.0      -DE/DX =    0.0001                        !
 !       DH2       270.0      -DE/DX =    0.0001                        !
 ------------------------------------------------------------------------
 GradGradGradGradGradGradGradGradGradGradGradGradGradGradGradGradGradGrad

 ---------------------------------------------------------------------------------------------------
                            Z-MATRIX (ANGSTROMS AND DEGREES)
   CD    Cent   Atom    N1       Length/X        N2       Alpha/Y        N3        Beta/Z          J
 ---------------------------------------------------------------------------------------------------
      1      1  F       -1  -1.969300          2.053680          0.000070
      2      2  C       -1  -1.222250          0.944230          0.000030
      3      3  C       -1   0.140030          1.057400         -0.000020
      4      4  C       -1   0.927950         -0.123640         -0.000080
      5      5  C       -1   2.414660         -0.018650         -0.000010
      6      6  F       -1   3.007080         -1.234610         -0.000560
      7      7  F       -1   2.858290          0.654480         -1.086020
      8      8  F       -1   2.858270          0.653500          1.086650
      9      9  C       -1   0.306540         -1.341490         -0.000090
     10     10  N       -1  -1.054170         -1.389970         -0.000060
     11     11  C       -1  -1.930500         -0.312100          0.000000
     12     12  S       -1  -3.570980         -0.506610          0.000030
     13     13  H       -1   0.596860          2.043100         -0.000020
     14     14  H       -1   0.831760         -2.288990         -0.000150
     15     15  H       -1  -1.521480         -2.296390         -0.000090
     16     16  H       10  10.332673(    15)      9   90.000(    33)     11  -90.000(    50)      0
     17         X       16   1.000000(    16)     10   90.000(    34)      9  180.000(    51)      0
     18         X       17   1.000000(    17)     16   90.000(    35)     10  180.000(    52)      0
     19     17  O       16   0.957200(    18)     17   90.000(    36)     18    0.000(    53)      0
     20     18  H       19   0.957200(    19)     16  104.520(    37)     17  270.000(    54)      0
 ---------------------------------------------------------------------------------------------------
                         Z-Matrix orientation:                         
 ---------------------------------------------------------------------
 Center     Atomic      Atomic             Coordinates (Angstroms)
 Number     Number       Type             X           Y           Z
 ---------------------------------------------------------------------
      1          9           0       -1.969300    2.053680    0.000070
      2          6           0       -1.222250    0.944230    0.000030
      3          6           0        0.140030    1.057400   -0.000020
      4          6           0        0.927950   -0.123640   -0.000080
      5          6           0        2.414660   -0.018650   -0.000010
      6          9           0        3.007080   -1.234610   -0.000560
      7          9           0        2.858290    0.654480   -1.086020
      8          9           0        2.858270    0.653500    1.086650
      9          6           0        0.306540   -1.341490   -0.000090
     10          7           0       -1.054170   -1.389970   -0.000060
     11          6           0       -1.930500   -0.312100    0.000000
     12         16           0       -3.570980   -0.506610    0.000030
     13          1           0        0.596860    2.043100   -0.000020
     14          1           0        0.831760   -2.288990   -0.000150
     15          1           0       -1.521480   -2.296390   -0.000090
     16          1           0       -1.053949   -1.390393   10.332613
     17         -1           0       -2.053315   -1.425999   10.332633
     18         -1           0       -2.053293   -1.426040   11.332633
     19          8           0       -1.053928   -1.390432   11.289813
     20          1           0       -1.086917   -0.464402   11.529839
 ---------------------------------------------------------------------
                    Distance matrix (angstroms):
                    1          2          3          4          5
     1  F    0.000000
     2  C    1.337521   0.000000
     3  C    2.332777   1.366973   0.000000
     4  C    3.624194   2.400772   1.419744   0.000000
     5  C    4.849088   3.762214   2.516312   1.490413   0.000000
     6  F    5.964663   4.757581   3.670597   2.357337   1.352598
     7  F    5.142274   4.232525   2.954772   2.347541   1.352527
     8  F    5.142625   4.232719   2.955134   2.347566   1.352555
     9  C    4.087374   2.749857   2.404662   1.367227   2.488790
    10  N    3.563171   2.340244   2.723184   2.352104   3.730054
    11  C    2.366098   1.442215   2.482463   2.864656   4.355058
    12  S    3.020011   2.760701   4.027123   4.515201   6.005497
    13  H    2.566182   2.125247   1.086415   2.191890   2.748674
    14  H    5.167661   3.830492   3.417136   2.167485   2.767673
    15  H    4.373060   3.254406   3.742796   3.274225   4.547669
    16  H   10.929820  10.594389  10.685532  10.597034  10.985264
    17  X   10.903077  10.633501  10.850887  10.832776  11.344908
    18  X   11.855062  11.607614  11.807081  11.790439  12.262633
    19  O   11.838839  11.529882  11.613688  11.532315  11.890038
    20  H   11.834480  11.616327  11.694397  11.709605  12.058074
                    6          7          8          9         10
     6  F    0.000000
     7  F    2.183809   0.000000
     8  F    2.183834   2.172670   0.000000
     9  C    2.702654   3.416807   3.416477   0.000000
    10  N    4.064221   4.546034   4.545756   1.361573   0.000000
    11  C    5.023019   5.004620   5.004549   2.462517   1.389157
    12  S    6.618222   6.622926   6.622828   3.966382   2.667332
    13  H    4.068482   2.867355   2.868068   3.397019   3.809445
    14  H    2.417382   3.734964   3.734451   1.083334   2.089251
    15  H    4.651369   5.391592   5.391203   2.062399   1.019792
    16  H   11.103634  12.242234  10.245525  10.422000  10.332673
    17  X   11.507350  12.603091  10.674089  10.599114  10.380951
    18  X   12.413110  13.515738  11.551109  11.576121  11.376708
    19  O   11.999525  13.139573  11.116991  11.371684  11.289873
    20  H   12.259859  13.265612  11.219376  11.646900  11.567036
                   11         12         13         14         15
    11  C    0.000000
    12  S    1.651971   0.000000
    13  H    3.454637   4.885889   0.000000
    14  H    3.396789   4.749842   4.338454   0.000000
    15  H    2.026007   2.720986   4.828927   2.353252   0.000000
    16  H   10.425639  10.671401  11.012600  10.541792  10.382879
    17  X   10.393227  10.483858  11.217032  10.762659  10.382948
    18  X   11.387911  11.470685  12.144434  11.726048  11.378530
    19  O   11.375019  11.600685  11.915309  11.481572  11.335841
    20  H   11.561662  11.794442  11.918906  11.830093  11.682649
                   16         17         18         19         20
    16  H    0.000000
    17  X    1.000000   0.000000
    18  X    1.414214   1.000000   0.000000
    19  O    0.957200   1.384280   1.000916   0.000000
    20  H    1.513901   1.814358   1.377505   0.957200   0.000000
 Symmetry turned off by external request.
 Stoichiometry    C6H5F4NOS
 Framework group  C1[X(C6H5F4NOS)]
 Deg. of freedom    48
 Full point group                 C1      NOp   1
 Rotational constants (GHZ):      0.3806123      0.2082494      0.1525033

 **********************************************************************

            Population analysis using the SCF density.

 **********************************************************************

 Alpha  occ. eigenvalues --  -91.90472 -26.36807 -26.35875 -26.35858 -26.33455
 Alpha  occ. eigenvalues --  -20.56083 -15.68732 -11.54150 -11.37839 -11.37179
 Alpha  occ. eigenvalues --  -11.36127 -11.31232 -11.30323  -8.91562  -6.59891
 Alpha  occ. eigenvalues --   -6.59613  -6.59488  -1.74052  -1.65057  -1.64712
 Alpha  occ. eigenvalues --   -1.64366  -1.35549  -1.34226  -1.17117  -1.12064
 Alpha  occ. eigenvalues --   -1.02970  -0.97156  -0.92583  -0.88243  -0.84822
 Alpha  occ. eigenvalues --   -0.83664  -0.83290  -0.76974  -0.75858  -0.73819
 Alpha  occ. eigenvalues --   -0.72228  -0.71564  -0.71317  -0.70741  -0.70240
 Alpha  occ. eigenvalues --   -0.67476  -0.67465  -0.66051  -0.63994  -0.62519
 Alpha  occ. eigenvalues --   -0.60749  -0.59330  -0.57147  -0.52583  -0.49836
 Alpha  occ. eigenvalues --   -0.46551  -0.43275  -0.34123  -0.30989
 Alpha virt. eigenvalues --    0.04476   0.08751   0.17677   0.21032   0.24490
 Alpha virt. eigenvalues --    0.25205   0.26501   0.26562   0.30057   0.30371
 Alpha virt. eigenvalues --    0.33768   0.35294   0.39322   0.40726   0.42595
 Alpha virt. eigenvalues --    0.43028   0.46649   0.49547   0.54193   0.55522
 Alpha virt. eigenvalues --    0.56661   0.59812   0.61214   0.64405   0.66834
 Alpha virt. eigenvalues --    0.68014   0.71931   0.73135   0.73699   0.75428
 Alpha virt. eigenvalues --    0.77192   0.77912   0.82952   0.84499   0.87490
 Alpha virt. eigenvalues --    0.89151   0.90001   0.92251   0.95664   0.99779
 Alpha virt. eigenvalues --    1.02220   1.02231   1.02770   1.04624   1.07513
 Alpha virt. eigenvalues --    1.09200   1.09834   1.13130   1.13544   1.15199
 Alpha virt. eigenvalues --    1.15998   1.16733   1.17122   1.18073   1.24482
 Alpha virt. eigenvalues --    1.28396   1.31279   1.31745   1.33424   1.34232
 Alpha virt. eigenvalues --    1.35034   1.38039   1.39107   1.42169   1.42429
 Alpha virt. eigenvalues --    1.43360   1.46542   1.47457   1.52020   1.60599
 Alpha virt. eigenvalues --    1.60710   1.61789   1.63765   1.64349   1.64439
 Alpha virt. eigenvalues --    1.65562   1.66576   1.67565   1.69625   1.70181
 Alpha virt. eigenvalues --    1.72107   1.76199   1.76460   1.81179   1.86497
 Alpha virt. eigenvalues --    1.89875   1.92547   1.93645   2.00218   2.01967
 Alpha virt. eigenvalues --    2.03330   2.04355   2.06045   2.06734   2.09454
 Alpha virt. eigenvalues --    2.10021   2.12432   2.12755   2.17980   2.20239
 Alpha virt. eigenvalues --    2.22603   2.22663   2.24629   2.28551   2.29708
 Alpha virt. eigenvalues --    2.30543   2.32687   2.33725   2.34955   2.36101
 Alpha virt. eigenvalues --    2.37892   2.39172   2.43268   2.45202   2.45626
 Alpha virt. eigenvalues --    2.47171   2.52232   2.60899   2.61932   2.62187
 Alpha virt. eigenvalues --    2.65470   2.68395   2.75257   2.82804   2.84523
 Alpha virt. eigenvalues --    2.84585   2.91371   2.92880   2.93317   2.94686
 Alpha virt. eigenvalues --    3.00405   3.07435   3.09576   3.17322   3.22118
 Alpha virt. eigenvalues --    3.29614   3.37489   3.38469   3.42872   3.44542
 Alpha virt. eigenvalues --    3.49365   3.71194   3.97014   4.36328   4.40020
 Alpha virt. eigenvalues --    4.45120   4.48247   4.60074   4.64262   4.68752
 Alpha virt. eigenvalues --    4.81861   5.01448   5.15550   5.57496   6.01874
          Condensed to atoms (all electrons):
              1          2          3          4          5          6
     1  F    9.160609   0.267353  -0.033709   0.002210  -0.000015   0.000000
     2  C    0.267353   4.577957   0.569024  -0.026396   0.000847  -0.000019
     3  C   -0.033709   0.569024   5.066136   0.355334  -0.012085   0.002193
     4  C    0.002210  -0.026396   0.355334   5.204940   0.415994  -0.045513
     5  C   -0.000015   0.000847  -0.012085   0.415994   3.549444   0.289252
     6  F    0.000000  -0.000019   0.002193  -0.045513   0.289252   9.188430
     7  F    0.000000   0.000293   0.005007  -0.055262   0.284749  -0.030765
     8  F    0.000000   0.000293   0.005003  -0.055257   0.284543  -0.030760
     9  C    0.000132  -0.023062  -0.055195   0.592023  -0.020895   0.005507
    10  N    0.001383  -0.053312  -0.021169  -0.035806   0.001209   0.000240
    11  C   -0.040821   0.379031  -0.078783  -0.001387   0.000079   0.000002
    12  S    0.003520  -0.083578   0.001606  -0.000054   0.000006   0.000000
    13  H   -0.000266  -0.017601   0.368655  -0.029939  -0.000288   0.000035
    14  H    0.000000  -0.000110   0.001814  -0.022513  -0.000140   0.005046
    15  H   -0.000018   0.003856  -0.000574   0.002341  -0.000015   0.000001
    16  H    0.000000   0.000000   0.000000   0.000000   0.000000   0.000000
    17  O    0.000000   0.000000   0.000000   0.000000   0.000000   0.000000
    18  H    0.000000   0.000000   0.000000   0.000000   0.000000   0.000000
              7          8          9         10         11         12
     1  F    0.000000   0.000000   0.000132   0.001383  -0.040821   0.003520
     2  C    0.000293   0.000293  -0.023062  -0.053312   0.379031  -0.083578
     3  C    0.005007   0.005003  -0.055195  -0.021169  -0.078783   0.001606
     4  C   -0.055262  -0.055257   0.592023  -0.035806  -0.001387  -0.000054
     5  C    0.284749   0.284543  -0.020895   0.001209   0.000079   0.000006
     6  F   -0.030765  -0.030760   0.005507   0.000240   0.000002   0.000000
     7  F    9.201579  -0.033971   0.000529  -0.000006  -0.000002   0.000000
     8  F   -0.033971   9.202153   0.000524  -0.000006  -0.000002   0.000000
     9  C    0.000529   0.000524   4.737556   0.265147  -0.038610   0.003327
    10  N   -0.000006  -0.000006   0.265147   7.234936   0.213390  -0.104471
    11  C   -0.000002  -0.000002  -0.038610   0.213390   4.954459   0.445193
    12  S    0.000000   0.000000   0.003327  -0.104471   0.445193  15.953520
    13  H    0.000908   0.000905   0.002435  -0.000261   0.002624  -0.000056
    14  H    0.000084   0.000084   0.379979  -0.032157   0.000959  -0.000133
    15  H    0.000000   0.000000  -0.021552   0.309994  -0.017933   0.013758
    16  H    0.000000   0.000000   0.000000   0.000000   0.000000   0.000000
    17  O    0.000000   0.000000   0.000000   0.000000   0.000000   0.000000
    18  H    0.000000   0.000000   0.000000   0.000000   0.000000   0.000000
             13         14         15         16         17         18
     1  F   -0.000266   0.000000  -0.000018   0.000000   0.000000   0.000000
     2  C   -0.017601  -0.000110   0.003856   0.000000   0.000000   0.000000
     3  C    0.368655   0.001814  -0.000574   0.000000   0.000000   0.000000
     4  C   -0.029939  -0.022513   0.002341   0.000000   0.000000   0.000000
     5  C   -0.000288  -0.000140  -0.000015   0.000000   0.000000   0.000000
     6  F    0.000035   0.005046   0.000001   0.000000   0.000000   0.000000
     7  F    0.000908   0.000084   0.000000   0.000000   0.000000   0.000000
     8  F    0.000905   0.000084   0.000000   0.000000   0.000000   0.000000
     9  C    0.002435   0.379979  -0.021552   0.000000   0.000000   0.000000
    10  N   -0.000261  -0.032157   0.309994   0.000000   0.000000   0.000000
    11  C    0.002624   0.000959  -0.017933   0.000000   0.000000   0.000000
    12  S   -0.000056  -0.000133   0.013758   0.000000   0.000000   0.000000
    13  H    0.392685  -0.000062   0.000008   0.000000   0.000000   0.000000
    14  H   -0.000062   0.381345  -0.002123   0.000000   0.000000   0.000000
    15  H    0.000008  -0.002123   0.270683   0.000000   0.000000   0.000000
    16  H    0.000000   0.000000   0.000000   0.320404   0.265361  -0.018718
    17  O    0.000000   0.000000   0.000000   0.265361   8.335605   0.265441
    18  H    0.000000   0.000000   0.000000  -0.018718   0.265441   0.319823
 Mulliken atomic charges:
              1
     1  F   -0.360380
     2  C    0.405425
     3  C   -0.173257
     4  C   -0.300716
     5  C    1.207316
     6  F   -0.383648
     7  F   -0.373144
     8  F   -0.373511
     9  C    0.172154
    10  N   -0.779111
    11  C    0.181800
    12  S   -0.232641
    13  H    0.280217
    14  H    0.287924
    15  H    0.441572
    16  H    0.432953
    17  O   -0.866407
    18  H    0.433454
 Sum of Mulliken atomic charges =   0.00000
 Mulliken charges with hydrogens summed into heavy atoms:
              1
     1  F   -0.360380
     2  C    0.405425
     3  C    0.106960
     4  C   -0.300716
     5  C    1.207316
     6  F   -0.383648
     7  F   -0.373144
     8  F   -0.373511
     9  C    0.460078
    10  N   -0.337540
    11  C    0.181800
    12  S   -0.232641
    17  O    0.000000
 Sum of Mulliken charges with hydrogens summed into heavy atoms =   0.00000
 Electronic spatial extent (au):  <R**2>=           7270.5215
 Charge=              0.0000 electrons
 Dipole moment (field-independent basis, Debye):
    X=              3.4982    Y=             -0.8767    Z=             -1.3730  Tot=              3.8589
 Quadrupole moment (field-independent basis, Debye-Ang):
   XX=           -106.0690   YY=            -74.5581   ZZ=           -110.6464
   XY=              0.1192   XZ=              0.6978   YZ=             22.4020
 Traceless Quadrupole moment (field-independent basis, Debye-Ang):
   XX=             -8.9779   YY=             22.5331   ZZ=            -13.5552
   XY=              0.1192   XZ=              0.6978   YZ=             22.4020
 Octapole moment (field-independent basis, Debye-Ang**2):
  XXX=            126.1192  YYY=             22.9755  ZZZ=           -677.8478  XYY=             32.9593
  XXY=             15.5455  XXZ=            -81.2875  XZZ=             45.4494  YZZ=            292.1445
  YYZ=           -115.0066  XYZ=            -23.5108
 Hexadecapole moment (field-independent basis, Debye-Ang**3):
 XXXX=          -2728.1531 YYYY=           -531.1727 ZZZZ=         -11553.3224 XXXY=            -73.1712
 XXXZ=            256.6002 YYYX=            -36.0475 YYYZ=            359.5378 ZZZX=            614.3284
 ZZZY=           3711.6020 XXYY=           -538.4554 XXZZ=          -1380.5613 YYZZ=          -1461.4389
 XXYZ=            133.5158 YYXZ=            121.8304 ZZXY=           -318.2455
 N-N= 8.575582149080D+02 E-N=-4.453023322604D+03  KE= 1.152548759144D+03
 1\1\GINC-PAMLICO\FOpt\RHF\6-31G(d)\C6H5F4N1O1S1\ANAC\07-Jul-2024\1\\#H
 F/6-31G* Opt=Z-matrix NoSymm\\water interaction with atom N10\\0,1\F,-
 1,-1.9693,2.05368,0.00007\C,-1,-1.22225,0.94423,0.00003\C,-1,0.14003,1
 .0574,-0.00002\C,-1,0.92795,-0.12364,-0.00008\C,-1,2.41466,-0.01865,-0
 .00001\F,-1,3.00708,-1.23461,-0.00056\F,-1,2.85829,0.65448,-1.08602\F,
 -1,2.85827,0.6535,1.08665\C,-1,0.30654,-1.34149,-0.00009\N,-1,-1.05417
 ,-1.38997,-0.00006\C,-1,-1.9305,-0.3121,0.\S,-1,-3.57098,-0.50661,0.00
 003\H,-1,0.59686,2.0431,-0.00002\H,-1,0.83176,-2.28899,-0.00015\H,-1,-
 1.52148,-2.29639,-0.00009\H,10,RX,9,AH1,11,DH1,0\X,16,RDUM,10,ADUM,9,D
 DUM,0\X,17,RDUM,16,ADUM,10,DDUM,0\O,16,ROH,17,AOH2,18,DOH2,0\H,19,ROH,
 16,AHOH,17,DH2,0\\RX=10.33267335\RDUM=1.\ROH=0.9572\AH1=90.00012\ADUM=
 90.\AOH2=90.\AHOH=104.52\DH1=-90.00024\DDUM=180.\DOH2=0.\DH2=270.\\Ver
 sion=EM64L-G09RevA.01\HF=-1154.6729249\RMSD=3.214e-09\RMSF=2.849e-03\D
 ipole=1.3763042,-0.3449373,-0.5401919\Quadrupole=-6.6748429,16.7528013
 ,-10.0779584,0.0886204,0.5188166,16.6553258\PG=C01 [X(C6H5F4N1O1S1)]\\
 @


 A SOLDIER'S LIFE IS A LIFE OF HONOR, BUT A DOG WOULD NOT LEAD IT.
 -- PRINCE RUPERT, FOUNDER OF THE HUDSON'S BAY COMPANY
 Job cpu time:  0 days  0 hours  3 minutes 33.1 seconds.
 File lengths (MBytes):  RWF=     33 Int=      0 D2E=      0 Chk=      4 Scr=      1
 Normal termination of Gaussian 09 at Sun Jul  7 13:19:16 2024.
