 Entering Gaussian System, Link 0=g09
 Initial command:
 /home/anac/programs/g09/g09/l1.exe /home/anac/programs/g09/g09/scratch/Gau-338650.inp -scrdir=/home/anac/programs/g09/g09/scratch/
 Entering Link 1 = /home/anac/programs/g09/g09/l1.exe PID=    338652.
  
 Copyright (c) 1988,1990,1992,1993,1995,1998,2003,2009, Gaussian, Inc.
                  All Rights Reserved.
  
 This is part of the Gaussian(R) 09 program.  It is based on
 the Gaussian(R) 03 system (copyright 2003, Gaussian, Inc.),
 the Gaussian(R) 98 system (copyright 1998, Gaussian, Inc.),
 the Gaussian(R) 94 system (copyright 1995, Gaussian, Inc.),
 the Gaussian 92(TM) system (copyright 1992, Gaussian, Inc.),
 the Gaussian 90(TM) system (copyright 1990, Gaussian, Inc.),
 the Gaussian 88(TM) system (copyright 1988, Gaussian, Inc.),
 the Gaussian 86(TM) system (copyright 1986, Carnegie Mellon
 University), and the Gaussian 82(TM) system (copyright 1983,
 Carnegie Mellon University). Gaussian is a federally registered
 trademark of Gaussian, Inc.
  
 This software contains proprietary and confidential information,
 including trade secrets, belonging to Gaussian, Inc.
  
 This software is provided under written license and may be
 used, copied, transmitted, or stored only in accord with that
 written license.
  
 The following legend is applicable only to US Government
 contracts under FAR:
  
                    RESTRICTED RIGHTS LEGEND
  
 Use, reproduction and disclosure by the US Government is
 subject to restrictions as set forth in subparagraphs (a)
 and (c) of the Commercial Computer Software - Restricted
 Rights clause in FAR 52.227-19.
  
 Gaussian, Inc.
 340 Quinnipiac St., Bldg. 40, Wallingford CT 06492
  
  
 ---------------------------------------------------------------
 Warning -- This program may not be used in any manner that
 competes with the business of Gaussian, Inc. or will provide
 assistance to any competitor of Gaussian, Inc.  The licensee
 of this program is prohibited from giving any competitor of
 Gaussian, Inc. access to this program.  By using this program,
 the user acknowledges that Gaussian, Inc. is engaged in the
 business of creating and licensing software in the field of
 computational chemistry and represents and warrants to the
 licensee that it is not a competitor of Gaussian, Inc. and that
 it will not use this program in any manner prohibited above.
 ---------------------------------------------------------------
  

 Cite this work as:
 Gaussian 09, Revision A.01,
 M. J. Frisch, G. W. Trucks, H. B. Schlegel, G. E. Scuseria, 
 M. A. Robb, J. R. Cheeseman, G. Scalmani, V. Barone, B. Mennucci, 
 G. A. Petersson, H. Nakatsuji, M. Caricato, X. Li, H. P. Hratchian, 
 A. F. Izmaylov, J. Bloino, G. Zheng, J. L. Sonnenberg, M. Hada, 
 M. Ehara, K. Toyota, R. Fukuda, J. Hasegawa, M. Ishida, T. Nakajima, 
 Y. Honda, O. Kitao, H. Nakai, T. Vreven, J. A. Montgomery, Jr., 
 J. E. Peralta, F. Ogliaro, M. Bearpark, J. J. Heyd, E. Brothers, 
 K. N. Kudin, V. N. Staroverov, R. Kobayashi, J. Normand, 
 K. Raghavachari, A. Rendell, J. C. Burant, S. S. Iyengar, J. Tomasi, 
 M. Cossi, N. Rega, J. M. Millam, M. Klene, J. E. Knox, J. B. Cross, 
 V. Bakken, C. Adamo, J. Jaramillo, R. Gomperts, R. E. Stratmann, 
 O. Yazyev, A. J. Austin, R. Cammi, C. Pomelli, J. W. Ochterski, 
 R. L. Martin, K. Morokuma, V. G. Zakrzewski, G. A. Voth, 
 P. Salvador, J. J. Dannenberg, S. Dapprich, A. D. Daniels, 
 O. Farkas, J. B. Foresman, J. V. Ortiz, J. Cioslowski, 
 and D. J. Fox, Gaussian, Inc., Wallingford CT, 2009.
 
 ******************************************
 Gaussian 09:  EM64L-G09RevA.01  8-May-2009
                 7-Jul-2024 
 ******************************************
 %NPROC=4
 Will use up to    4 processors via shared memory.
 %NoSave
 ------------------------------
 #HF/6-31G* Opt=Z-matrix NoSymm
 ------------------------------
 1/10=7,18=40,38=1/1,3;
 2/12=2,15=1,17=6,18=5,29=3,40=1/2;
 3/5=1,6=6,7=1,11=9,16=1,25=1,30=1,71=1/1,2,3;
 4//1;
 5/5=2,38=5/2;
 6/7=2,8=2,9=2,10=2,28=1/1;
 7/29=1,30=1/1,2,3,16;
 1/10=7,18=40/3(2);
 2/15=1,29=3/2;
 99//99;
 2/15=1,29=3/2;
 3/5=1,6=6,7=1,11=9,16=1,25=1,30=1,71=1/1,2,3;
 4/5=5,16=3/1;
 5/5=2,38=5/2;
 7/30=1/1,2,3,16;
 1/18=40/3(-5);
 2/15=1,29=3/2;
 6/7=2,8=2,9=2,10=2,19=2,28=1/1;
 99/9=1/99;
 -------------------------------
 water interaction with atom N10
 -------------------------------
 Symbolic Z-matrix:
 Charge =  0 Multiplicity = 1
 9                    -1   -1.9693    2.05368   0.00007 
 6                    -1   -1.22225   0.94423   0.00003 
 6                    -1    0.14003   1.0574   -0.00002 
 6                    -1    0.92795  -0.12364  -0.00008 
 6                    -1    2.41466  -0.01865  -0.00001 
 9                    -1    3.00708  -1.23461  -0.00056 
 9                    -1    2.85829   0.65448  -1.08602 
 9                    -1    2.85827   0.6535    1.08665 
 6                    -1    0.30654  -1.34149  -0.00009 
 7                    -1   -1.05417  -1.38997  -0.00006 
 6                    -1   -1.9305   -0.3121    0. 
 16                   -1   -3.57098  -0.50661   0.00003 
 1                    -1    0.59686   2.0431   -0.00002 
 1                    -1    0.83176  -2.28899  -0.00015 
 1                    -1   -1.52148  -2.29639  -0.00009 
 H1                   10   RX       9    AH1      11   DH1      0
 X                    16   RDUM     10   ADUM     9    DDUM     0
 X                    17   RDUM     16   ADUM     10   DDUM     0
 OH2                  16   ROH      17   AOH2     18   DOH2     0
 H2                   19   ROH      16   AHOH     17   DH2      0
       Variables:
  RX                    3.273                    
       Constants:
  RDUM                  1.                       
  ROH                   0.9572                   
  AH1                  90.00012                  
  ADUM                 90.                       
  AOH2                 90.                       
  AHOH                104.52                     
  DH1                 -90.00024                  
  DDUM                180.                       
  DOH2                  0.                       
  DH2                 180.                       
 

 GradGradGradGradGradGradGradGradGradGradGradGradGradGradGradGradGradGrad
 Berny optimization.
 Initialization pass.
                       ----------------------------
                       !    Initial Parameters    !
                       ! (Angstroms and Degrees)  !
 ----------------------                            ----------------------
 !      Name          Value   Derivative information (Atomic Units)     !
 ------------------------------------------------------------------------
 !       RX          3.273    estimate D2E/DX2                          !
 !      RDUM         1.0      Frozen                                    !
 !       ROH         0.9572   Frozen                                    !
 !       AH1        90.0001   Frozen                                    !
 !      ADUM        90.0      Frozen                                    !
 !      AOH2        90.0      Frozen                                    !
 !      AHOH       104.52     Frozen                                    !
 !       DH1       -90.0002   Frozen                                    !
 !      DDUM       180.0      Frozen                                    !
 !      DOH2         0.0      Frozen                                    !
 !       DH2       180.0      Frozen                                    !
 ------------------------------------------------------------------------
 Trust Radius=3.00D-01 FncErr=1.00D-07 GrdErr=1.00D-07
 Number of steps in this run=  21 maximum allowed number of steps= 100.
 GradGradGradGradGradGradGradGradGradGradGradGradGradGradGradGradGradGrad

 ---------------------------------------------------------------------------------------------------
                            Z-MATRIX (ANGSTROMS AND DEGREES)
   CD    Cent   Atom    N1       Length/X        N2       Alpha/Y        N3        Beta/Z          J
 ---------------------------------------------------------------------------------------------------
      1      1  F       -1  -1.969300          2.053680          0.000070
      2      2  C       -1  -1.222250          0.944230          0.000030
      3      3  C       -1   0.140030          1.057400         -0.000020
      4      4  C       -1   0.927950         -0.123640         -0.000080
      5      5  C       -1   2.414660         -0.018650         -0.000010
      6      6  F       -1   3.007080         -1.234610         -0.000560
      7      7  F       -1   2.858290          0.654480         -1.086020
      8      8  F       -1   2.858270          0.653500          1.086650
      9      9  C       -1   0.306540         -1.341490         -0.000090
     10     10  N       -1  -1.054170         -1.389970         -0.000060
     11     11  C       -1  -1.930500         -0.312100          0.000000
     12     12  S       -1  -3.570980         -0.506610          0.000030
     13     13  H       -1   0.596860          2.043100         -0.000020
     14     14  H       -1   0.831760         -2.288990         -0.000150
     15     15  H       -1  -1.521480         -2.296390         -0.000090
     16     16  H       10   3.273000(    15)      9   90.000(    33)     11  -90.000(    50)      0
     17         X       16   1.000000(    16)     10   90.000(    34)      9  180.000(    51)      0
     18         X       17   1.000000(    17)     16   90.000(    35)     10  180.000(    52)      0
     19     17  O       16   0.957200(    18)     17   90.000(    36)     18    0.000(    53)      0
     20     18  H       19   0.957200(    19)     16  104.520(    37)     17  180.000(    54)      0
 ---------------------------------------------------------------------------------------------------
                         Z-Matrix orientation:                         
 ---------------------------------------------------------------------
 Center     Atomic      Atomic             Coordinates (Angstroms)
 Number     Number       Type             X           Y           Z
 ---------------------------------------------------------------------
      1          9           0       -1.969300    2.053680    0.000070
      2          6           0       -1.222250    0.944230    0.000030
      3          6           0        0.140030    1.057400   -0.000020
      4          6           0        0.927950   -0.123640   -0.000080
      5          6           0        2.414660   -0.018650   -0.000010
      6          9           0        3.007080   -1.234610   -0.000560
      7          9           0        2.858290    0.654480   -1.086020
      8          9           0        2.858270    0.653500    1.086650
      9          6           0        0.306540   -1.341490   -0.000090
     10          7           0       -1.054170   -1.389970   -0.000060
     11          6           0       -1.930500   -0.312100    0.000000
     12         16           0       -3.570980   -0.506610    0.000030
     13          1           0        0.596860    2.043100   -0.000020
     14          1           0        0.831760   -2.288990   -0.000150
     15          1           0       -1.521480   -2.296390   -0.000090
     16          1           0       -1.054100   -1.390104    3.272940
     17         -1           0       -2.053466   -1.425710    3.272960
     18         -1           0       -2.053444   -1.425751    4.272960
     19          8           0       -1.054079   -1.390143    4.230140
     20          1           0       -0.128035   -1.357160    4.470109
 ---------------------------------------------------------------------
                    Distance matrix (angstroms):
                    1          2          3          4          5
     1  F    0.000000
     2  C    1.337521   0.000000
     3  C    2.332777   1.366973   0.000000
     4  C    3.624194   2.400772   1.419744   0.000000
     5  C    4.849088   3.762214   2.516312   1.490413   0.000000
     6  F    5.964663   4.757581   3.670597   2.357337   1.352598
     7  F    5.142274   4.232525   2.954772   2.347541   1.352527
     8  F    5.142625   4.232719   2.955134   2.347566   1.352555
     9  C    4.087374   2.749857   2.404662   1.367227   2.488790
    10  N    3.563171   2.340244   2.723184   2.352104   3.730054
    11  C    2.366098   1.442215   2.482463   2.864656   4.355058
    12  S    3.020011   2.760701   4.027123   4.515201   6.005497
    13  H    2.566182   2.125247   1.086415   2.191890   2.748674
    14  H    5.167661   3.830492   3.417136   2.167485   2.767673
    15  H    4.373060   3.254406   3.742796   3.274225   4.547669
    16  H    4.838276   4.023597   4.257756   4.030523   4.962397
    17  X    4.777557   4.125482   4.657215   4.614869   5.714569
    18  X    5.510999   4.956372   5.407007   5.370575   6.340517
    19  O    5.530917   4.834399   5.030966   4.840169   5.639797
    20  H    5.916530   5.145416   5.087633   4.755971   5.314025
                    6          7          8          9         10
     6  F    0.000000
     7  F    2.183809   0.000000
     8  F    2.183834   2.172670   0.000000
     9  C    2.702654   3.416807   3.416477   0.000000
    10  N    4.064221   4.546034   4.545756   1.361573   0.000000
    11  C    5.023019   5.004620   5.004549   2.462517   1.389157
    12  S    6.618222   6.622926   6.622828   3.966382   2.667332
    13  H    4.068482   2.867355   2.868068   3.397019   3.809445
    14  H    2.417382   3.734964   3.734451   1.083334   2.089251
    15  H    4.651369   5.391592   5.391203   2.062399   1.019792
    16  H    5.218540   6.203842   4.925730   3.544916   3.273000
    17  X    6.030056   6.888631   5.764392   4.036035   3.422357
    18  X    6.626342   7.561161   6.212954   4.882170   4.388454
    19  O    5.866518   6.910042   5.418901   4.443928   4.230200
    20  H    5.461762   6.620830   4.940502   4.491300   4.565218
                   11         12         13         14         15
    11  C    0.000000
    12  S    1.651971   0.000000
    13  H    3.454637   4.885889   0.000000
    14  H    3.396789   4.749842   4.338454   0.000000
    15  H    2.026007   2.720986   4.828927   2.353252   0.000000
    16  H    3.555602   4.222225   5.022432   3.882986   3.428195
    17  X    3.459410   3.722857   5.456122   4.447812   3.428403
    18  X    4.417411   4.626626   6.108633   5.227720   4.393171
    19  O    4.452457   5.000925   5.692716   4.718015   4.351390
    20  H    4.931826   5.706042   5.662975   4.666125   4.775617
                   16         17         18         19         20
    16  H    0.000000
    17  X    1.000000   0.000000
    18  X    1.414214   1.000000   0.000000
    19  O    0.957200   1.384280   1.000916   0.000000
    20  H    1.513901   2.268292   1.936692   0.957200   0.000000
 Symmetry turned off by external request.
 Stoichiometry    C6H5F4NOS
 Framework group  C1[X(C6H5F4NOS)]
 Deg. of freedom    48
 Full point group                 C1      NOp   1
 Rotational constants (GHZ):      0.8657403      0.3767695      0.3267241
 Standard basis: 6-31G(d) (6D, 7F)
 Integral buffers will be    131072 words long.
 Raffenetti 1 integral format.
 Two-electron integral symmetry is turned off.
   209 basis functions,   408 primitive gaussians,   209 cartesian basis functions
    54 alpha electrons       54 beta electrons
       nuclear repulsion energy       915.2060004447 Hartrees.
 NAtoms=   18 NActive=   18 NUniq=   18 SFac= 7.50D-01 NAtFMM=   80 NAOKFM=F Big=F
 One-electron integrals computed using PRISM.
 NBasis=   209 RedAO= T  NBF=   209
 NBsUse=   209 1.00D-06 NBFU=   209
 Harris functional with IExCor=  205 diagonalized for initial guess.
 ExpMin= 1.17D-01 ExpMax= 2.19D+04 ExpMxC= 3.30D+03 IAcc=1 IRadAn=         1 AccDes= 0.00D+00
 HarFok:  IExCor=  205 AccDes= 0.00D+00 IRadAn=         1 IDoV= 1
 ScaDFX=  1.000000  1.000000  1.000000  1.000000
 FoFCou: FMM=F IPFlag=           0 FMFlag=      100000 FMFlg1=           0
         NFxFlg=           0 DoJE=T BraDBF=F KetDBF=T FulRan=T
         Omega=  0.000000  0.000000  1.000000  0.000000  0.000000 ICntrl=     500 IOpCl=  0
         NMat0=    1 NMatS0=    1 NMatT0=    0 NMatD0=    1 NMtDS0=    0 NMtDT0=    0
         I1Cent=           4 NGrid=           0.
 Symmetry not used in FoFCou.
 Requested convergence on RMS density matrix=1.00D-08 within 128 cycles.
 Requested convergence on MAX density matrix=1.00D-06.
 Requested convergence on             energy=1.00D-06.
 No special actions if energy rises.
 Integral accuracy reduced to 1.0D-05 until final iterations.
 Initial convergence to 1.0D-05 achieved.  Increase integral accuracy.
 SCF Done:  E(RHF) =  -1154.67089533     A.U. after   15 cycles
             Convg  =    0.7914D-08             -V/T =  2.0018

 **********************************************************************

            Population analysis using the SCF density.

 **********************************************************************

 Alpha  occ. eigenvalues --  -91.90923 -26.37280 -26.36368 -26.36262 -26.33795
 Alpha  occ. eigenvalues --  -20.56694 -15.69301 -11.54629 -11.38282 -11.37667
 Alpha  occ. eigenvalues --  -11.36671 -11.31635 -11.30896  -8.92004  -6.60328
 Alpha  occ. eigenvalues --   -6.60055  -6.59926  -1.74509  -1.65521  -1.65034
 Alpha  occ. eigenvalues --   -1.64809  -1.36157  -1.34838  -1.17642  -1.12567
 Alpha  occ. eigenvalues --   -1.03437  -0.97651  -0.93048  -0.88721  -0.85288
 Alpha  occ. eigenvalues --   -0.84123  -0.83742  -0.77458  -0.76312  -0.74281
 Alpha  occ. eigenvalues --   -0.72675  -0.72020  -0.71660  -0.71331  -0.70693
 Alpha  occ. eigenvalues --   -0.67942  -0.67904  -0.66499  -0.64391  -0.63181
 Alpha  occ. eigenvalues --   -0.61230  -0.59782  -0.57675  -0.52976  -0.50415
 Alpha  occ. eigenvalues --   -0.47110  -0.43790  -0.34500  -0.31398
 Alpha virt. eigenvalues --    0.03969   0.08165   0.16662   0.19976   0.24136
 Alpha virt. eigenvalues --    0.24742   0.26048   0.26111   0.28536   0.29796
 Alpha virt. eigenvalues --    0.33525   0.35426   0.38970   0.40223   0.42083
 Alpha virt. eigenvalues --    0.42607   0.46592   0.49288   0.53729   0.55310
 Alpha virt. eigenvalues --    0.56892   0.59576   0.60845   0.64133   0.66650
 Alpha virt. eigenvalues --    0.67685   0.71391   0.72828   0.73160   0.75171
 Alpha virt. eigenvalues --    0.77067   0.77701   0.82482   0.83982   0.87099
 Alpha virt. eigenvalues --    0.88675   0.89528   0.91687   0.95235   0.98903
 Alpha virt. eigenvalues --    1.01708   1.02141   1.02760   1.04260   1.07064
 Alpha virt. eigenvalues --    1.08784   1.09353   1.13076   1.13234   1.14667
 Alpha virt. eigenvalues --    1.15566   1.16225   1.16723   1.18058   1.23982
 Alpha virt. eigenvalues --    1.27918   1.30838   1.31325   1.32919   1.33633
 Alpha virt. eigenvalues --    1.34552   1.38640   1.39107   1.41630   1.41916
 Alpha virt. eigenvalues --    1.45058   1.46426   1.47876   1.51676   1.60215
 Alpha virt. eigenvalues --    1.60279   1.61344   1.63315   1.63875   1.63998
 Alpha virt. eigenvalues --    1.65171   1.66057   1.67076   1.69254   1.69705
 Alpha virt. eigenvalues --    1.71735   1.75707   1.76035   1.81129   1.86881
 Alpha virt. eigenvalues --    1.89390   1.92066   1.94720   1.99822   2.01448
 Alpha virt. eigenvalues --    2.02797   2.03885   2.05692   2.06183   2.09026
 Alpha virt. eigenvalues --    2.09711   2.11991   2.12304   2.17609   2.19824
 Alpha virt. eigenvalues --    2.22131   2.22204   2.24176   2.28098   2.29441
 Alpha virt. eigenvalues --    2.30148   2.32213   2.33223   2.34493   2.35646
 Alpha virt. eigenvalues --    2.37553   2.39037   2.43098   2.44716   2.45115
 Alpha virt. eigenvalues --    2.46727   2.51732   2.60408   2.61387   2.61980
 Alpha virt. eigenvalues --    2.64992   2.67954   2.74774   2.82297   2.84067
 Alpha virt. eigenvalues --    2.84113   2.91495   2.92536   2.92797   2.94185
 Alpha virt. eigenvalues --    2.99911   3.06958   3.09256   3.16892   3.21663
 Alpha virt. eigenvalues --    3.29132   3.37035   3.38010   3.42635   3.44084
 Alpha virt. eigenvalues --    3.48916   3.70793   3.99043   4.35773   4.39646
 Alpha virt. eigenvalues --    4.44674   4.47755   4.59753   4.63772   4.68318
 Alpha virt. eigenvalues --    4.81411   5.01011   5.15084   5.57910   6.01440
          Condensed to atoms (all electrons):
              1          2          3          4          5          6
     1  F    9.156870   0.268646  -0.033681   0.002221  -0.000015   0.000000
     2  C    0.268646   4.578269   0.569103  -0.026056   0.000858  -0.000019
     3  C   -0.033681   0.569103   5.071097   0.352779  -0.012133   0.002189
     4  C    0.002221  -0.026056   0.352779   5.209406   0.415268  -0.045679
     5  C   -0.000015   0.000858  -0.012133   0.415268   3.548762   0.289388
     6  F    0.000000  -0.000019   0.002189  -0.045679   0.289388   9.188153
     7  F    0.000000   0.000293   0.004985  -0.055015   0.285329  -0.030799
     8  F    0.000000   0.000291   0.005012  -0.055205   0.284449  -0.030782
     9  C    0.000129  -0.023429  -0.055352   0.591498  -0.021112   0.005589
    10  N    0.001389  -0.054884  -0.020473  -0.037689   0.001190   0.000242
    11  C   -0.040769   0.373394  -0.079340  -0.001222   0.000074   0.000002
    12  S    0.003545  -0.083528   0.001539  -0.000071   0.000006   0.000000
    13  H   -0.000281  -0.017176   0.368562  -0.030057  -0.000300   0.000035
    14  H    0.000000  -0.000116   0.001801  -0.022416  -0.000115   0.005054
    15  H   -0.000018   0.003914  -0.000594   0.002358  -0.000014   0.000001
    16  H    0.000000  -0.000031   0.000033  -0.000110  -0.000004   0.000000
    17  O    0.000000  -0.000019   0.000011  -0.000023   0.000000   0.000000
    18  H    0.000000  -0.000001   0.000000   0.000013   0.000000   0.000000
              7          8          9         10         11         12
     1  F    0.000000   0.000000   0.000129   0.001389  -0.040769   0.003545
     2  C    0.000293   0.000291  -0.023429  -0.054884   0.373394  -0.083528
     3  C    0.004985   0.005012  -0.055352  -0.020473  -0.079340   0.001539
     4  C   -0.055015  -0.055205   0.591498  -0.037689  -0.001222  -0.000071
     5  C    0.285329   0.284449  -0.021112   0.001190   0.000074   0.000006
     6  F   -0.030799  -0.030782   0.005589   0.000242   0.000002   0.000000
     7  F    9.199533  -0.033971   0.000534  -0.000006  -0.000002   0.000000
     8  F   -0.033971   9.202353   0.000507  -0.000005  -0.000002   0.000000
     9  C    0.000534   0.000507   4.756272   0.260430  -0.038050   0.003360
    10  N   -0.000006  -0.000005   0.260430   7.254200   0.205980  -0.105468
    11  C   -0.000002  -0.000002  -0.038050   0.205980   4.972412   0.450993
    12  S    0.000000   0.000000   0.003360  -0.105468   0.450993  15.930917
    13  H    0.000903   0.000902   0.002442  -0.000260   0.002620  -0.000053
    14  H    0.000085   0.000084   0.380195  -0.032199   0.000937  -0.000131
    15  H    0.000000   0.000000  -0.021654   0.309360  -0.017762   0.013916
    16  H    0.000000   0.000000   0.000538   0.001284   0.000378  -0.000013
    17  O    0.000000   0.000000   0.000041  -0.000132   0.000028   0.000030
    18  H    0.000000   0.000000   0.000029  -0.000012  -0.000003   0.000002
             13         14         15         16         17         18
     1  F   -0.000281   0.000000  -0.000018   0.000000   0.000000   0.000000
     2  C   -0.017176  -0.000116   0.003914  -0.000031  -0.000019  -0.000001
     3  C    0.368562   0.001801  -0.000594   0.000033   0.000011   0.000000
     4  C   -0.030057  -0.022416   0.002358  -0.000110  -0.000023   0.000013
     5  C   -0.000300  -0.000115  -0.000014  -0.000004   0.000000   0.000000
     6  F    0.000035   0.005054   0.000001   0.000000   0.000000   0.000000
     7  F    0.000903   0.000085   0.000000   0.000000   0.000000   0.000000
     8  F    0.000902   0.000084   0.000000   0.000000   0.000000   0.000000
     9  C    0.002442   0.380195  -0.021654   0.000538   0.000041   0.000029
    10  N   -0.000260  -0.032199   0.309360   0.001284  -0.000132  -0.000012
    11  C    0.002620   0.000937  -0.017762   0.000378   0.000028  -0.000003
    12  S   -0.000053  -0.000131   0.013916  -0.000013   0.000030   0.000002
    13  H    0.389995  -0.000061   0.000008   0.000001   0.000000   0.000000
    14  H   -0.000061   0.379744  -0.002118   0.000019   0.000003   0.000000
    15  H    0.000008  -0.002118   0.269363   0.000007   0.000000   0.000000
    16  H    0.000001   0.000019   0.000007   0.325985   0.263419  -0.018820
    17  O    0.000000   0.000003   0.000000   0.263419   8.332882   0.264847
    18  H    0.000000   0.000000   0.000000  -0.018820   0.264847   0.322140
 Mulliken atomic charges:
              1
     1  F   -0.358037
     2  C    0.410492
     3  C   -0.175537
     4  C   -0.300002
     5  C    1.208369
     6  F   -0.383375
     7  F   -0.371869
     8  F   -0.373631
     9  C    0.158033
    10  N   -0.782947
    11  C    0.170331
    12  S   -0.215043
    13  H    0.282719
    14  H    0.289233
    15  H    0.443232
    16  H    0.427313
    17  O   -0.861087
    18  H    0.431805
 Sum of Mulliken atomic charges =   0.00000
 Mulliken charges with hydrogens summed into heavy atoms:
              1
     1  F   -0.358037
     2  C    0.410492
     3  C    0.107182
     4  C   -0.300002
     5  C    1.208369
     6  F   -0.383375
     7  F   -0.371869
     8  F   -0.373631
     9  C    0.447265
    10  N   -0.339715
    11  C    0.170331
    12  S   -0.215043
    17  O   -0.001968
 Sum of Mulliken charges with hydrogens summed into heavy atoms =   0.00000
 Electronic spatial extent (au):  <R**2>=           3379.7587
 Charge=              0.0000 electrons
 Dipole moment (field-independent basis, Debye):
    X=              5.0866    Y=             -2.4402    Z=             -1.4667  Tot=              5.8292
 Quadrupole moment (field-independent basis, Debye-Ang):
   XX=           -106.5125   YY=            -72.1068   ZZ=            -91.2851
   XY=             -0.4071   XZ=              9.4088   YZ=              2.2878
 Traceless Quadrupole moment (field-independent basis, Debye-Ang):
   XX=            -16.5444   YY=             17.8613   ZZ=             -1.3170
   XY=             -0.4071   XZ=              9.4088   YZ=              2.2878
 Octapole moment (field-independent basis, Debye-Ang**2):
  XXX=            121.2275  YYY=             22.4966  ZZZ=           -131.8363  XYY=             32.8140
  XXY=             15.7119  XXZ=            -38.9024  XZZ=             69.7381  YZZ=             28.1960
  YYZ=            -33.9434  XYZ=            -13.1339
 Hexadecapole moment (field-independent basis, Debye-Ang**3):
 XXXX=          -2702.4973 YYYY=           -536.0369 ZZZZ=          -1061.3205 XXXY=            -69.1129
 XXXZ=             94.4123 YYYX=            -37.6753 YYYZ=            131.8522 ZZZX=            301.5054
 ZZZY=            189.5226 XXYY=           -536.8674 XXZZ=           -621.3864 YYZZ=           -274.6330
 XXYZ=             53.6820 YYXZ=             48.4891 ZZXY=            -90.1457
 N-N= 9.152060004447D+02 E-N=-4.567806528022D+03  KE= 1.152553305048D+03
 Calling FoFJK, ICntrl=      2127 FMM=F ISym2X=0 I1Cent= 0 IOpClX= 0 NMat=1 NMatS=1 NMatT=0.
 -------------------------------------------------------------------
 Center     Atomic                   Forces (Hartrees/Bohr)
 Number     Number              X              Y              Z
 -------------------------------------------------------------------
      1        9           0.000000000    0.000000000    0.000000000
      2        6           0.000000000    0.000000000    0.000000000
      3        6           0.000000000    0.000000000    0.000000000
      4        6           0.000000000    0.000000000    0.000000000
      5        6           0.000000000    0.000000000    0.000000000
      6        9           0.000000000    0.000000000    0.000000000
      7        9           0.000000000    0.000000000    0.000000000
      8        9           0.000000000    0.000000000    0.000000000
      9        6           0.000000000    0.000000000    0.000000000
     10        7           0.000000000    0.000000000    0.000000000
     11        6           0.000000000    0.000000000    0.000000000
     12       16           0.000000000    0.000000000    0.000000000
     13        1           0.000000000    0.000000000    0.000000000
     14        1           0.000000000    0.000000000    0.000000000
     15        1           0.000000000    0.000000000    0.000000000
     16        1          -0.002357824    0.000646761    0.011275938
     17        8           0.012683763   -0.000449766   -0.009875590
     18        1          -0.010403029   -0.000029432   -0.000834040
 -------------------------------------------------------------------
 Cartesian Forces:  Max     0.012683763 RMS     0.003044884
 -----------------------------------------------------------------------------------------------
                       Internal Coordinate Forces (Hartree/Bohr or radian)
  Cent   Atom   N1       Length/X         N2         Alpha/Y        N3         Beta/Z          J
 -----------------------------------------------------------------------------------------------
      1  F 
      2  C 
      3  C 
      4  C 
      5  C 
      6  F 
      7  F 
      8  F 
      9  C 
     10  N 
     11  C 
     12  S 
     13  H 
     14  H 
     15  H 
     16  H       10   0.000566(     1)      9  -0.000398(     6)     11   0.000194(    11)     0
         X       16   0.000000(     2)     10   0.000838(     7)      9   0.000597(    12)     0
         X       17   0.000000(     3)     16   0.000000(     8)     10  -0.000859(    13)     0
     17  O       16  -0.010710(     4)     17   0.000838(     9)     18   0.000859(    14)     0
     18  H       19  -0.010275(     5)     16   0.003255(    10)     17   0.000597(    15)     0
 -----------------------------------------------------------------------------------------------
 Internal  Forces:  Max     0.010709561 RMS     0.003957804

 GradGradGradGradGradGradGradGradGradGradGradGradGradGradGradGradGradGrad
 Berny optimization.
 Search for a local minimum.
 Step number   1 out of a maximum of   21
 All quantities printed in internal units (Hartrees-Bohrs-Radians)
 Second derivative matrix not updated -- first step.
 The second derivative matrix:
                          RX       RDUM       ROH       AH1      ADUM
           RX           0.00874
           RDUM         0.00000   0.00000
           ROH          0.00000   0.00000   1.12160
           AH1          0.00000   0.00000   0.00000   0.28008
           ADUM         0.00000   0.00000   0.00000   0.00000   0.25000
           AOH2         0.00000   0.00000   0.00000   0.00000   0.25000
           AHOH         0.00000   0.00000   0.00000   0.00000   0.00000
           DH1          0.00000   0.00000   0.00000  -0.00927   0.00000
           DDUM         0.00000   0.00000   0.00000   0.00000   0.00000
           DOH2         0.00000   0.00000   0.00000   0.00000   0.00000
           DH2          0.00000   0.00000   0.00000   0.00000   0.00000
                         AOH2      AHOH       DH1      DDUM      DOH2
           AOH2         0.25000
           AHOH         0.00000   0.16000
           DH1          0.00000   0.00000   0.28159
           DDUM         0.00000   0.00000   0.00000   0.25000
           DOH2         0.00000   0.00000   0.00000  -0.25000   0.25000
           DH2          0.00000   0.00000   0.00000   0.00000   0.00000
                          DH2
           DH2          0.00000
     Eigenvalues ---    0.008741000.000001000.000001000.000001000.00000
     Eigenvalues --- 1000.000001000.000001000.000001000.000001000.00000
     Eigenvalues --- 1000.00000
 RFO step:  Lambda=-3.65523374D-05 EMin= 8.73688697D-03
 Linear search not attempted -- first point.
 Variable       Old X    -DE/DX   Delta X   Delta X   Delta X     New X
                                 (Linear)    (Quad)   (Total)
    RX        6.18507   0.00057   0.00000   0.06455   0.06455   6.24962
   RDUM       1.88973   0.00000   0.00000   0.00000   0.00000   1.88973
   ROH        1.80885  -0.02098   0.00000   0.00000   0.00000   1.80885
   AH1        1.57080  -0.00040   0.00000   0.00000   0.00000   1.57080
   ADUM       1.57080   0.00084   0.00000   0.00000   0.00000   1.57080
   AOH2       1.57080   0.00084   0.00000   0.00000   0.00000   1.57080
   AHOH       1.82422   0.00325   0.00000   0.00000   0.00000   1.82422
   DH1       -1.57080   0.00019   0.00000   0.00000   0.00000  -1.57080
   DDUM       3.14159  -0.00026   0.00000   0.00000   0.00000   3.14159
   DOH2       0.00000   0.00086   0.00000   0.00000   0.00000   0.00000
   DH2        3.14159   0.00060   0.00000   0.00000   0.00000   3.14159
         Item               Value     Threshold  Converged?
 Maximum Force            0.000566     0.000450     NO 
 RMS     Force            0.000566     0.000300     NO 
 Maximum Displacement     0.064547     0.001800     NO 
 RMS     Displacement     0.019462     0.001200     NO 
 Predicted change in Energy=-1.835263D-05
 GradGradGradGradGradGradGradGradGradGradGradGradGradGradGradGradGradGrad

 ---------------------------------------------------------------------------------------------------
                            Z-MATRIX (ANGSTROMS AND DEGREES)
   CD    Cent   Atom    N1       Length/X        N2       Alpha/Y        N3        Beta/Z          J
 ---------------------------------------------------------------------------------------------------
      1      1  F       -1  -1.969300          2.053680          0.000070
      2      2  C       -1  -1.222250          0.944230          0.000030
      3      3  C       -1   0.140030          1.057400         -0.000020
      4      4  C       -1   0.927950         -0.123640         -0.000080
      5      5  C       -1   2.414660         -0.018650         -0.000010
      6      6  F       -1   3.007080         -1.234610         -0.000560
      7      7  F       -1   2.858290          0.654480         -1.086020
      8      8  F       -1   2.858270          0.653500          1.086650
      9      9  C       -1   0.306540         -1.341490         -0.000090
     10     10  N       -1  -1.054170         -1.389970         -0.000060
     11     11  C       -1  -1.930500         -0.312100          0.000000
     12     12  S       -1  -3.570980         -0.506610          0.000030
     13     13  H       -1   0.596860          2.043100         -0.000020
     14     14  H       -1   0.831760         -2.288990         -0.000150
     15     15  H       -1  -1.521480         -2.296390         -0.000090
     16     16  H       10   3.307157(    15)      9   90.000(    33)     11  -90.000(    50)      0
     17         X       16   1.000000(    16)     10   90.000(    34)      9  180.000(    51)      0
     18         X       17   1.000000(    17)     16   90.000(    35)     10  180.000(    52)      0
     19     17  O       16   0.957200(    18)     17   90.000(    36)     18    0.000(    53)      0
     20     18  H       19   0.957200(    19)     16  104.520(    37)     17  180.000(    54)      0
 ---------------------------------------------------------------------------------------------------
                         Z-Matrix orientation:                         
 ---------------------------------------------------------------------
 Center     Atomic      Atomic             Coordinates (Angstroms)
 Number     Number       Type             X           Y           Z
 ---------------------------------------------------------------------
      1          9           0       -1.969300    2.053680    0.000070
      2          6           0       -1.222250    0.944230    0.000030
      3          6           0        0.140030    1.057400   -0.000020
      4          6           0        0.927950   -0.123640   -0.000080
      5          6           0        2.414660   -0.018650   -0.000010
      6          9           0        3.007080   -1.234610   -0.000560
      7          9           0        2.858290    0.654480   -1.086020
      8          9           0        2.858270    0.653500    1.086650
      9          6           0        0.306540   -1.341490   -0.000090
     10          7           0       -1.054170   -1.389970   -0.000060
     11          6           0       -1.930500   -0.312100    0.000000
     12         16           0       -3.570980   -0.506610    0.000030
     13          1           0        0.596860    2.043100   -0.000020
     14          1           0        0.831760   -2.288990   -0.000150
     15          1           0       -1.521480   -2.296390   -0.000090
     16          1           0       -1.054099   -1.390105    3.307097
     17         -1           0       -2.053465   -1.425711    3.307117
     18         -1           0       -2.053444   -1.425752    4.307117
     19          8           0       -1.054079   -1.390145    4.264297
     20          1           0       -0.128034   -1.357161    4.504266
 ---------------------------------------------------------------------
                    Distance matrix (angstroms):
                    1          2          3          4          5
     1  F    0.000000
     2  C    1.337521   0.000000
     3  C    2.332777   1.366973   0.000000
     4  C    3.624194   2.400772   1.419744   0.000000
     5  C    4.849088   3.762214   2.516312   1.490413   0.000000
     6  F    5.964663   4.757581   3.670597   2.357337   1.352598
     7  F    5.142274   4.232525   2.954772   2.347541   1.352527
     8  F    5.142625   4.232719   2.955134   2.347566   1.352555
     9  C    4.087374   2.749857   2.404662   1.367227   2.488790
    10  N    3.563171   2.340244   2.723184   2.352104   3.730054
    11  C    2.366098   1.442215   2.482463   2.864656   4.355058
    12  S    3.020011   2.760701   4.027123   4.515201   6.005497
    13  H    2.566182   2.125247   1.086415   2.191890   2.748674
    14  H    5.167661   3.830492   3.417136   2.167485   2.767673
    15  H    4.373060   3.254406   3.742796   3.274225   4.547669
    16  H    4.861448   4.051430   4.284069   4.058309   4.984991
    17  X    4.801021   4.152633   4.681284   4.639157   5.734200
    18  X    5.537525   4.985849   5.434041   5.397791   6.363586
    19  O    5.557085   4.864315   5.059720   4.870049   5.665462
    20  H    5.942380   5.175118   5.117671   4.788090   5.342790
                    6          7          8          9         10
     6  F    0.000000
     7  F    2.183809   0.000000
     8  F    2.183834   2.172670   0.000000
     9  C    2.702654   3.416807   3.416477   0.000000
    10  N    4.064221   4.546034   4.545756   1.361573   0.000000
    11  C    5.023019   5.004620   5.004549   2.462517   1.389157
    12  S    6.618222   6.622926   6.622828   3.966382   2.667332
    13  H    4.068482   2.867355   2.868068   3.397019   3.809445
    14  H    2.417382   3.734964   3.734451   1.083334   2.089251
    15  H    4.651369   5.391592   5.391203   2.062399   1.019792
    16  H    5.240033   6.227888   4.940986   3.576477   3.307157
    17  X    6.048666   6.910296   5.777433   4.063783   3.455038
    18  X    6.648422   7.585408   6.230540   4.912093   4.421719
    19  O    5.891197   6.936354   5.438786   4.476455   4.264357
    20  H    5.489755   6.649520   4.963957   4.525298   4.598669
                   11         12         13         14         15
    11  C    0.000000
    12  S    1.651971   0.000000
    13  H    3.454637   4.885889   0.000000
    14  H    3.396789   4.749842   4.338454   0.000000
    15  H    2.026007   2.720986   4.828927   2.353252   0.000000
    16  H    3.587069   4.248758   5.044758   3.911821   3.460821
    17  X    3.491743   3.752922   5.476680   4.473007   3.461027
    18  X    4.450460   4.658190   6.132575   5.255676   4.426401
    19  O    4.484922   5.029851   5.718143   4.748665   4.384603
    20  H    4.962806   5.732840   5.689977   4.698858   4.807605
                   16         17         18         19         20
    16  H    0.000000
    17  X    1.000000   0.000000
    18  X    1.414214   1.000000   0.000000
    19  O    0.957200   1.384280   1.000916   0.000000
    20  H    1.513901   2.268292   1.936692   0.957200   0.000000
 Symmetry turned off by external request.
 Stoichiometry    C6H5F4NOS
 Framework group  C1[X(C6H5F4NOS)]
 Deg. of freedom    48
 Full point group                 C1      NOp   1
 Rotational constants (GHZ):      0.8589820      0.3765219      0.3258792
 Standard basis: 6-31G(d) (6D, 7F)
 Integral buffers will be    131072 words long.
 Raffenetti 1 integral format.
 Two-electron integral symmetry is turned off.
   209 basis functions,   408 primitive gaussians,   209 cartesian basis functions
    54 alpha electrons       54 beta electrons
       nuclear repulsion energy       914.6226277593 Hartrees.
 NAtoms=   18 NActive=   18 NUniq=   18 SFac= 7.50D-01 NAtFMM=   80 NAOKFM=F Big=F
 One-electron integrals computed using PRISM.
 NBasis=   209 RedAO= T  NBF=   209
 NBsUse=   209 1.00D-06 NBFU=   209
 Initial guess read from the read-write file.
 B after Tr=     0.000000    0.000000    0.000000
         Rot=    1.000000    0.000000    0.000000    0.000000 Ang=   0.00 deg.
 Harris functional with IExCor=  205 diagonalized for initial guess.
 ExpMin= 1.17D-01 ExpMax= 2.19D+04 ExpMxC= 3.30D+03 IAcc=1 IRadAn=         1 AccDes= 0.00D+00
 HarFok:  IExCor=  205 AccDes= 0.00D+00 IRadAn=         1 IDoV= 1
 ScaDFX=  1.000000  1.000000  1.000000  1.000000
 FoFCou: FMM=F IPFlag=           0 FMFlag=      100000 FMFlg1=           0
         NFxFlg=           0 DoJE=T BraDBF=F KetDBF=T FulRan=T
         Omega=  0.000000  0.000000  1.000000  0.000000  0.000000 ICntrl=     500 IOpCl=  0
         NMat0=    1 NMatS0=    1 NMatT0=    0 NMatD0=    1 NMtDS0=    0 NMtDT0=    0
         I1Cent=           4 NGrid=           0.
 Symmetry not used in FoFCou.
 Requested convergence on RMS density matrix=1.00D-08 within 128 cycles.
 Requested convergence on MAX density matrix=1.00D-06.
 Requested convergence on             energy=1.00D-06.
 No special actions if energy rises.
 Integral accuracy reduced to 1.0D-05 until final iterations.
 Initial convergence to 1.0D-05 achieved.  Increase integral accuracy.
 SCF Done:  E(RHF) =  -1154.67093120     A.U. after    9 cycles
             Convg  =    0.4705D-08             -V/T =  2.0018
 Calling FoFJK, ICntrl=      2127 FMM=F ISym2X=0 I1Cent= 0 IOpClX= 0 NMat=1 NMatS=1 NMatT=0.
 -------------------------------------------------------------------
 Center     Atomic                   Forces (Hartrees/Bohr)
 Number     Number              X              Y              Z
 -------------------------------------------------------------------
      1        9           0.000000000    0.000000000    0.000000000
      2        6           0.000000000    0.000000000    0.000000000
      3        6           0.000000000    0.000000000    0.000000000
      4        6           0.000000000    0.000000000    0.000000000
      5        6           0.000000000    0.000000000    0.000000000
      6        9           0.000000000    0.000000000    0.000000000
      7        9           0.000000000    0.000000000    0.000000000
      8        9           0.000000000    0.000000000    0.000000000
      9        6           0.000000000    0.000000000    0.000000000
     10        7           0.000000000    0.000000000    0.000000000
     11        6           0.000000000    0.000000000    0.000000000
     12       16           0.000000000    0.000000000    0.000000000
     13        1           0.000000000    0.000000000    0.000000000
     14        1           0.000000000    0.000000000    0.000000000
     15        1           0.000000000    0.000000000    0.000000000
     16        1          -0.002339315    0.000641118    0.011245224
     17        8           0.012665373   -0.000439420   -0.009855869
     18        1          -0.010404989   -0.000034979   -0.000844032
 -------------------------------------------------------------------
 Cartesian Forces:  Max     0.012665373 RMS     0.003040038
 -----------------------------------------------------------------------------------------------
                       Internal Coordinate Forces (Hartree/Bohr or radian)
  Cent   Atom   N1       Length/X         N2         Alpha/Y        N3         Beta/Z          J
 -----------------------------------------------------------------------------------------------
      1  F 
      2  C 
      3  C 
      4  C 
      5  C 
      6  F 
      7  F 
      8  F 
      9  C 
     10  N 
     11  C 
     12  S 
     13  H 
     14  H 
     15  H 
     16  H       10   0.000545(     1)      9  -0.000362(     6)     11   0.000207(    11)     0
         X       16   0.000000(     2)     10   0.000818(     7)      9   0.000587(    12)     0
         X       17   0.000000(     3)     16   0.000000(     8)     10  -0.000852(    13)     0
     17  O       16  -0.010700(     4)     17   0.000818(     9)     18   0.000852(    14)     0
     18  H       19  -0.010279(     5)     16   0.003238(    10)     17   0.000587(    15)     0
 -----------------------------------------------------------------------------------------------
 Internal  Forces:  Max     0.010699833 RMS     0.003954594

 GradGradGradGradGradGradGradGradGradGradGradGradGradGradGradGradGradGrad
 Berny optimization.
 Search for a local minimum.
 Step number   2 out of a maximum of   21
 All quantities printed in internal units (Hartrees-Bohrs-Radians)
 Update second derivatives using D2CorN and points    1    2
 DE= -3.59D-05 DEPred=-1.84D-05 R= 1.95D+00
 SS=  1.41D+00  RLast= 6.45D-02 DXNew= 5.0454D-01 1.9364D-01
 Trust test= 1.95D+00 RLast= 6.45D-02 DXMaxT set to 3.00D-01
 The second derivative matrix:
                          RX       RDUM       ROH       AH1      ADUM
           RX           0.00033
           RDUM         0.00000   0.00000
           ROH         -0.00004   0.00000   1.12160
           AH1         -0.00028   0.00000   0.00000   0.28008
           ADUM         0.00015   0.00000   0.00000   0.00000   0.25000
           AOH2         0.00015   0.00000   0.00000   0.00000   0.25000
           AHOH         0.00013   0.00000   0.00000   0.00000   0.00000
           DH1         -0.00011   0.00000   0.00000  -0.00927   0.00000
           DDUM         0.00002   0.00000   0.00000   0.00000   0.00000
           DOH2         0.00006   0.00000   0.00000   0.00000   0.00000
           DH2          0.00007   0.00000   0.00000   0.00000   0.00000
                         AOH2      AHOH       DH1      DDUM      DOH2
           AOH2         0.25000
           AHOH         0.00000   0.16000
           DH1          0.00000   0.00000   0.28159
           DDUM         0.00000   0.00000   0.00000   0.25000
           DOH2         0.00000   0.00000   0.00000  -0.25000   0.25000
           DH2          0.00000   0.00000   0.00000   0.00000   0.00000
                          DH2
           DH2          0.00000
     Eigenvalues ---    0.000331000.000001000.000001000.000001000.00000
     Eigenvalues --- 1000.000001000.000001000.000001000.000001000.00000
     Eigenvalues --- 1000.00000
 RFO step:  Lambda= 0.00000000D+00 EMin= 3.25119984D-04
 Quartic linear search produced a step of  2.00000.
 Variable       Old X    -DE/DX   Delta X   Delta X   Delta X     New X
                                 (Linear)    (Quad)   (Total)
    RX        6.24962   0.00055   0.12909   0.00000   0.12909   6.37871
   RDUM       1.88973   0.00000   0.00000   0.00000   0.00000   1.88973
   ROH        1.80885  -0.02098   0.00000   0.00000   0.00000   1.80885
   AH1        1.57080  -0.00036   0.00000   0.00000   0.00000   1.57080
   ADUM       1.57080   0.00082   0.00000   0.00000   0.00000   1.57080
   AOH2       1.57080   0.00082   0.00000   0.00000   0.00000   1.57080
   AHOH       1.82422   0.00324   0.00000   0.00000   0.00000   1.82422
   DH1       -1.57080   0.00021   0.00000   0.00000   0.00000  -1.57080
   DDUM       3.14159  -0.00026   0.00000   0.00000   0.00000   3.14159
   DOH2       0.00000   0.00085   0.00000   0.00000   0.00000   0.00000
   DH2        3.14159   0.00059   0.00000   0.00000   0.00000   3.14159
         Item               Value     Threshold  Converged?
 Maximum Force            0.000545     0.000450     NO 
 RMS     Force            0.000545     0.000300     NO 
 Maximum Displacement     0.129094     0.001800     NO 
 RMS     Displacement     0.038923     0.001200     NO 
 Predicted change in Energy=-6.768774D-05
 GradGradGradGradGradGradGradGradGradGradGradGradGradGradGradGradGradGrad

 ---------------------------------------------------------------------------------------------------
                            Z-MATRIX (ANGSTROMS AND DEGREES)
   CD    Cent   Atom    N1       Length/X        N2       Alpha/Y        N3        Beta/Z          J
 ---------------------------------------------------------------------------------------------------
      1      1  F       -1  -1.969300          2.053680          0.000070
      2      2  C       -1  -1.222250          0.944230          0.000030
      3      3  C       -1   0.140030          1.057400         -0.000020
      4      4  C       -1   0.927950         -0.123640         -0.000080
      5      5  C       -1   2.414660         -0.018650         -0.000010
      6      6  F       -1   3.007080         -1.234610         -0.000560
      7      7  F       -1   2.858290          0.654480         -1.086020
      8      8  F       -1   2.858270          0.653500          1.086650
      9      9  C       -1   0.306540         -1.341490         -0.000090
     10     10  N       -1  -1.054170         -1.389970         -0.000060
     11     11  C       -1  -1.930500         -0.312100          0.000000
     12     12  S       -1  -3.570980         -0.506610          0.000030
     13     13  H       -1   0.596860          2.043100         -0.000020
     14     14  H       -1   0.831760         -2.288990         -0.000150
     15     15  H       -1  -1.521480         -2.296390         -0.000090
     16     16  H       10   3.375470(    15)      9   90.000(    33)     11  -90.000(    50)      0
     17         X       16   1.000000(    16)     10   90.000(    34)      9  180.000(    51)      0
     18         X       17   1.000000(    17)     16   90.000(    35)     10  180.000(    52)      0
     19     17  O       16   0.957200(    18)     17   90.000(    36)     18    0.000(    53)      0
     20     18  H       19   0.957200(    19)     16  104.520(    37)     17  180.000(    54)      0
 ---------------------------------------------------------------------------------------------------
                         Z-Matrix orientation:                         
 ---------------------------------------------------------------------
 Center     Atomic      Atomic             Coordinates (Angstroms)
 Number     Number       Type             X           Y           Z
 ---------------------------------------------------------------------
      1          9           0       -1.969300    2.053680    0.000070
      2          6           0       -1.222250    0.944230    0.000030
      3          6           0        0.140030    1.057400   -0.000020
      4          6           0        0.927950   -0.123640   -0.000080
      5          6           0        2.414660   -0.018650   -0.000010
      6          9           0        3.007080   -1.234610   -0.000560
      7          9           0        2.858290    0.654480   -1.086020
      8          9           0        2.858270    0.653500    1.086650
      9          6           0        0.306540   -1.341490   -0.000090
     10          7           0       -1.054170   -1.389970   -0.000060
     11          6           0       -1.930500   -0.312100    0.000000
     12         16           0       -3.570980   -0.506610    0.000030
     13          1           0        0.596860    2.043100   -0.000020
     14          1           0        0.831760   -2.288990   -0.000150
     15          1           0       -1.521480   -2.296390   -0.000090
     16          1           0       -1.054098   -1.390108    3.375410
     17         -1           0       -2.053464   -1.425714    3.375430
     18         -1           0       -2.053442   -1.425755    4.375430
     19          8           0       -1.054077   -1.390147    4.332610
     20          1           0       -0.128032   -1.357164    4.572579
 ---------------------------------------------------------------------
                    Distance matrix (angstroms):
                    1          2          3          4          5
     1  F    0.000000
     2  C    1.337521   0.000000
     3  C    2.332777   1.366973   0.000000
     4  C    3.624194   2.400772   1.419744   0.000000
     5  C    4.849088   3.762214   2.516312   1.490413   0.000000
     6  F    5.964663   4.757581   3.670597   2.357337   1.352598
     7  F    5.142274   4.232525   2.954772   2.347541   1.352527
     8  F    5.142625   4.232719   2.955134   2.347566   1.352555
     9  C    4.087374   2.749857   2.404662   1.367227   2.488790
    10  N    3.563171   2.340244   2.723184   2.352104   3.730054
    11  C    2.366098   1.442215   2.482463   2.864656   4.355058
    12  S    3.020011   2.760701   4.027123   4.515201   6.005497
    13  H    2.566182   2.125247   1.086415   2.191890   2.748674
    14  H    5.167661   3.830492   3.417136   2.167485   2.767673
    15  H    4.373060   3.254406   3.742796   3.274225   4.547669
    16  H    4.908176   4.107384   4.337023   4.114170   5.030571
    17  X    4.848332   4.207241   4.729792   4.688101   5.773868
    18  X    5.590825   5.044981   5.488346   5.452458   6.410020
    19  O    5.609678   4.924312   5.117428   4.929978   5.717057
    20  H    5.994328   5.234685   5.177899   4.852411   5.400507
                    6          7          8          9         10
     6  F    0.000000
     7  F    2.183809   0.000000
     8  F    2.183834   2.172670   0.000000
     9  C    2.702654   3.416807   3.416477   0.000000
    10  N    4.064221   4.546034   4.545756   1.361573   0.000000
    11  C    5.023019   5.004620   5.004549   2.462517   1.389157
    12  S    6.618222   6.622926   6.622828   3.966382   2.667332
    13  H    4.068482   2.867355   2.868068   3.397019   3.809445
    14  H    2.417382   3.734964   3.734451   1.083334   2.089251
    15  H    4.651369   5.391592   5.391203   2.062399   1.019792
    16  H    5.283419   6.276263   4.972060   3.639739   3.375470
    17  X    6.086291   6.953925   5.804031   4.119569   3.520483
    18  X    6.692885   7.634129   6.266123   4.972102   4.488289
    19  O    5.940838   6.989183   5.478979   4.541579   4.332670
    20  H    5.545949   6.707054   5.011235   4.593300   4.665601
                   11         12         13         14         15
    11  C    0.000000
    12  S    1.651971   0.000000
    13  H    3.454637   4.885889   0.000000
    14  H    3.396789   4.749842   4.338454   0.000000
    15  H    2.026007   2.720986   4.828927   2.353252   0.000000
    16  H    3.650148   4.302146   5.089805   3.969743   3.526159
    17  X    3.556513   3.813258   5.518202   4.523749   3.526361
    18  X    4.516606   4.721427   6.180746   5.311805   4.492902
    19  O    4.549925   5.087897   5.769269   4.810105   4.451071
    20  H    5.024891   5.786669   5.744208   4.764384   4.871668
                   16         17         18         19         20
    16  H    0.000000
    17  X    1.000000   0.000000
    18  X    1.414214   1.000000   0.000000
    19  O    0.957200   1.384280   1.000916   0.000000
    20  H    1.513901   2.268292   1.936692   0.957200   0.000000
 Symmetry turned off by external request.
 Stoichiometry    C6H5F4NOS
 Framework group  C1[X(C6H5F4NOS)]
 Deg. of freedom    48
 Full point group                 C1      NOp   1
 Rotational constants (GHZ):      0.8456265      0.3760430      0.3241651
 Standard basis: 6-31G(d) (6D, 7F)
 Integral buffers will be    131072 words long.
 Raffenetti 1 integral format.
 Two-electron integral symmetry is turned off.
   209 basis functions,   408 primitive gaussians,   209 cartesian basis functions
    54 alpha electrons       54 beta electrons
       nuclear repulsion energy       913.4730331645 Hartrees.
 NAtoms=   18 NActive=   18 NUniq=   18 SFac= 7.50D-01 NAtFMM=   80 NAOKFM=F Big=F
 One-electron integrals computed using PRISM.
 NBasis=   209 RedAO= T  NBF=   209
 NBsUse=   209 1.00D-06 NBFU=   209
 Initial guess read from the read-write file.
 B after Tr=     0.000000    0.000000    0.000000
         Rot=    1.000000    0.000000    0.000000    0.000000 Ang=   0.00 deg.
 Harris functional with IExCor=  205 diagonalized for initial guess.
 ExpMin= 1.17D-01 ExpMax= 2.19D+04 ExpMxC= 3.30D+03 IAcc=1 IRadAn=         1 AccDes= 0.00D+00
 HarFok:  IExCor=  205 AccDes= 0.00D+00 IRadAn=         1 IDoV= 1
 ScaDFX=  1.000000  1.000000  1.000000  1.000000
 FoFCou: FMM=F IPFlag=           0 FMFlag=      100000 FMFlg1=           0
         NFxFlg=           0 DoJE=T BraDBF=F KetDBF=T FulRan=T
         Omega=  0.000000  0.000000  1.000000  0.000000  0.000000 ICntrl=     500 IOpCl=  0
         NMat0=    1 NMatS0=    1 NMatT0=    0 NMatD0=    1 NMtDS0=    0 NMtDT0=    0
         I1Cent=           4 NGrid=           0.
 Symmetry not used in FoFCou.
 Requested convergence on RMS density matrix=1.00D-08 within 128 cycles.
 Requested convergence on MAX density matrix=1.00D-06.
 Requested convergence on             energy=1.00D-06.
 No special actions if energy rises.
 Integral accuracy reduced to 1.0D-05 until final iterations.
 Initial convergence to 1.0D-05 achieved.  Increase integral accuracy.
 SCF Done:  E(RHF) =  -1154.67099907     A.U. after    9 cycles
             Convg  =    0.9040D-08             -V/T =  2.0018
 Calling FoFJK, ICntrl=      2127 FMM=F ISym2X=0 I1Cent= 0 IOpClX= 0 NMat=1 NMatS=1 NMatT=0.
 -------------------------------------------------------------------
 Center     Atomic                   Forces (Hartrees/Bohr)
 Number     Number              X              Y              Z
 -------------------------------------------------------------------
      1        9           0.000000000    0.000000000    0.000000000
      2        6           0.000000000    0.000000000    0.000000000
      3        6           0.000000000    0.000000000    0.000000000
      4        6           0.000000000    0.000000000    0.000000000
      5        6           0.000000000    0.000000000    0.000000000
      6        9           0.000000000    0.000000000    0.000000000
      7        9           0.000000000    0.000000000    0.000000000
      8        9           0.000000000    0.000000000    0.000000000
      9        6           0.000000000    0.000000000    0.000000000
     10        7           0.000000000    0.000000000    0.000000000
     11        6           0.000000000    0.000000000    0.000000000
     12       16           0.000000000    0.000000000    0.000000000
     13        1           0.000000000    0.000000000    0.000000000
     14        1           0.000000000    0.000000000    0.000000000
     15        1           0.000000000    0.000000000    0.000000000
     16        1          -0.002303374    0.000629163    0.011189599
     17        8           0.012630049   -0.000418628   -0.009819359
     18        1          -0.010408771   -0.000045648   -0.000863265
 -------------------------------------------------------------------
 Cartesian Forces:  Max     0.012630049 RMS     0.003031048
 -----------------------------------------------------------------------------------------------
                       Internal Coordinate Forces (Hartree/Bohr or radian)
  Cent   Atom   N1       Length/X         N2         Alpha/Y        N3         Beta/Z          J
 -----------------------------------------------------------------------------------------------
      1  F 
      2  C 
      3  C 
      4  C 
      5  C 
      6  F 
      7  F 
      8  F 
      9  C 
     10  N 
     11  C 
     12  S 
     13  H 
     14  H 
     15  H 
     16  H       10   0.000507(     1)      9  -0.000294(     6)     11   0.000234(    11)     0
         X       16   0.000000(     2)     10   0.000780(     7)      9   0.000569(    12)     0
         X       17   0.000000(     3)     16   0.000000(     8)     10  -0.000836(    13)     0
     17  O       16  -0.010683(     4)     17   0.000780(     9)     18   0.000836(    14)     0
     18  H       19  -0.010288(     5)     16   0.003206(    10)     17   0.000569(    15)     0
 -----------------------------------------------------------------------------------------------
 Internal  Forces:  Max     0.010682558 RMS     0.003948820

 GradGradGradGradGradGradGradGradGradGradGradGradGradGradGradGradGradGrad
 Berny optimization.
 Search for a local minimum.
 Step number   3 out of a maximum of   21
 All quantities printed in internal units (Hartrees-Bohrs-Radians)
 Update second derivatives using D2CorN and points    2    3
 DE= -6.79D-05 DEPred=-6.77D-05 R= 1.00D+00
 SS=  1.41D+00  RLast= 1.29D-01 DXNew= 5.0454D-01 3.8728D-01
 Trust test= 1.00D+00 RLast= 1.29D-01 DXMaxT set to 3.87D-01
 The second derivative matrix:
                          RX       RDUM       ROH       AH1      ADUM
           RX           0.00030
           RDUM         0.00000   0.00000
           ROH         -0.00005   0.00000   1.12160
           AH1         -0.00040   0.00000   0.00000   0.28008
           ADUM         0.00023   0.00000   0.00000   0.00000   0.25000
           AOH2         0.00023   0.00000   0.00000   0.00000   0.25000
           AHOH         0.00019   0.00000   0.00000   0.00000   0.00000
           DH1         -0.00016   0.00000   0.00000  -0.00927   0.00000
           DDUM         0.00002   0.00000   0.00000   0.00000   0.00000
           DOH2         0.00009   0.00000   0.00000   0.00000   0.00000
           DH2          0.00011   0.00000   0.00000   0.00000   0.00000
                         AOH2      AHOH       DH1      DDUM      DOH2
           AOH2         0.25000
           AHOH         0.00000   0.16000
           DH1          0.00000   0.00000   0.28159
           DDUM         0.00000   0.00000   0.00000   0.25000
           DOH2         0.00000   0.00000   0.00000  -0.25000   0.25000
           DH2          0.00000   0.00000   0.00000   0.00000   0.00000
                          DH2
           DH2          0.00000
     Eigenvalues ---    0.000301000.000001000.000001000.000001000.00000
     Eigenvalues --- 1000.000001000.000001000.000001000.000001000.00000
     Eigenvalues --- 1000.00000
 RFO step:  Lambda= 0.00000000D+00 EMin= 2.97057168D-04
 Quartic linear search produced a step of  2.00000.
 Variable       Old X    -DE/DX   Delta X   Delta X   Delta X     New X
                                 (Linear)    (Quad)   (Total)
    RX        6.37871   0.00051   0.25819   0.00000   0.25819   6.63690
   RDUM       1.88973   0.00000   0.00000   0.00000   0.00000   1.88973
   ROH        1.80885  -0.02097   0.00000   0.00000   0.00000   1.80885
   AH1        1.57080  -0.00029   0.00000   0.00000   0.00000   1.57080
   ADUM       1.57080   0.00078   0.00000   0.00000   0.00000   1.57080
   AOH2       1.57080   0.00078   0.00000   0.00000   0.00000   1.57080
   AHOH       1.82422   0.00321   0.00000   0.00000   0.00000   1.82422
   DH1       -1.57080   0.00023   0.00000   0.00000   0.00000  -1.57080
   DDUM       3.14159  -0.00027   0.00000   0.00000   0.00000   3.14159
   DOH2       0.00000   0.00084   0.00000   0.00000   0.00000   0.00000
   DH2        3.14159   0.00057   0.00000   0.00000   0.00000   3.14159
         Item               Value     Threshold  Converged?
 Maximum Force            0.000507     0.000450     NO 
 RMS     Force            0.000507     0.000300     NO 
 Maximum Displacement     0.258188     0.001800     NO 
 RMS     Displacement     0.077847     0.001200     NO 
 Predicted change in Energy=-1.209915D-04
 GradGradGradGradGradGradGradGradGradGradGradGradGradGradGradGradGradGrad

 ---------------------------------------------------------------------------------------------------
                            Z-MATRIX (ANGSTROMS AND DEGREES)
   CD    Cent   Atom    N1       Length/X        N2       Alpha/Y        N3        Beta/Z          J
 ---------------------------------------------------------------------------------------------------
      1      1  F       -1  -1.969300          2.053680          0.000070
      2      2  C       -1  -1.222250          0.944230          0.000030
      3      3  C       -1   0.140030          1.057400         -0.000020
      4      4  C       -1   0.927950         -0.123640         -0.000080
      5      5  C       -1   2.414660         -0.018650         -0.000010
      6      6  F       -1   3.007080         -1.234610         -0.000560
      7      7  F       -1   2.858290          0.654480         -1.086020
      8      8  F       -1   2.858270          0.653500          1.086650
      9      9  C       -1   0.306540         -1.341490         -0.000090
     10     10  N       -1  -1.054170         -1.389970         -0.000060
     11     11  C       -1  -1.930500         -0.312100          0.000000
     12     12  S       -1  -3.570980         -0.506610          0.000030
     13     13  H       -1   0.596860          2.043100         -0.000020
     14     14  H       -1   0.831760         -2.288990         -0.000150
     15     15  H       -1  -1.521480         -2.296390         -0.000090
     16     16  H       10   3.512098(    15)      9   90.000(    33)     11  -90.000(    50)      0
     17         X       16   1.000000(    16)     10   90.000(    34)      9  180.000(    51)      0
     18         X       17   1.000000(    17)     16   90.000(    35)     10  180.000(    52)      0
     19     17  O       16   0.957200(    18)     17   90.000(    36)     18    0.000(    53)      0
     20     18  H       19   0.957200(    19)     16  104.520(    37)     17  180.000(    54)      0
 ---------------------------------------------------------------------------------------------------
                         Z-Matrix orientation:                         
 ---------------------------------------------------------------------
 Center     Atomic      Atomic             Coordinates (Angstroms)
 Number     Number       Type             X           Y           Z
 ---------------------------------------------------------------------
      1          9           0       -1.969300    2.053680    0.000070
      2          6           0       -1.222250    0.944230    0.000030
      3          6           0        0.140030    1.057400   -0.000020
      4          6           0        0.927950   -0.123640   -0.000080
      5          6           0        2.414660   -0.018650   -0.000010
      6          9           0        3.007080   -1.234610   -0.000560
      7          9           0        2.858290    0.654480   -1.086020
      8          9           0        2.858270    0.653500    1.086650
      9          6           0        0.306540   -1.341490   -0.000090
     10          7           0       -1.054170   -1.389970   -0.000060
     11          6           0       -1.930500   -0.312100    0.000000
     12         16           0       -3.570980   -0.506610    0.000030
     13          1           0        0.596860    2.043100   -0.000020
     14          1           0        0.831760   -2.288990   -0.000150
     15          1           0       -1.521480   -2.296390   -0.000090
     16          1           0       -1.054095   -1.390114    3.512038
     17         -1           0       -2.053461   -1.425720    3.512058
     18         -1           0       -2.053439   -1.425761    4.512058
     19          8           0       -1.054074   -1.390153    4.469238
     20          1           0       -0.128030   -1.357169    4.709207
 ---------------------------------------------------------------------
                    Distance matrix (angstroms):
                    1          2          3          4          5
     1  F    0.000000
     2  C    1.337521   0.000000
     3  C    2.332777   1.366973   0.000000
     4  C    3.624194   2.400772   1.419744   0.000000
     5  C    4.849088   3.762214   2.516312   1.490413   0.000000
     6  F    5.964663   4.757581   3.670597   2.357337   1.352598
     7  F    5.142274   4.232525   2.954772   2.347541   1.352527
     8  F    5.142625   4.232719   2.955134   2.347566   1.352555
     9  C    4.087374   2.749857   2.404662   1.367227   2.488790
    10  N    3.563171   2.340244   2.723184   2.352104   3.730054
    11  C    2.366098   1.442215   2.482463   2.864656   4.355058
    12  S    3.020011   2.760701   4.027123   4.515201   6.005497
    13  H    2.566182   2.125247   1.086415   2.191890   2.748674
    14  H    5.167661   3.830492   3.417136   2.167485   2.767673
    15  H    4.373060   3.254406   3.742796   3.274225   4.547669
    16  H    5.003122   4.220383   4.444188   4.226988   5.123246
    17  X    4.944427   4.317628   4.828248   4.787414   5.854790
    18  X    5.698387   5.163925   5.597878   5.562696   6.504047
    19  O    5.715863   5.044943   5.233609   5.050473   5.821281
    20  H    6.099192   5.354447   5.298945   4.981372   5.516668
                    6          7          8          9         10
     6  F    0.000000
     7  F    2.183809   0.000000
     8  F    2.183834   2.172670   0.000000
     9  C    2.702654   3.416807   3.416477   0.000000
    10  N    4.064221   4.546034   4.545756   1.361573   0.000000
    11  C    5.023019   5.004620   5.004549   2.462517   1.389157
    12  S    6.618222   6.622926   6.622828   3.966382   2.667332
    13  H    4.068482   2.867355   2.868068   3.397019   3.809445
    14  H    2.417382   3.734964   3.734451   1.083334   2.089251
    15  H    4.651369   5.391592   5.391203   2.062399   1.019792
    16  H    5.371747   6.374108   5.036414   3.766793   3.512098
    17  X    6.163122   7.042361   5.859254   4.232243   3.651689
    18  X    6.783002   7.732461   6.338898   5.092748   4.621583
    19  O    6.041213   7.095633   5.561012   4.672101   4.469298
    20  H    5.659137   6.822719   5.107220   4.729331   4.799584
                   11         12         13         14         15
    11  C    0.000000
    12  S    1.651971   0.000000
    13  H    3.454637   4.885889   0.000000
    14  H    3.396789   4.749842   4.338454   0.000000
    15  H    2.026007   2.720986   4.828927   2.353252   0.000000
    16  H    3.776852   4.410157   5.181424   4.086550   3.657161
    17  X    3.686437   3.934713   5.602821   4.626590   3.657356
    18  X    4.649088   4.848315   6.278210   5.424902   4.626062
    19  O    4.680214   5.204736   5.872570   4.933529   4.584171
    20  H    5.149534   5.895227   5.853555   4.895664   5.000131
                   16         17         18         19         20
    16  H    0.000000
    17  X    1.000000   0.000000
    18  X    1.414214   1.000000   0.000000
    19  O    0.957200   1.384280   1.000916   0.000000
    20  H    1.513901   2.268292   1.936692   0.957200   0.000000
 Symmetry turned off by external request.
 Stoichiometry    C6H5F4NOS
 Framework group  C1[X(C6H5F4NOS)]
 Deg. of freedom    48
 Full point group                 C1      NOp   1
 Rotational constants (GHZ):      0.8195608      0.3751439      0.3206483
 Standard basis: 6-31G(d) (6D, 7F)
 Integral buffers will be    131072 words long.
 Raffenetti 1 integral format.
 Two-electron integral symmetry is turned off.
   209 basis functions,   408 primitive gaussians,   209 cartesian basis functions
    54 alpha electrons       54 beta electrons
       nuclear repulsion energy       911.2403849535 Hartrees.
 NAtoms=   18 NActive=   18 NUniq=   18 SFac= 7.50D-01 NAtFMM=   80 NAOKFM=F Big=F
 One-electron integrals computed using PRISM.
 NBasis=   209 RedAO= T  NBF=   209
 NBsUse=   209 1.00D-06 NBFU=   209
 Initial guess read from the read-write file.
 B after Tr=     0.000000    0.000000    0.000000
         Rot=    1.000000    0.000000    0.000000    0.000000 Ang=   0.00 deg.
 Harris functional with IExCor=  205 diagonalized for initial guess.
 ExpMin= 1.17D-01 ExpMax= 2.19D+04 ExpMxC= 3.30D+03 IAcc=1 IRadAn=         1 AccDes= 0.00D+00
 HarFok:  IExCor=  205 AccDes= 0.00D+00 IRadAn=         1 IDoV= 1
 ScaDFX=  1.000000  1.000000  1.000000  1.000000
 FoFCou: FMM=F IPFlag=           0 FMFlag=      100000 FMFlg1=           0
         NFxFlg=           0 DoJE=T BraDBF=F KetDBF=T FulRan=T
         Omega=  0.000000  0.000000  1.000000  0.000000  0.000000 ICntrl=     500 IOpCl=  0
         NMat0=    1 NMatS0=    1 NMatT0=    0 NMatD0=    1 NMtDS0=    0 NMtDT0=    0
         I1Cent=           4 NGrid=           0.
 Symmetry not used in FoFCou.
 Requested convergence on RMS density matrix=1.00D-08 within 128 cycles.
 Requested convergence on MAX density matrix=1.00D-06.
 Requested convergence on             energy=1.00D-06.
 No special actions if energy rises.
 Integral accuracy reduced to 1.0D-05 until final iterations.
 Initial convergence to 1.0D-05 achieved.  Increase integral accuracy.
 SCF Done:  E(RHF) =  -1154.67112142     A.U. after   10 cycles
             Convg  =    0.3097D-08             -V/T =  2.0018
 Calling FoFJK, ICntrl=      2127 FMM=F ISym2X=0 I1Cent= 0 IOpClX= 0 NMat=1 NMatS=1 NMatT=0.
 -------------------------------------------------------------------
 Center     Atomic                   Forces (Hartrees/Bohr)
 Number     Number              X              Y              Z
 -------------------------------------------------------------------
      1        9           0.000000000    0.000000000    0.000000000
      2        6           0.000000000    0.000000000    0.000000000
      3        6           0.000000000    0.000000000    0.000000000
      4        6           0.000000000    0.000000000    0.000000000
      5        6           0.000000000    0.000000000    0.000000000
      6        9           0.000000000    0.000000000    0.000000000
      7        9           0.000000000    0.000000000    0.000000000
      8        9           0.000000000    0.000000000    0.000000000
      9        6           0.000000000    0.000000000    0.000000000
     10        7           0.000000000    0.000000000    0.000000000
     11        6           0.000000000    0.000000000    0.000000000
     12       16           0.000000000    0.000000000    0.000000000
     13        1           0.000000000    0.000000000    0.000000000
     14        1           0.000000000    0.000000000    0.000000000
     15        1           0.000000000    0.000000000    0.000000000
     16        1          -0.002235436    0.000603038    0.011097823
     17        8           0.012564552   -0.000376928   -0.009754844
     18        1          -0.010415700   -0.000065426   -0.000899274
 -------------------------------------------------------------------
 Cartesian Forces:  Max     0.012564552 RMS     0.003015360
 -----------------------------------------------------------------------------------------------
                       Internal Coordinate Forces (Hartree/Bohr or radian)
  Cent   Atom   N1       Length/X         N2         Alpha/Y        N3         Beta/Z          J
 -----------------------------------------------------------------------------------------------
      1  F 
      2  C 
      3  C 
      4  C 
      5  C 
      6  F 
      7  F 
      8  F 
      9  C 
     10  N 
     11  C 
     12  S 
     13  H 
     14  H 
     15  H 
     16  H       10   0.000444(     1)      9  -0.000173(     6)     11   0.000286(    11)     0
         X       16   0.000000(     2)     10   0.000710(     7)      9   0.000535(    12)     0
         X       17   0.000000(     3)     16   0.000000(     8)     10  -0.000800(    13)     0
     17  O       16  -0.010654(     4)     17   0.000710(     9)     18   0.000800(    14)     0
     18  H       19  -0.010304(     5)     16   0.003147(    10)     17   0.000535(    15)     0
 -----------------------------------------------------------------------------------------------
 Internal  Forces:  Max     0.010654054 RMS     0.003939203

 GradGradGradGradGradGradGradGradGradGradGradGradGradGradGradGradGradGrad
 Berny optimization.
 Search for a local minimum.
 Step number   4 out of a maximum of   21
 All quantities printed in internal units (Hartrees-Bohrs-Radians)
 Update second derivatives using D2CorN and points    3    4
 DE= -1.22D-04 DEPred=-1.21D-04 R= 1.01D+00
 SS=  1.41D+00  RLast= 2.58D-01 DXNew= 6.5133D-01 7.7456D-01
 Trust test= 1.01D+00 RLast= 2.58D-01 DXMaxT set to 6.51D-01
 The second derivative matrix:
                          RX       RDUM       ROH       AH1      ADUM
           RX           0.00025
           RDUM         0.00000   0.00000
           ROH         -0.00005   0.00000   1.12160
           AH1         -0.00044   0.00000   0.00000   0.28008
           ADUM         0.00025   0.00000   0.00000   0.00000   0.25000
           AOH2         0.00025   0.00000   0.00000   0.00000   0.25000
           AHOH         0.00021   0.00000   0.00000   0.00000   0.00000
           DH1         -0.00018   0.00000   0.00000  -0.00927   0.00000
           DDUM         0.00001   0.00000   0.00000   0.00000   0.00000
           DOH2         0.00011   0.00000   0.00000   0.00000   0.00000
           DH2          0.00012   0.00000   0.00000   0.00000   0.00000
                         AOH2      AHOH       DH1      DDUM      DOH2
           AOH2         0.25000
           AHOH         0.00000   0.16000
           DH1          0.00000   0.00000   0.28159
           DDUM         0.00000   0.00000   0.00000   0.25000
           DOH2         0.00000   0.00000   0.00000  -0.25000   0.25000
           DH2          0.00000   0.00000   0.00000   0.00000   0.00000
                          DH2
           DH2          0.00000
     Eigenvalues ---    0.000251000.000001000.000001000.000001000.00000
     Eigenvalues --- 1000.000001000.000001000.000001000.000001000.00000
     Eigenvalues --- 1000.00000
 RFO step:  Lambda= 0.00000000D+00 EMin= 2.45052042D-04
 Quartic linear search produced a step of  2.00000.
 Variable       Old X    -DE/DX   Delta X   Delta X   Delta X     New X
                                 (Linear)    (Quad)   (Total)
    RX        6.63690   0.00044   0.51638   0.00000   0.51638   7.15328
   RDUM       1.88973   0.00000   0.00000   0.00000   0.00000   1.88973
   ROH        1.80885  -0.02096   0.00000   0.00000   0.00000   1.80885
   AH1        1.57080  -0.00017   0.00000   0.00000   0.00000   1.57080
   ADUM       1.57080   0.00071   0.00000   0.00000   0.00000   1.57080
   AOH2       1.57080   0.00071   0.00000   0.00000   0.00000   1.57080
   AHOH       1.82422   0.00315   0.00000   0.00000   0.00000   1.82422
   DH1       -1.57080   0.00029   0.00000   0.00000   0.00000  -1.57080
   DDUM       3.14159  -0.00027   0.00000   0.00000   0.00000   3.14159
   DOH2       0.00000   0.00080   0.00000   0.00000   0.00000   0.00000
   DH2        3.14159   0.00053   0.00000   0.00000   0.00000   3.14159
         Item               Value     Threshold  Converged?
 Maximum Force            0.000444     0.000450     YES
 RMS     Force            0.000444     0.000300     NO 
 Maximum Displacement     0.516376     0.001800     NO 
 RMS     Displacement     0.155693     0.001200     NO 
 Predicted change in Energy=-1.964434D-04
 GradGradGradGradGradGradGradGradGradGradGradGradGradGradGradGradGradGrad

 ---------------------------------------------------------------------------------------------------
                            Z-MATRIX (ANGSTROMS AND DEGREES)
   CD    Cent   Atom    N1       Length/X        N2       Alpha/Y        N3        Beta/Z          J
[...]
 !      RDUM         1.0      -DE/DX =    0.0                           !
 !       ROH         0.9572   -DE/DX =   -0.0209                        !
 !       AH1        90.0001   -DE/DX =    0.0                           !
 !      ADUM        90.0      -DE/DX =    0.0                           !
 !      AOH2        90.0      -DE/DX =    0.0                           !
 !      AHOH       104.52     -DE/DX =    0.0022                        !
 !       DH1       -90.0002   -DE/DX =    0.0                           !
 !      DDUM       180.0      -DE/DX =    0.0                           !
 !      DOH2         0.0      -DE/DX =    0.0                           !
 !       DH2       180.0      -DE/DX =    0.0                           !
 ------------------------------------------------------------------------
 GradGradGradGradGradGradGradGradGradGradGradGradGradGradGradGradGradGrad

 ---------------------------------------------------------------------------------------------------
                            Z-MATRIX (ANGSTROMS AND DEGREES)
   CD    Cent   Atom    N1       Length/X        N2       Alpha/Y        N3        Beta/Z          J
 ---------------------------------------------------------------------------------------------------
      1      1  F       -1  -1.969300          2.053680          0.000070
      2      2  C       -1  -1.222250          0.944230          0.000030
      3      3  C       -1   0.140030          1.057400         -0.000020
      4      4  C       -1   0.927950         -0.123640         -0.000080
      5      5  C       -1   2.414660         -0.018650         -0.000010
      6      6  F       -1   3.007080         -1.234610         -0.000560
      7      7  F       -1   2.858290          0.654480         -1.086020
      8      8  F       -1   2.858270          0.653500          1.086650
      9      9  C       -1   0.306540         -1.341490         -0.000090
     10     10  N       -1  -1.054170         -1.389970         -0.000060
     11     11  C       -1  -1.930500         -0.312100          0.000000
     12     12  S       -1  -3.570980         -0.506610          0.000030
     13     13  H       -1   0.596860          2.043100         -0.000020
     14     14  H       -1   0.831760         -2.288990         -0.000150
     15     15  H       -1  -1.521480         -2.296390         -0.000090
     16     16  H       10  22.161935(    15)      9   90.000(    33)     11  -90.000(    50)      0
     17         X       16   1.000000(    16)     10   90.000(    34)      9  180.000(    51)      0
     18         X       17   1.000000(    17)     16   90.000(    35)     10  180.000(    52)      0
     19     17  O       16   0.957200(    18)     17   90.000(    36)     18    0.000(    53)      0
     20     18  H       19   0.957200(    19)     16  104.520(    37)     17  180.000(    54)      0
 ---------------------------------------------------------------------------------------------------
                         Z-Matrix orientation:                         
 ---------------------------------------------------------------------
 Center     Atomic      Atomic             Coordinates (Angstroms)
 Number     Number       Type             X           Y           Z
 ---------------------------------------------------------------------
      1          9           0       -1.969300    2.053680    0.000070
      2          6           0       -1.222250    0.944230    0.000030
      3          6           0        0.140030    1.057400   -0.000020
      4          6           0        0.927950   -0.123640   -0.000080
      5          6           0        2.414660   -0.018650   -0.000010
      6          9           0        3.007080   -1.234610   -0.000560
      7          9           0        2.858290    0.654480   -1.086020
      8          9           0        2.858270    0.653500    1.086650
      9          6           0        0.306540   -1.341490   -0.000090
     10          7           0       -1.054170   -1.389970   -0.000060
     11          6           0       -1.930500   -0.312100    0.000000
     12         16           0       -3.570980   -0.506610    0.000030
     13          1           0        0.596860    2.043100   -0.000020
     14          1           0        0.831760   -2.288990   -0.000150
     15          1           0       -1.521480   -2.296390   -0.000090
     16          1           0       -1.053696   -1.390877   22.161875
     17         -1           0       -2.053061   -1.426483   22.161895
     18         -1           0       -2.053040   -1.426524   23.161895
     19          8           0       -1.053675   -1.390916   23.119075
     20          1           0       -0.127630   -1.357933   23.359044
 ---------------------------------------------------------------------
                    Distance matrix (angstroms):
                    1          2          3          4          5
     1  F    0.000000
     2  C    1.337521   0.000000
     3  C    2.332777   1.366973   0.000000
     4  C    3.624194   2.400772   1.419744   0.000000
     5  C    4.849088   3.762214   2.516312   1.490413   0.000000
     6  F    5.964663   4.757581   3.670597   2.357337   1.352598
     7  F    5.142274   4.232525   2.954772   2.347541   1.352527
     8  F    5.142625   4.232719   2.955134   2.347566   1.352555
     9  C    4.087374   2.749857   2.404662   1.367227   2.488790
    10  N    3.563171   2.340244   2.723184   2.352104   3.730054
    11  C    2.366098   1.442215   2.482463   2.864656   4.355058
    12  S    3.020011   2.760701   4.027123   4.515201   6.005497
    13  H    2.566182   2.125247   1.086415   2.191890   2.748674
    14  H    5.167661   3.830492   3.417136   2.167485   2.767673
    15  H    4.373060   3.254406   3.742796   3.274225   4.547669
    16  H   22.446579  22.285163  22.328650  22.286432  22.473576
    17  X   22.433569  22.303784  22.408253  22.399486  22.651546
    18  X   23.421976  23.297697  23.397729  23.389333  23.630833
    19  O   23.392135  23.237288  23.278998  23.238506  23.418039
    20  H   23.678524  23.497695  23.485130  23.415516  23.535129
                    6          7          8          9         10
     6  F    0.000000
     7  F    2.183809   0.000000
     8  F    2.183834   2.172670   0.000000
     9  C    2.702654   3.416807   3.416477   0.000000
    10  N    4.064221   4.546034   4.545756   1.361573   0.000000
    11  C    5.023019   5.004620   5.004549   2.462517   1.389157
    12  S    6.618222   6.622926   6.622828   3.966382   2.667332
    13  H    4.068482   2.867355   2.868068   3.397019   3.809445
    14  H    2.417382   3.734964   3.734451   1.083334   2.089251
    15  H    4.651369   5.391592   5.391203   2.062399   1.019792
    16  H   22.531929  23.663299  21.532488  22.203724  22.161935
    17  X   22.733593  23.851988  21.739675  22.287407  22.184485
    18  X   23.709512  24.827668  22.710436  23.282019  23.183512
    19  O   23.474064  24.604344  22.470218  23.159197  23.119135
    20  H   23.569317  24.708838  22.561493  23.363174  23.377494
                   11         12         13         14         15
    11  C    0.000000
    12  S    1.651971   0.000000
    13  H    3.454637   4.885889   0.000000
    14  H    3.396789   4.749842   4.338454   0.000000
    15  H    2.026007   2.720986   4.828927   2.353252   0.000000
    16  H   22.205433  22.321873  22.487021  22.260209  22.185389
    17  X   22.190233  22.232825  22.587841  22.365651  22.185421
    18  X   23.189013  23.229773  23.569781  23.356931  23.184408
    19  O   23.160835  23.272496  23.430947  23.213357  23.141619
    20  H   23.451845  23.626784  23.616472  23.397419  23.419493
                   16         17         18         19         20
    16  H    0.000000
    17  X    1.000000   0.000000
    18  X    1.414214   1.000000   0.000000
    19  O    0.957200   1.384280   1.000916   0.000000
    20  H    1.513901   2.268292   1.936692   0.957200   0.000000
 Symmetry turned off by external request.
 Stoichiometry    C6H5F4NOS
 Framework group  C1[X(C6H5F4NOS)]
 Deg. of freedom    48
 Full point group                 C1      NOp   1
 Rotational constants (GHZ):      0.3752660      0.0554711      0.0504666

 **********************************************************************

            Population analysis using the SCF density.

 **********************************************************************

 Alpha  occ. eigenvalues --  -91.90369 -26.36725 -26.35778 -26.35775 -26.33345
 Alpha  occ. eigenvalues --  -20.56044 -15.68632 -11.54060 -11.37736 -11.37074
 Alpha  occ. eigenvalues --  -11.36029 -11.31126 -11.30224  -8.91459  -6.59788
 Alpha  occ. eigenvalues --   -6.59511  -6.59386  -1.73965  -1.64973  -1.64602
 Alpha  occ. eigenvalues --   -1.64276  -1.35448  -1.34187  -1.17016  -1.11961
 Alpha  occ. eigenvalues --   -1.02873  -0.97058  -0.92484  -0.88143  -0.84726
 Alpha  occ. eigenvalues --   -0.83577  -0.83202  -0.76874  -0.75758  -0.73719
 Alpha  occ. eigenvalues --   -0.72140  -0.71475  -0.71207  -0.70701  -0.70138
 Alpha  occ. eigenvalues --   -0.67386  -0.67379  -0.65963  -0.63891  -0.62417
 Alpha  occ. eigenvalues --   -0.60650  -0.59232  -0.57107  -0.52482  -0.49797
 Alpha  occ. eigenvalues --   -0.46448  -0.43170  -0.34021  -0.30886
 Alpha virt. eigenvalues --    0.04581   0.08853   0.17767   0.21068   0.24592
 Alpha virt. eigenvalues --    0.25295   0.26596   0.26665   0.30156   0.30410
 Alpha virt. eigenvalues --    0.33870   0.35392   0.39417   0.40818   0.42693
 Alpha virt. eigenvalues --    0.43119   0.46752   0.49644   0.54290   0.55624
 Alpha virt. eigenvalues --    0.56767   0.59911   0.61316   0.64507   0.66932
 Alpha virt. eigenvalues --    0.68102   0.72030   0.73239   0.73795   0.75531
 Alpha virt. eigenvalues --    0.77295   0.78015   0.83054   0.84603   0.87598
 Alpha virt. eigenvalues --    0.89251   0.90098   0.92353   0.95767   0.99881
 Alpha virt. eigenvalues --    1.02261   1.02325   1.02871   1.04729   1.07615
 Alpha virt. eigenvalues --    1.09303   1.09933   1.13170   1.13643   1.15303
 Alpha virt. eigenvalues --    1.16100   1.16773   1.17162   1.18168   1.24581
 Alpha virt. eigenvalues --    1.28495   1.31381   1.31836   1.33515   1.34331
 Alpha virt. eigenvalues --    1.35134   1.38081   1.39199   1.42271   1.42531
 Alpha virt. eigenvalues --    1.43396   1.46631   1.47559   1.52128   1.60700
 Alpha virt. eigenvalues --    1.60800   1.61873   1.63860   1.64442   1.64536
 Alpha virt. eigenvalues --    1.65654   1.66674   1.67666   1.69733   1.70277
 Alpha virt. eigenvalues --    1.72211   1.76303   1.76554   1.81276   1.86598
 Alpha virt. eigenvalues --    1.89968   1.92638   1.93747   2.00308   2.02008
 Alpha virt. eigenvalues --    2.03371   2.04456   2.06142   2.06774   2.09543
 Alpha virt. eigenvalues --    2.10128   2.12521   2.12845   2.18086   2.20344
 Alpha virt. eigenvalues --    2.22700   2.22760   2.24727   2.28638   2.29807
 Alpha virt. eigenvalues --    2.30638   2.32781   2.33826   2.35044   2.36192
 Alpha virt. eigenvalues --    2.37993   2.39272   2.43375   2.45296   2.45727
 Alpha virt. eigenvalues --    2.47266   2.52333   2.60995   2.62036   2.62227
 Alpha virt. eigenvalues --    2.65569   2.68487   2.75353   2.82907   2.84629
 Alpha virt. eigenvalues --    2.84687   2.91468   2.92981   2.93418   2.94726
 Alpha virt. eigenvalues --    3.00502   3.07525   3.09675   3.17419   3.22215
 Alpha virt. eigenvalues --    3.29712   3.37579   3.38557   3.42979   3.44632
 Alpha virt. eigenvalues --    3.49468   3.71296   3.97054   4.36430   4.40122
 Alpha virt. eigenvalues --    4.45221   4.48350   4.60176   4.64360   4.68842
 Alpha virt. eigenvalues --    4.81961   5.01545   5.15639   5.57601   6.01965
          Condensed to atoms (all electrons):
              1          2          3          4          5          6
     1  F    9.160508   0.267386  -0.033697   0.002210  -0.000015   0.000000
     2  C    0.267386   4.577405   0.569088  -0.026360   0.000847  -0.000019
     3  C   -0.033697   0.569088   5.065938   0.355335  -0.012087   0.002191
     4  C    0.002210  -0.026360   0.355335   5.204647   0.416063  -0.045511
     5  C   -0.000015   0.000847  -0.012087   0.416063   3.549585   0.289168
     6  F    0.000000  -0.000019   0.002191  -0.045511   0.289168   9.188658
     7  F    0.000000   0.000293   0.005007  -0.055267   0.284669  -0.030761
     8  F    0.000000   0.000293   0.005001  -0.055272   0.284642  -0.030761
     9  C    0.000132  -0.023074  -0.055174   0.592047  -0.020901   0.005504
    10  N    0.001383  -0.053235  -0.021181  -0.035769   0.001209   0.000240
    11  C   -0.040812   0.379117  -0.078803  -0.001387   0.000079   0.000002
    12  S    0.003523  -0.083530   0.001607  -0.000054   0.000006   0.000000
    13  H   -0.000267  -0.017578   0.368651  -0.029958  -0.000288   0.000035
    14  H    0.000000  -0.000110   0.001815  -0.022528  -0.000141   0.005046
    15  H   -0.000018   0.003857  -0.000574   0.002342  -0.000015   0.000001
    16  H    0.000000   0.000000   0.000000   0.000000   0.000000   0.000000
    17  O    0.000000   0.000000   0.000000   0.000000   0.000000   0.000000
    18  H    0.000000   0.000000   0.000000   0.000000   0.000000   0.000000
              7          8          9         10         11         12
     1  F    0.000000   0.000000   0.000132   0.001383  -0.040812   0.003523
     2  C    0.000293   0.000293  -0.023074  -0.053235   0.379117  -0.083530
     3  C    0.005007   0.005001  -0.055174  -0.021181  -0.078803   0.001607
     4  C   -0.055267  -0.055272   0.592047  -0.035769  -0.001387  -0.000054
     5  C    0.284669   0.284642  -0.020901   0.001209   0.000079   0.000006
     6  F   -0.030761  -0.030761   0.005504   0.000240   0.000002   0.000000
     7  F    9.201800  -0.033973   0.000528  -0.000006  -0.000002   0.000000
     8  F   -0.033973   9.201910   0.000524  -0.000006  -0.000002   0.000000
     9  C    0.000528   0.000524   4.737413   0.265140  -0.038603   0.003333
    10  N   -0.000006  -0.000006   0.265140   7.234833   0.213421  -0.104491
    11  C   -0.000002  -0.000002  -0.038603   0.213421   4.954106   0.445193
    12  S    0.000000   0.000000   0.003333  -0.104491   0.445193  15.953608
    13  H    0.000908   0.000904   0.002435  -0.000261   0.002625  -0.000056
    14  H    0.000084   0.000084   0.380023  -0.032185   0.000960  -0.000133
    15  H    0.000000   0.000000  -0.021564   0.310014  -0.017940   0.013777
    16  H    0.000000   0.000000   0.000000   0.000000   0.000000   0.000000
    17  O    0.000000   0.000000   0.000000   0.000000   0.000000   0.000000
    18  H    0.000000   0.000000   0.000000   0.000000   0.000000   0.000000
             13         14         15         16         17         18
     1  F   -0.000267   0.000000  -0.000018   0.000000   0.000000   0.000000
     2  C   -0.017578  -0.000110   0.003857   0.000000   0.000000   0.000000
     3  C    0.368651   0.001815  -0.000574   0.000000   0.000000   0.000000
     4  C   -0.029958  -0.022528   0.002342   0.000000   0.000000   0.000000
     5  C   -0.000288  -0.000141  -0.000015   0.000000   0.000000   0.000000
     6  F    0.000035   0.005046   0.000001   0.000000   0.000000   0.000000
     7  F    0.000908   0.000084   0.000000   0.000000   0.000000   0.000000
     8  F    0.000904   0.000084   0.000000   0.000000   0.000000   0.000000
     9  C    0.002435   0.380023  -0.021564   0.000000   0.000000   0.000000
    10  N   -0.000261  -0.032185   0.310014   0.000000   0.000000   0.000000
    11  C    0.002625   0.000960  -0.017940   0.000000   0.000000   0.000000
    12  S   -0.000056  -0.000133   0.013777   0.000000   0.000000   0.000000
    13  H    0.392691  -0.000062   0.000008   0.000000   0.000000   0.000000
    14  H   -0.000062   0.381675  -0.002126   0.000000   0.000000   0.000000
    15  H    0.000008  -0.002126   0.270833   0.000000   0.000000   0.000000
    16  H    0.000000   0.000000   0.000000   0.320164   0.265385  -0.018715
    17  O    0.000000   0.000000   0.000000   0.265385   8.335543   0.265380
    18  H    0.000000   0.000000   0.000000  -0.018715   0.265380   0.320194
 Mulliken atomic charges:
              1
     1  F   -0.360334
     2  C    0.405620
     3  C   -0.173118
     4  C   -0.300538
     5  C    1.207179
     6  F   -0.383794
     7  F   -0.373280
     8  F   -0.373344
     9  C    0.172237
    10  N   -0.779107
    11  C    0.182046
    12  S   -0.232782
    13  H    0.280214
    14  H    0.287598
    15  H    0.441404
    16  H    0.433166
    17  O   -0.866308
    18  H    0.433141
 Sum of Mulliken atomic charges =   0.00000
 Mulliken charges with hydrogens summed into heavy atoms:
              1
     1  F   -0.360334
     2  C    0.405620
     3  C    0.107096
     4  C   -0.300538
     5  C    1.207179
     6  F   -0.383794
     7  F   -0.373280
     8  F   -0.373344
     9  C    0.459834
    10  N   -0.337702
    11  C    0.182046
    12  S   -0.232782
    17  O    0.000000
 Sum of Mulliken charges with hydrogens summed into heavy atoms =   0.00000
 Electronic spatial extent (au):  <R**2>=          21770.3084
 Charge=              0.0000 electrons
 Dipole moment (field-independent basis, Debye):
    X=              5.3164    Y=             -2.5661    Z=             -1.3636  Tot=              6.0587
 Quadrupole moment (field-independent basis, Debye-Ang):
   XX=           -107.6642   YY=            -72.1082   ZZ=           -142.8942
   XY=             -0.4678   XZ=             42.7198   YZ=              3.3687
 Traceless Quadrupole moment (field-independent basis, Debye-Ang):
   XX=             -0.1087   YY=             35.4474   ZZ=            -35.3387
   XY=             -0.4678   XZ=             42.7198   YZ=              3.3687
 Octapole moment (field-independent basis, Debye-Ang**2):
  XXX=            125.5090  YYY=             22.0577  ZZZ=          -2505.4436  XYY=             33.1201
  XXY=             15.9645  XXZ=           -202.5719  XZZ=           1057.0964  YZZ=            133.0702
  YYZ=           -173.4561  XYZ=            -59.0961
 Hexadecapole moment (field-independent basis, Debye-Ang**3):
 XXXX=          -2723.6691 YYYY=           -536.4717 ZZZZ=         -82376.8020 XXXY=            -71.1421
 XXXZ=            511.8299 YYYX=            -37.6715 YYYZ=            706.9897 ZZZX=          25374.5280
 ZZZY=           4296.4923 XXYY=           -538.3482 XXZZ=          -5183.0489 YYZZ=          -4187.7419
 XXYZ=            280.4623 YYXZ=            248.9734 ZZXY=          -1456.0396
 N-N= 8.352044905329D+02 E-N=-4.408415621814D+03  KE= 1.152548647612D+03
 1\1\GINC-PAMLICO\FOpt\RHF\6-31G(d)\C6H5F4N1O1S1\ANAC\07-Jul-2024\1\\#H
 F/6-31G* Opt=Z-matrix NoSymm\\water interaction with atom N10\\0,1\F,-
 1,-1.9693,2.05368,0.00007\C,-1,-1.22225,0.94423,0.00003\C,-1,0.14003,1
 .0574,-0.00002\C,-1,0.92795,-0.12364,-0.00008\C,-1,2.41466,-0.01865,-0
 .00001\F,-1,3.00708,-1.23461,-0.00056\F,-1,2.85829,0.65448,-1.08602\F,
 -1,2.85827,0.6535,1.08665\C,-1,0.30654,-1.34149,-0.00009\N,-1,-1.05417
 ,-1.38997,-0.00006\C,-1,-1.9305,-0.3121,0.\S,-1,-3.57098,-0.50661,0.00
 003\H,-1,0.59686,2.0431,-0.00002\H,-1,0.83176,-2.28899,-0.00015\H,-1,-
 1.52148,-2.29639,-0.00009\H,10,RX,9,AH1,11,DH1,0\X,16,RDUM,10,ADUM,9,D
 DUM,0\X,17,RDUM,16,ADUM,10,DDUM,0\O,16,ROH,17,AOH2,18,DOH2,0\H,19,ROH,
 16,AHOH,17,DH2,0\\RX=22.16193491\RDUM=1.\ROH=0.9572\AH1=90.00012\ADUM=
 90.\AOH2=90.\AHOH=104.52\DH1=-90.00024\DDUM=180.\DOH2=0.\DH2=180.\\Ver
 sion=EM64L-G09RevA.01\HF=-1154.6728934\RMSD=6.869e-09\RMSF=2.853e-03\D
 ipole=2.0916312,-1.0095843,-0.536475\Quadrupole=-0.0808001,26.3542432,
 -26.2734431,-0.3477683,31.761127,2.5045372\PG=C01 [X(C6H5F4N1O1S1)]\\@


 BOOKS ARE LIGHTHOUSES ERECTED IN THE GREAT SEA OF TIME.
     -- E.P.WHIPPLE
 Job cpu time:  0 days  0 hours  4 minutes  5.9 seconds.
 File lengths (MBytes):  RWF=     33 Int=      0 D2E=      0 Chk=      4 Scr=      1
 Normal termination of Gaussian 09 at Sun Jul  7 13:18:22 2024.
