 Entering Gaussian System, Link 0=g16
 Initial command:
 /home/alexey/programs//g16/l1.exe "/home/alexey/tmp/Gau-1564967.inp" -scrdir="/home/alexey/tmp/"
 Entering Link 1 = /home/alexey/programs//g16/l1.exe PID=   1564969.
  
 Copyright (c) 1988-2021, Gaussian, Inc.  All Rights Reserved.
  
 This is part of the Gaussian(R) 16 program.  It is based on
 the Gaussian(R) 09 system (copyright 2009, Gaussian, Inc.),
 the Gaussian(R) 03 system (copyright 2003, Gaussian, Inc.),
 the Gaussian(R) 98 system (copyright 1998, Gaussian, Inc.),
 the Gaussian(R) 94 system (copyright 1995, Gaussian, Inc.),
 the Gaussian 92(TM) system (copyright 1992, Gaussian, Inc.),
 the Gaussian 90(TM) system (copyright 1990, Gaussian, Inc.),
 the Gaussian 88(TM) system (copyright 1988, Gaussian, Inc.),
 the Gaussian 86(TM) system (copyright 1986, Carnegie Mellon
 University), and the Gaussian 82(TM) system (copyright 1983,
 Carnegie Mellon University). Gaussian is a federally registered
 trademark of Gaussian, Inc.
  
 This software contains proprietary and confidential information,
 including trade secrets, belonging to Gaussian, Inc.
  
 This software is provided under written license and may be
 used, copied, transmitted, or stored only in accord with that
 written license.
  
 The following legend is applicable only to US Government
 contracts under FAR:
  
                    RESTRICTED RIGHTS LEGEND
  
 Use, reproduction and disclosure by the US Government is
 subject to restrictions as set forth in subparagraphs (a)
 and (c) of the Commercial Computer Software - Restricted
 Rights clause in FAR 52.227-19.
  
 Gaussian, Inc.
 340 Quinnipiac St., Bldg. 40, Wallingford CT 06492
  
  
 ---------------------------------------------------------------
 Warning -- This program may not be used in any manner that
 competes with the business of Gaussian, Inc. or will provide
 assistance to any competitor of Gaussian, Inc.  The licensee
 of this program is prohibited from giving any competitor of
 Gaussian, Inc. access to this program.  By using this program,
 the user acknowledges that Gaussian, Inc. is engaged in the
 business of creating and licensing software in the field of
 computational chemistry and represents and warrants to the
 licensee that it is not a competitor of Gaussian, Inc. and that
 it will not use this program in any manner prohibited above.
 ---------------------------------------------------------------
  

 Cite this work as:
 Gaussian 16, Revision C.02,
 M. J. Frisch, G. W. Trucks, H. B. Schlegel, G. E. Scuseria, 
 M. A. Robb, J. R. Cheeseman, G. Scalmani, V. Barone, 
 G. A. Petersson, H. Nakatsuji, X. Li, M. Caricato, A. V. Marenich, 
 J. Bloino, B. G. Janesko, R. Gomperts, B. Mennucci, H. P. Hratchian, 
 J. V. Ortiz, A. F. Izmaylov, J. L. Sonnenberg, D. Williams-Young, 
 F. Ding, F. Lipparini, F. Egidi, J. Goings, B. Peng, A. Petrone, 
 T. Henderson, D. Ranasinghe, V. G. Zakrzewski, J. Gao, N. Rega, 
 G. Zheng, W. Liang, M. Hada, M. Ehara, K. Toyota, R. Fukuda, 
 J. Hasegawa, M. Ishida, T. Nakajima, Y. Honda, O. Kitao, H. Nakai, 
 T. Vreven, K. Throssell, J. A. Montgomery, Jr., J. E. Peralta, 
 F. Ogliaro, M. J. Bearpark, J. J. Heyd, E. N. Brothers, K. N. Kudin, 
 V. N. Staroverov, T. A. Keith, R. Kobayashi, J. Normand, 
 K. Raghavachari, A. P. Rendell, J. C. Burant, S. S. Iyengar, 
 J. Tomasi, M. Cossi, J. M. Millam, M. Klene, C. Adamo, R. Cammi, 
 J. W. Ochterski, R. L. Martin, K. Morokuma, O. Farkas, 
 J. B. Foresman, and D. J. Fox, Gaussian, Inc., Wallingford CT, 2019.
 
 ******************************************
 Gaussian 16:  ES64L-G16RevC.02  7-Dec-2021
                 2-Jul-2023 
 ******************************************
 %mem=8GB
 %NPROCS=4
 Will use up to    4 processors via shared memory.
 %NoSave
 ---------------------------------------------------------
 #MP2/6-31G* SCF=Tight Opt=(ModRedun, MaxCycle=20 ) NoSymm
 ---------------------------------------------------------
 1/6=20,18=120,19=15,38=1/1,3;
 2/9=110,12=2,15=1,17=6,18=5,40=1/2;
 3/5=1,6=6,7=1,11=9,25=1,30=1,71=1/1,2,3;
 4//1;
 5/5=2,32=2,38=5/2;
 8/6=4,10=2/1;
 9/15=2,16=-3/6;
 10/5=1,31=1/2;
 6/7=2,8=2,9=2,10=2/1;
 7/12=2,30=1/1,2,3,16;
 1/6=20,18=20,19=15/3(2);
 2/9=110,15=1/2;
 99//99;
 2/9=110,15=1/2;
 3/5=1,6=6,7=1,11=9,25=1,30=1,71=1/1,2,3;
 4/5=5,16=3,69=1/1;
 5/5=2,32=2,38=5/2;
 8/6=4,10=2/1;
 9/15=2,16=-3/6;
 10/5=1,31=1/2;
 7/12=2,30=1/1,2,3,16;
 1/6=20,18=20,19=15/3(-8);
 2/9=110,15=1/2;
 6/7=2,8=2,9=2,10=2/1;
 99/9=10/99;
 --------
 MolName:
 --------
 Symbolic Z-matrix:
 Charge =  0 Multiplicity = 1
 8                    0    -3.62438  -1.4313   -0.10933 
 7                    0    -3.24941  -0.26472  -0.00468 
 8                    0    -4.0144    0.68633   0.16031 
 6                    0    -1.7465    0.00358  -0.04947 
 6                    0    -1.34472   1.33744   0.07952 
 7                    0    -0.09153   1.74273   0.45546 
 6                    0     1.19233   0.98251   0.39617 
 1                    0     1.86333   1.47154   1.14925 
 6                    0     1.93912   1.05832  -0.95892 
 6                    0     3.35671   0.47754  -0.79558 
 6                    0     3.30997  -0.94742  -0.22146 
 6                    0     2.47781  -1.00492   1.07777 
 6                    0     1.0349   -0.47508   0.85423 
 1                    0     0.49596  -0.52918   1.82922 
 7                    0     0.37184  -1.34023  -0.1251 
 6                    0    -0.87532  -1.14714  -0.40522 
 1                    0    -2.11764   2.1228    0.07007 
 1                    0     0.15251   2.73602   0.46206 
 1                    0     1.38316   0.48933  -1.73418 
 1                    0     2.01353   2.11398  -1.2961 
 1                    0     3.87927   0.47093  -1.77713 
 1                    0     3.93873   1.12453  -0.10187 
 1                    0     2.85746  -1.62815  -0.9775 
 1                    0     4.34256  -1.30845  -0.02238 
 1                    0     2.43034  -2.05673   1.43579 
 1                    0     2.97728  -0.40186   1.86469 
 1                    0    -1.39091  -1.91841  -0.99763 
 
 The following ModRedundant input section has been read:
 D      16       4       5       6 F                                           
 D       1       2       4      16 F                                           
 D       7      13      15      16 F                                           
 D       7       9      10      11 F                                           
 D       9      10      11      12 F                                           
 D       6       7      13      15 F                                           
 

 GradGradGradGradGradGradGradGradGradGradGradGradGradGradGradGradGradGrad
 Berny optimization.
 Initialization pass.
                           ----------------------------
                           !    Initial Parameters    !
                           ! (Angstroms and Degrees)  !
 --------------------------                            --------------------------
 ! Name  Definition              Value          Derivative Info.                !
 --------------------------------------------------------------------------------
 ! R1    R(1,2)                  1.2298         estimate D2E/DX2                !
 ! R2    R(2,3)                  1.2316         estimate D2E/DX2                !
 ! R3    R(2,4)                  1.5273         estimate D2E/DX2                !
 ! R4    R(4,5)                  1.399          estimate D2E/DX2                !
 ! R5    R(4,16)                 1.4865         estimate D2E/DX2                !
 ! R6    R(5,6)                  1.3697         estimate D2E/DX2                !
 ! R7    R(5,17)                 1.1019         estimate D2E/DX2                !
 ! R8    R(6,7)                  1.4932         estimate D2E/DX2                !
 ! R9    R(6,18)                 1.0229         estimate D2E/DX2                !
 ! R10   R(7,8)                  1.1209         estimate D2E/DX2                !
 ! R11   R(7,9)                  1.5491         estimate D2E/DX2                !
 ! R12   R(7,13)                 1.536          estimate D2E/DX2                !
 ! R13   R(9,10)                 1.5406         estimate D2E/DX2                !
 ! R14   R(9,19)                 1.1108         estimate D2E/DX2                !
 ! R15   R(9,20)                 1.1107         estimate D2E/DX2                !
 ! R16   R(10,11)                1.537          estimate D2E/DX2                !
 ! R17   R(10,21)                1.112          estimate D2E/DX2                !
 ! R18   R(10,22)                1.1129         estimate D2E/DX2                !
 ! R19   R(11,12)                1.544          estimate D2E/DX2                !
 ! R20   R(11,23)                1.1134         estimate D2E/DX2                !
 ! R21   R(11,24)                1.1119         estimate D2E/DX2                !
 ! R22   R(12,13)                1.5533         estimate D2E/DX2                !
 ! R23   R(12,25)                1.1121         estimate D2E/DX2                !
 ! R24   R(12,26)                1.1101         estimate D2E/DX2                !
 ! R25   R(13,14)                1.1153         estimate D2E/DX2                !
 ! R26   R(13,15)                1.4653         estimate D2E/DX2                !
 ! R27   R(15,16)                1.2927         estimate D2E/DX2                !
 ! R28   R(16,27)                1.1007         estimate D2E/DX2                !
 ! A1    A(1,2,3)              123.6761         estimate D2E/DX2                !
 ! A2    A(1,2,4)              117.6559         estimate D2E/DX2                !
 ! A3    A(3,2,4)              118.6507         estimate D2E/DX2                !
 ! A4    A(2,4,5)              116.5755         estimate D2E/DX2                !
 ! A5    A(2,4,16)             116.5979         estimate D2E/DX2                !
 ! A6    A(5,4,16)             126.2862         estimate D2E/DX2                !
 ! A7    A(4,5,6)              124.7629         estimate D2E/DX2                !
 ! A8    A(4,5,17)             118.508          estimate D2E/DX2                !
 ! A9    A(6,5,17)             115.6719         estimate D2E/DX2                !
 ! A10   A(5,6,7)              128.6901         estimate D2E/DX2                !
 ! A11   A(5,6,18)             120.4915         estimate D2E/DX2                !
 ! A12   A(7,6,18)             106.8291         estimate D2E/DX2                !
 ! A13   A(6,7,8)              105.4196         estimate D2E/DX2                !
 ! A14   A(6,7,9)              115.1066         estimate D2E/DX2                !
 ! A15   A(6,7,13)             112.53           estimate D2E/DX2                !
 ! A16   A(8,7,9)              106.1267         estimate D2E/DX2                !
 ! A17   A(8,7,13)             105.9623         estimate D2E/DX2                !
 ! A18   A(9,7,13)             110.8993         estimate D2E/DX2                !
 ! A19   A(7,9,10)             109.4137         estimate D2E/DX2                !
 ! A20   A(7,9,19)             110.1312         estimate D2E/DX2                !
 ! A21   A(7,9,20)             110.143          estimate D2E/DX2                !
 ! A22   A(10,9,19)            109.9639         estimate D2E/DX2                !
 ! A23   A(10,9,20)            109.1982         estimate D2E/DX2                !
 ! A24   A(19,9,20)            107.9695         estimate D2E/DX2                !
 ! A25   A(9,10,11)            111.1691         estimate D2E/DX2                !
 ! A26   A(9,10,21)            109.941          estimate D2E/DX2                !
 ! A27   A(9,10,22)            109.1556         estimate D2E/DX2                !
 ! A28   A(11,10,21)           109.7853         estimate D2E/DX2                !
 ! A29   A(11,10,22)           108.7866         estimate D2E/DX2                !
 ! A30   A(21,10,22)           107.9328         estimate D2E/DX2                !
 ! A31   A(10,11,12)           111.4229         estimate D2E/DX2                !
 ! A32   A(10,11,23)           108.9982         estimate D2E/DX2                !
 ! A33   A(10,11,24)           109.8577         estimate D2E/DX2                !
 ! A34   A(12,11,23)           109.2427         estimate D2E/DX2                !
 ! A35   A(12,11,24)           109.7424         estimate D2E/DX2                !
 ! A36   A(23,11,24)           107.4872         estimate D2E/DX2                !
 ! A37   A(11,12,13)           111.5229         estimate D2E/DX2                !
 ! A38   A(11,12,25)           109.2164         estimate D2E/DX2                !
 ! A39   A(11,12,26)           109.4976         estimate D2E/DX2                !
 ! A40   A(13,12,25)           109.2263         estimate D2E/DX2                !
 ! A41   A(13,12,26)           109.5519         estimate D2E/DX2                !
 ! A42   A(25,12,26)           107.7455         estimate D2E/DX2                !
 ! A43   A(7,13,12)            105.7482         estimate D2E/DX2                !
 ! A44   A(7,13,14)            110.8703         estimate D2E/DX2                !
 ! A45   A(7,13,15)            114.0386         estimate D2E/DX2                !
 ! A46   A(12,13,14)           107.8496         estimate D2E/DX2                !
 ! A47   A(12,13,15)           108.3687         estimate D2E/DX2                !
 ! A48   A(14,13,15)           109.6907         estimate D2E/DX2                !
 ! A49   A(13,15,16)           119.5495         estimate D2E/DX2                !
 ! A50   A(4,16,15)            128.989          estimate D2E/DX2                !
 ! A51   A(4,16,27)            113.3718         estimate D2E/DX2                !
 ! A52   A(15,16,27)           117.6358         estimate D2E/DX2                !
 ! D1    D(1,2,4,5)           -179.635          estimate D2E/DX2                !
 ! D2    D(1,2,4,16)             8.2584         Frozen                          !
 ! D3    D(3,2,4,5)             -1.0903         estimate D2E/DX2                !
 ! D4    D(3,2,4,16)          -173.1969         estimate D2E/DX2                !
 ! D5    D(2,4,5,6)            159.7152         estimate D2E/DX2                !
 ! D6    D(2,4,5,17)            -7.9905         estimate D2E/DX2                !
 ! D7    D(16,4,5,6)           -29.0474         Frozen                          !
 ! D8    D(16,4,5,17)          163.2469         estimate D2E/DX2                !
 ! D9    D(2,4,16,15)         -156.0225         estimate D2E/DX2                !
 ! D10   D(2,4,16,27)           24.6802         estimate D2E/DX2                !
 ! D11   D(5,4,16,15)           32.7417         estimate D2E/DX2                !
 ! D12   D(5,4,16,27)         -146.5555         estimate D2E/DX2                !
 ! D13   D(4,5,6,7)             21.0179         estimate D2E/DX2                !
 ! D14   D(4,5,6,18)           175.445          estimate D2E/DX2                !
 ! D15   D(17,5,6,7)          -170.9643         estimate D2E/DX2                !
 ! D16   D(17,5,6,18)          -16.5372         estimate D2E/DX2                !
 ! D17   D(5,6,7,8)           -157.4591         estimate D2E/DX2                !
 ! D18   D(5,6,7,9)             85.9616         estimate D2E/DX2                !
 ! D19   D(5,6,7,13)           -42.4185         estimate D2E/DX2                !
 ! D20   D(18,6,7,8)            45.4087         estimate D2E/DX2                !
 ! D21   D(18,6,7,9)           -71.1706         estimate D2E/DX2                !
 ! D22   D(18,6,7,13)          160.4493         estimate D2E/DX2                !
 ! D23   D(6,7,9,10)           168.8096         estimate D2E/DX2                !
 ! D24   D(6,7,9,19)           -70.2094         estimate D2E/DX2                !
 ! D25   D(6,7,9,20)            48.7669         estimate D2E/DX2                !
 ! D26   D(8,7,9,10)            52.6331         estimate D2E/DX2                !
 ! D27   D(8,7,9,19)           173.614          estimate D2E/DX2                !
 ! D28   D(8,7,9,20)           -67.4097         estimate D2E/DX2                !
 ! D29   D(13,7,9,10)          -62.0021         estimate D2E/DX2                !
 ! D30   D(13,7,9,19)           58.9789         estimate D2E/DX2                !
 ! D31   D(13,7,9,20)          177.9552         estimate D2E/DX2                !
 ! D32   D(6,7,13,12)         -166.0114         estimate D2E/DX2                !
 ! D33   D(6,7,13,14)          -49.3733         estimate D2E/DX2                !
 ! D34   D(6,7,13,15)           75.0224         Frozen                          !
 ! D35   D(8,7,13,12)          -51.2995         estimate D2E/DX2                !
 ! D36   D(8,7,13,14)           65.3385         estimate D2E/DX2                !
 ! D37   D(8,7,13,15)         -170.2658         estimate D2E/DX2                !
 ! D38   D(9,7,13,12)           63.4384         estimate D2E/DX2                !
 ! D39   D(9,7,13,14)         -179.9235         estimate D2E/DX2                !
 ! D40   D(9,7,13,15)          -55.5278         estimate D2E/DX2                !
 ! D41   D(7,9,10,11)           54.8122         Frozen                          !
 ! D42   D(7,9,10,21)          176.5909         estimate D2E/DX2                !
 ! D43   D(7,9,10,22)          -65.1952         estimate D2E/DX2                !
 ! D44   D(19,9,10,11)         -66.2703         estimate D2E/DX2                !
 ! D45   D(19,9,10,21)          55.5085         estimate D2E/DX2                !
 ! D46   D(19,9,10,22)         173.7224         estimate D2E/DX2                !
 ! D47   D(20,9,10,11)         175.4322         estimate D2E/DX2                !
 ! D48   D(20,9,10,21)         -62.7891         estimate D2E/DX2                !
 ! D49   D(20,9,10,22)          55.4248         estimate D2E/DX2                !
 ! D50   D(9,10,11,12)         -52.8224         Frozen                          !
 ! D51   D(9,10,11,23)          67.8089         estimate D2E/DX2                !
 ! D52   D(9,10,11,24)        -174.6594         estimate D2E/DX2                !
 ! D53   D(21,10,11,12)       -174.6918         estimate D2E/DX2                !
 ! D54   D(21,10,11,23)        -54.0605         estimate D2E/DX2                !
 ! D55   D(21,10,11,24)         63.4712         estimate D2E/DX2                !
 ! D56   D(22,10,11,12)         67.4037         estimate D2E/DX2                !
 ! D57   D(22,10,11,23)       -171.965          estimate D2E/DX2                !
 ! D58   D(22,10,11,24)        -54.4333         estimate D2E/DX2                !
 ! D59   D(10,11,12,13)         56.676          estimate D2E/DX2                !
 ! D60   D(10,11,12,25)        177.4952         estimate D2E/DX2                !
 ! D61   D(10,11,12,26)        -64.7413         estimate D2E/DX2                !
 ! D62   D(23,11,12,13)        -63.8117         estimate D2E/DX2                !
 ! D63   D(23,11,12,25)         57.0076         estimate D2E/DX2                !
 ! D64   D(23,11,12,26)        174.7711         estimate D2E/DX2                !
 ! D65   D(24,11,12,13)        178.5797         estimate D2E/DX2                !
 ! D66   D(24,11,12,25)        -60.601          estimate D2E/DX2                !
 ! D67   D(24,11,12,26)         57.1625         estimate D2E/DX2                !
 ! D68   D(11,12,13,7)         -60.4838         estimate D2E/DX2                !
 ! D69   D(11,12,13,14)       -179.1479         estimate D2E/DX2                !
 ! D70   D(11,12,13,15)         62.1725         estimate D2E/DX2                !
 ! D71   D(25,12,13,7)         178.7027         estimate D2E/DX2                !
 ! D72   D(25,12,13,14)         60.0386         estimate D2E/DX2                !
 ! D73   D(25,12,13,15)        -58.6411         estimate D2E/DX2                !
 ! D74   D(26,12,13,7)          60.9019         estimate D2E/DX2                !
 ! D75   D(26,12,13,14)        -57.7622         estimate D2E/DX2                !
 ! D76   D(26,12,13,15)       -176.4419         estimate D2E/DX2                !
 ! D77   D(7,13,15,16)         -67.1605         Frozen                          !
 ! D78   D(12,13,15,16)        175.372          estimate D2E/DX2                !
 ! D79   D(14,13,15,16)         57.8645         estimate D2E/DX2                !
 ! D80   D(13,15,16,4)          11.7114         estimate D2E/DX2                !
 ! D81   D(13,15,16,27)       -169.0167         estimate D2E/DX2                !
 --------------------------------------------------------------------------------
 Trust Radius=3.00D-01 FncErr=1.00D-07 GrdErr=1.00D-07 EigMax=2.50D+02 EigMin=1.00D-04
 Number of steps in this run=     20 maximum allowed number of steps=    162.
 GradGradGradGradGradGradGradGradGradGradGradGradGradGradGradGradGradGrad

                          Input orientation:                          
 ---------------------------------------------------------------------
 Center     Atomic      Atomic             Coordinates (Angstroms)
 Number     Number       Type             X           Y           Z
 ---------------------------------------------------------------------
      1          8           0       -3.624380   -1.431300   -0.109330
      2          7           0       -3.249410   -0.264720   -0.004680
      3          8           0       -4.014400    0.686330    0.160310
      4          6           0       -1.746500    0.003580   -0.049470
      5          6           0       -1.344720    1.337440    0.079520
      6          7           0       -0.091530    1.742730    0.455460
      7          6           0        1.192330    0.982510    0.396170
      8          1           0        1.863330    1.471540    1.149250
      9          6           0        1.939120    1.058320   -0.958920
     10          6           0        3.356710    0.477540   -0.795580
     11          6           0        3.309970   -0.947420   -0.221460
     12          6           0        2.477810   -1.004920    1.077770
     13          6           0        1.034900   -0.475080    0.854230
     14          1           0        0.495960   -0.529180    1.829220
     15          7           0        0.371840   -1.340230   -0.125100
     16          6           0       -0.875320   -1.147140   -0.405220
     17          1           0       -2.117640    2.122800    0.070070
     18          1           0        0.152510    2.736020    0.462060
     19          1           0        1.383160    0.489330   -1.734180
     20          1           0        2.013530    2.113980   -1.296100
     21          1           0        3.879270    0.470930   -1.777130
     22          1           0        3.938730    1.124530   -0.101870
     23          1           0        2.857460   -1.628150   -0.977500
     24          1           0        4.342560   -1.308450   -0.022380
     25          1           0        2.430340   -2.056730    1.435790
     26          1           0        2.977280   -0.401860    1.864690
     27          1           0       -1.390910   -1.918410   -0.997630
 ---------------------------------------------------------------------
                    Distance matrix (angstroms):
                    1          2          3          4          5
     1  O    0.000000
     2  N    1.229822   0.000000
     3  O    2.170064   1.231636   0.000000
     4  C    2.364085   1.527328   2.377714   0.000000
     5  C    3.591439   2.490351   2.749120   1.399017   0.000000
     6  N    4.782728   3.770118   4.073328   2.453268   1.369699
     7  C    5.411350   4.630909   5.220478   3.129476   2.581253
     8  H    6.334466   5.521437   6.011844   4.077096   3.384360
     9  C    6.154067   5.438920   6.069222   3.939971   3.455412
    10  C    7.269816   6.694572   7.435764   5.179196   4.858876
    11  C    6.952116   6.598374   7.514072   5.147997   5.193969
    12  C    6.231190   5.875427   6.771326   4.486930   4.592917
    13  C    4.853009   4.374619   5.227411   2.963440   3.089983
    14  H    4.642090   4.178627   4.960451   2.973539   3.151797
    15  N    3.997289   3.779507   4.840197   2.509763   3.187219
    16  C    2.779502   2.564254   3.679030   1.486496   2.574577
    17  H    3.864463   2.643245   2.381027   2.154792   1.101946
    18  H    5.653135   4.560191   4.653539   3.366620   2.084241
    19  H    5.603964   5.002046   5.723771   3.587335   3.383804
    20  H    6.764870   5.918151   6.363588   4.488396   3.711225
    21  H    7.918636   7.382468   8.130812   5.903602   5.611422
    22  H    7.983292   7.321804   7.969507   5.794921   5.290848
    23  H    6.542684   6.332391   7.339883   4.971944   5.250746
    24  H    7.968362   7.663400   8.593678   6.228869   6.273458
    25  H    6.279984   6.127464   7.119403   4.888442   5.254611
    26  H    6.966952   6.502693   7.278232   5.112972   4.989156
    27  H    2.452497   2.678556   3.874041   2.172440   3.429715
                    6          7          8          9         10
     6  N    0.000000
     7  C    1.493233   0.000000
     8  H    2.091977   1.120946   0.000000
     9  C    2.567572   1.549100   2.149622   0.000000
    10  C    3.880228   2.521865   2.645862   1.540632   0.000000
    11  C    4.389229   2.930955   3.134163   2.538911   1.536981
    12  C    3.812920   2.463111   2.552557   2.948771   2.545504
    13  C    2.519235   1.535960   2.136039   2.540953   3.003358
    14  H    2.719179   2.196308   2.516931   3.518038   4.010854
    15  N    3.171183   2.517945   3.428493   2.984068   3.558550
    16  C    3.115517   3.074542   4.095615   3.618247   4.549950
    17  H    2.097165   3.516035   4.175750   4.318477   5.781413
    18  H    1.022851   2.039697   2.235631   2.832991   4.116951
    19  H    2.922370   2.195002   3.083743   1.110797   2.185408
    20  H    2.763524   2.195079   2.532790   1.110696   2.175451
    21  H    4.729607   3.493507   3.691739   2.186018   1.112004
    22  H    4.115311   2.794803   2.448061   2.176547   1.112914
    23  H    4.702419   3.387502   3.888372   2.839157   2.171699
    24  H    5.403627   3.917605   3.904823   3.500747   2.181628
    25  H    4.664415   3.442449   3.585010   3.959731   3.501385
    26  H    4.000349   2.694268   2.293985   3.344051   2.827428
    27  H    4.147747   4.126881   5.166327   4.466712   5.321776
                   11         12         13         14         15
    11  C    0.000000
    12  C    1.543954   0.000000
    13  C    2.560499   1.553284   0.000000
    14  H    3.506974   2.172265   1.115342   0.000000
    15  N    2.965838   2.448354   1.465340   2.119569   0.000000
    16  C    4.194080   3.669192   2.384705   2.693512   1.292733
    17  H    6.242611   5.649447   4.159615   4.118071   4.269447
    18  H    4.899437   4.447556   3.353144   3.556489   4.124158
    19  H    2.839924   3.367210   2.784105   3.810814   2.638029
    20  H    3.493963   3.946942   3.504978   4.365425   3.999744
    21  H    2.180809   3.506091   3.988663   5.045074   4.279202
    22  H    2.168552   2.839083   3.450378   4.279782   4.335699
    23  H    1.113443   2.180982   2.829581   3.829111   2.643443
    24  H    1.111853   2.186265   3.521870   4.339587   3.972176
    25  H    2.179632   1.112086   2.187940   2.496001   2.680890
    26  H    2.181820   1.110133   2.190715   2.484838   3.410003
    27  H    4.862462   4.484277   3.375965   3.671692   2.050095
                   16         17         18         19         20
    16  C    0.000000
    17  H    3.530123   0.000000
    18  H    4.109445   2.383962   0.000000
    19  H    3.089482   4.263701   3.374253   0.000000
    20  H    4.446799   4.351214   2.634664   1.796877   0.000000
    21  H    5.206382   6.488740   4.902382   2.496547   2.532191
    22  H    5.331752   6.140499   4.153358   3.098202   2.472163
    23  H    3.806904   6.318121   5.332454   2.688837   3.849320
    24  H    5.234392   7.315477   5.843709   3.862683   4.331255
    25  H    3.891537   6.325961   5.395101   4.198538   5.003177
    26  H    4.533262   5.962615   4.448931   4.035753   4.153174
    27  H    1.100745   4.242582   5.116303   3.746356   5.285780
                   21         22         23         24         25
    21  H    0.000000
    22  H    1.799229   0.000000
    23  H    2.467720   3.084335   0.000000
    24  H    2.541649   2.467547   1.794431   0.000000
    25  H    4.337202   3.841882   2.487987   2.518485   0.000000
    26  H    3.852039   2.668635   3.097771   2.499386   1.794908
    27  H    5.838781   6.202172   4.258322   5.847721   4.532396
                   26         27
    26  H    0.000000
    27  H    5.438188   0.000000
 Symmetry turned off by external request.
 Stoichiometry    C9H13N3O2
 Framework group  C1[X(C9H13N3O2)]
 Deg. of freedom    75
 Full point group                 C1      NOp   1
 Rotational constants (GHZ):           1.6718511           0.4025345           0.3561786
 Standard basis: 6-31G(d) (6D, 7F)
   236 basis functions,   444 primitive gaussians,   236 cartesian basis functions
    52 alpha electrons       52 beta electrons
       nuclear repulsion energy       918.0112692640 Hartrees.
 NAtoms=   27 NActive=   27 NUniq=   27 SFac= 1.00D+00 NAtFMM=   60 NAOKFM=F Big=F
 Integral buffers will be    131072 words long.
 Raffenetti 1 integral format.
 Two-electron integral symmetry is turned off.
 One-electron integrals computed using PRISM.
 NBasis=   236 RedAO= T EigKep=  1.33D-03  NBF=   236
 NBsUse=   236 1.00D-06 EigRej= -1.00D+00 NBFU=   236
 ExpMin= 1.61D-01 ExpMax= 5.48D+03 ExpMxC= 8.25D+02 IAcc=3 IRadAn=         5 AccDes= 0.00D+00
 Harris functional with IExCor=  205 and IRadAn=       5 diagonalized for initial guess.
 HarFok:  IExCor=  205 AccDes= 0.00D+00 IRadAn=         5 IDoV= 1 UseB2=F ITyADJ=14
 ICtDFT=  3500011 ScaDFX=  1.000000  1.000000  1.000000  1.000000
 FoFCou: FMM=F IPFlag=           0 FMFlag=      100000 FMFlg1=           0
         NFxFlg=           0 DoJE=T BraDBF=F KetDBF=T FulRan=T
         wScrn=  0.000000 ICntrl=       500 IOpCl=  0 I1Cent=   200000004 NGrid=           0
         NMat0=    1 NMatS0=      1 NMatT0=    0 NMatD0=    1 NMtDS0=    0 NMtDT0=    0
 Symmetry not used in FoFCou.
 Keep R1 ints in memory in canonical form, NReq=397720213.
 Requested convergence on RMS density matrix=1.00D-08 within 128 cycles.
 Requested convergence on MAX density matrix=1.00D-06.
 Requested convergence on             energy=1.00D-06.
 No special actions if energy rises.
 SCF Done:  E(RHF) =  -661.277835925     A.U. after   16 cycles
            NFock= 16  Conv=0.54D-08     -V/T= 2.0036
 ExpMin= 1.61D-01 ExpMax= 5.48D+03 ExpMxC= 8.25D+02 IAcc=3 IRadAn=         5 AccDes= 0.00D+00
 HarFok:  IExCor=  205 AccDes= 0.00D+00 IRadAn=         5 IDoV=-2 UseB2=F ITyADJ=14
 ICtDFT= 12500011 ScaDFX=  1.000000  1.000000  1.000000  1.000000
 Range of M.O.s used for correlation:    15   236
 NBasis=   236 NAE=    52 NBE=    52 NFC=    14 NFV=     0
 NROrb=    222 NOA=    38 NOB=    38 NVA=   184 NVB=   184
 Fully direct method using O(ONN) memory.
 JobTyp=1 Pass  1:  I=  15 to  52 NPSUse=  4 ParTrn=T ParDer=T DoDerP=T.
 Spin components of T(2) and E(2):
     alpha-alpha T2 =       0.9208826288D-01 E2=     -0.2719488446D+00
     alpha-beta  T2 =       0.4998608320D+00 E2=     -0.1494070139D+01
     beta-beta   T2 =       0.9208826288D-01 E2=     -0.2719488446D+00
 ANorm=    0.1297704650D+01
 E2 =    -0.2037967828D+01 EUMP2 =    -0.66331580375354D+03
          IDoAtm=111111111111111111111111111
          Differentiating once with respect to electric field.
                with respect to dipole field.
          Differentiating once with respect to nuclear coordinates.
 Keep R1 ints in memory in canonical form, NReq=397723379.
          There are     1 degrees of freedom in the 1st order CPHF.  IDoFFX=0 NUNeed=     1.
 LinEq1:  Iter=  0 NonCon=     1 RMS=4.64D-03 Max=1.18D-01 NDo=     1
 AX will form     1 AO Fock derivatives at one time.
 LinEq1:  Iter=  1 NonCon=     1 RMS=1.58D-03 Max=3.10D-02 NDo=     1
 LinEq1:  Iter=  2 NonCon=     1 RMS=6.44D-04 Max=1.89D-02 NDo=     1
 LinEq1:  Iter=  3 NonCon=     1 RMS=2.97D-04 Max=1.01D-02 NDo=     1
 LinEq1:  Iter=  4 NonCon=     1 RMS=9.15D-05 Max=2.27D-03 NDo=     1
 LinEq1:  Iter=  5 NonCon=     1 RMS=3.80D-05 Max=1.94D-03 NDo=     1
 LinEq1:  Iter=  6 NonCon=     1 RMS=1.54D-05 Max=5.48D-04 NDo=     1
 LinEq1:  Iter=  7 NonCon=     1 RMS=5.96D-06 Max=9.40D-05 NDo=     1
 LinEq1:  Iter=  8 NonCon=     1 RMS=2.32D-06 Max=5.45D-05 NDo=     1
 LinEq1:  Iter=  9 NonCon=     1 RMS=8.52D-07 Max=2.44D-05 NDo=     1
 LinEq1:  Iter= 10 NonCon=     1 RMS=4.15D-07 Max=1.44D-05 NDo=     1
 LinEq1:  Iter= 11 NonCon=     1 RMS=1.53D-07 Max=5.65D-06 NDo=     1
 LinEq1:  Iter= 12 NonCon=     1 RMS=5.42D-08 Max=8.17D-07 NDo=     1
 LinEq1:  Iter= 13 NonCon=     1 RMS=1.77D-08 Max=3.05D-07 NDo=     1
 LinEq1:  Iter= 14 NonCon=     1 RMS=5.61D-09 Max=1.26D-07 NDo=     1
 LinEq1:  Iter= 15 NonCon=     1 RMS=2.05D-09 Max=5.74D-08 NDo=     1
 LinEq1:  Iter= 16 NonCon=     1 RMS=7.14D-10 Max=1.01D-08 NDo=     1
 LinEq1:  Iter= 17 NonCon=     1 RMS=2.27D-10 Max=3.73D-09 NDo=     1
 LinEq1:  Iter= 18 NonCon=     0 RMS=7.50D-11 Max=7.41D-10 NDo=     1
 Linear equations converged to 1.000D-10 1.000D-09 after    18 iterations.
 End of Minotr F.D. properties file   721 does not exist.
 End of Minotr F.D. properties file   722 does not exist.
 End of Minotr F.D. properties file   788 does not exist.

 **********************************************************************

            Population analysis using the SCF Density.

 **********************************************************************

 Alpha  occ. eigenvalues --  -20.59592 -20.59183 -15.85083 -15.63946 -15.56502
 Alpha  occ. eigenvalues --  -11.36017 -11.30409 -11.30223 -11.29763 -11.27546
 Alpha  occ. eigenvalues --  -11.24754 -11.23957 -11.23335 -11.22857  -1.58276
 Alpha  occ. eigenvalues --   -1.37784  -1.28987  -1.22620  -1.13315  -1.08351
 Alpha  occ. eigenvalues --   -1.01790  -1.00708  -0.93676  -0.88917  -0.84975
 Alpha  occ. eigenvalues --   -0.81527  -0.77855  -0.77039  -0.74267  -0.71409
 Alpha  occ. eigenvalues --   -0.70070  -0.69654  -0.67278  -0.64366  -0.63329
 Alpha  occ. eigenvalues --   -0.62159  -0.59747  -0.57139  -0.56757  -0.54764
 Alpha  occ. eigenvalues --   -0.54259  -0.50573  -0.49682  -0.48310  -0.47942
 Alpha  occ. eigenvalues --   -0.47576  -0.46227  -0.45621  -0.43862  -0.41868
 Alpha  occ. eigenvalues --   -0.39633  -0.33609
 Alpha virt. eigenvalues --    0.07445   0.11979   0.17351   0.20967   0.22885
 Alpha virt. eigenvalues --    0.24214   0.26637   0.27918   0.28476   0.28825
 Alpha virt. eigenvalues --    0.30187   0.31035   0.31792   0.32371   0.33254
 Alpha virt. eigenvalues --    0.33876   0.34506   0.35829   0.37385   0.38813
 Alpha virt. eigenvalues --    0.40278   0.41507   0.44342   0.45100   0.45507
 Alpha virt. eigenvalues --    0.47039   0.49667   0.52710   0.56460   0.58863
 Alpha virt. eigenvalues --    0.63320   0.68377   0.69426   0.72276   0.73970
 Alpha virt. eigenvalues --    0.74906   0.75791   0.75932   0.78063   0.78374
 Alpha virt. eigenvalues --    0.80432   0.83766   0.84326   0.85663   0.87575
 Alpha virt. eigenvalues --    0.88566   0.89550   0.90498   0.92022   0.93997
 Alpha virt. eigenvalues --    0.94946   0.97169   0.98629   1.00604   1.02111
 Alpha virt. eigenvalues --    1.02723   1.05024   1.06259   1.06943   1.08274
 Alpha virt. eigenvalues --    1.09708   1.10489   1.11327   1.12568   1.13057
 Alpha virt. eigenvalues --    1.13519   1.13933   1.15286   1.15729   1.17058
 Alpha virt. eigenvalues --    1.17488   1.19485   1.20654   1.21690   1.22585
 Alpha virt. eigenvalues --    1.24177   1.25065   1.25623   1.26632   1.27859
 Alpha virt. eigenvalues --    1.29282   1.30922   1.33643   1.37213   1.39772
 Alpha virt. eigenvalues --    1.41054   1.43457   1.48478   1.49202   1.53760
 Alpha virt. eigenvalues --    1.55727   1.56669   1.60545   1.61750   1.67682
 Alpha virt. eigenvalues --    1.68070   1.69426   1.71656   1.73722   1.75924
 Alpha virt. eigenvalues --    1.78112   1.81167   1.84903   1.88132   1.91399
 Alpha virt. eigenvalues --    1.93877   1.96172   1.97871   1.99257   1.99742
 Alpha virt. eigenvalues --    2.03105   2.03505   2.06720   2.09182   2.11690
 Alpha virt. eigenvalues --    2.12175   2.13037   2.17231   2.18493   2.19116
 Alpha virt. eigenvalues --    2.20545   2.22402   2.24001   2.25145   2.26285
 Alpha virt. eigenvalues --    2.29963   2.32026   2.32911   2.35942   2.36090
 Alpha virt. eigenvalues --    2.39892   2.40414   2.42673   2.43865   2.47277
 Alpha virt. eigenvalues --    2.48960   2.50458   2.50920   2.55828   2.58225
 Alpha virt. eigenvalues --    2.60644   2.63156   2.66577   2.68103   2.69246
 Alpha virt. eigenvalues --    2.70215   2.70688   2.74401   2.77335   2.81230
 Alpha virt. eigenvalues --    2.83251   2.85336   2.91126   2.91340   2.94641
 Alpha virt. eigenvalues --    2.96802   2.98187   3.01590   3.04462   3.05561
 Alpha virt. eigenvalues --    3.07916   3.14473   3.17571   3.22665   3.26962
 Alpha virt. eigenvalues --    3.32075   3.33423   3.37245   3.42746   3.58270
 Alpha virt. eigenvalues --    4.10399   4.23653   4.30423   4.34822   4.42642
 Alpha virt. eigenvalues --    4.52118   4.59347   4.61553   4.70188   4.77940
 Alpha virt. eigenvalues --    4.94830   4.99254   5.02493   5.10658
          Condensed to atoms (all electrons):
               1          2          3          4          5          6
     1  O    8.301839   0.312916  -0.089282  -0.079316   0.003487  -0.000011
     2  N    0.312916   5.682324   0.308014   0.268456  -0.045076   0.000948
     3  O   -0.089282   0.308014   8.334520  -0.085953   0.005568   0.000352
     4  C   -0.079316   0.268456  -0.085953   5.253519   0.565108  -0.058479
     5  C    0.003487  -0.045076   0.005568   0.565108   4.687717   0.310902
     6  N   -0.000011   0.000948   0.000352  -0.058479   0.310902   7.149788
     7  C    0.000003  -0.000079   0.000002   0.003965  -0.029873   0.210437
     8  H   -0.000000   0.000001  -0.000000  -0.000290   0.003609  -0.045867
     9  C   -0.000000  -0.000002   0.000000   0.000549  -0.000299  -0.058216
    10  C   -0.000000   0.000000  -0.000000  -0.000025  -0.000011   0.003414
    11  C   -0.000000  -0.000000  -0.000000  -0.000012   0.000013  -0.000159
    12  C   -0.000000   0.000001  -0.000000  -0.000155  -0.000179   0.003640
    13  C   -0.000021  -0.000027  -0.000003  -0.008968   0.000432  -0.050556
    14  H   -0.000001  -0.000076   0.000000   0.002698   0.003083  -0.005157
    15  N    0.000183   0.001697  -0.000013  -0.063792  -0.002266   0.000868
    16  C    0.003462  -0.028048   0.002150   0.316635  -0.040379  -0.000492
    17  H    0.000145  -0.004826   0.012688  -0.025676   0.376135  -0.034122
    18  H    0.000000  -0.000039   0.000006   0.002189  -0.025288   0.328645
    19  H    0.000000  -0.000002   0.000000  -0.001003   0.001439  -0.000073
    20  H    0.000000  -0.000000   0.000000  -0.000006   0.000048  -0.000750
    21  H   -0.000000  -0.000000  -0.000000   0.000001   0.000000  -0.000063
    22  H   -0.000000   0.000000  -0.000000  -0.000000  -0.000001  -0.000089
    23  H    0.000000  -0.000000   0.000000   0.000024  -0.000001  -0.000023
    24  H    0.000000   0.000000   0.000000   0.000000  -0.000000   0.000005
    25  H    0.000000  -0.000000   0.000000   0.000018   0.000000  -0.000072
    26  H    0.000000  -0.000000   0.000000   0.000005   0.000001  -0.000069
    27  H    0.005738  -0.000756   0.000017  -0.068254   0.001783   0.000012
               7          8          9         10         11         12
     1  O    0.000003  -0.000000  -0.000000  -0.000000  -0.000000  -0.000000
     2  N   -0.000079   0.000001  -0.000002   0.000000  -0.000000   0.000001
     3  O    0.000002  -0.000000   0.000000  -0.000000  -0.000000  -0.000000
     4  C    0.003965  -0.000290   0.000549  -0.000025  -0.000012  -0.000155
     5  C   -0.029873   0.003609  -0.000299  -0.000011   0.000013  -0.000179
     6  N    0.210437  -0.045867  -0.058216   0.003414  -0.000159   0.003640
     7  C    5.034732   0.413121   0.343110  -0.049338  -0.007911  -0.064499
     8  H    0.413121   0.541102  -0.057838   0.001007  -0.000288  -0.002912
     9  C    0.343110  -0.057838   5.178474   0.318514  -0.053312  -0.005732
    10  C   -0.049338   0.001007   0.318514   5.126546   0.332579  -0.060431
    11  C   -0.007911  -0.000288  -0.053312   0.332579   5.124945   0.330031
    12  C   -0.064499  -0.002912  -0.005732  -0.060431   0.330031   5.139611
    13  C    0.322728  -0.038506  -0.055315  -0.000856  -0.047684   0.367691
    14  H   -0.040294  -0.001017   0.003820  -0.000394   0.003980  -0.041078
    15  N   -0.056851   0.003796  -0.011744   0.001227  -0.007569  -0.074391
    16  C   -0.002850   0.000055  -0.000819  -0.000029  -0.000017   0.002550
    17  H    0.001487  -0.000022  -0.000083   0.000001   0.000000   0.000001
    18  H   -0.030694  -0.003610   0.000670  -0.000095   0.000010  -0.000148
    19  H   -0.035776   0.003998   0.387268  -0.032742  -0.002200   0.000583
    20  H   -0.042282  -0.001860   0.397059  -0.036922   0.004126  -0.000381
    21  H    0.004074  -0.000075  -0.035791   0.399911  -0.035769   0.004232
    22  H   -0.004411   0.003526  -0.045790   0.396058  -0.045579  -0.001218
    23  H    0.000449   0.000036  -0.002031  -0.040121   0.396629  -0.036585
    24  H   -0.000148  -0.000105   0.004420  -0.038540   0.400275  -0.037842
    25  H    0.005060  -0.000010  -0.000381   0.004105  -0.033802   0.395200
    26  H   -0.004497   0.001553   0.001095  -0.002456  -0.042504   0.394561
    27  H   -0.000416   0.000009  -0.000063   0.000005   0.000005  -0.000021
              13         14         15         16         17         18
     1  O   -0.000021  -0.000001   0.000183   0.003462   0.000145   0.000000
     2  N   -0.000027  -0.000076   0.001697  -0.028048  -0.004826  -0.000039
     3  O   -0.000003   0.000000  -0.000013   0.002150   0.012688   0.000006
     4  C   -0.008968   0.002698  -0.063792   0.316635  -0.025676   0.002189
     5  C    0.000432   0.003083  -0.002266  -0.040379   0.376135  -0.025288
     6  N   -0.050556  -0.005157   0.000868  -0.000492  -0.034122   0.328645
     7  C    0.322728  -0.040294  -0.056851  -0.002850   0.001487  -0.030694
     8  H   -0.038506  -0.001017   0.003796   0.000055  -0.000022  -0.003610
     9  C   -0.055315   0.003820  -0.011744  -0.000819  -0.000083   0.000670
    10  C   -0.000856  -0.000394   0.001227  -0.000029   0.000001  -0.000095
    11  C   -0.047684   0.003980  -0.007569  -0.000017   0.000000   0.000010
    12  C    0.367691  -0.041078  -0.074391   0.002550   0.000001  -0.000148
    13  C    5.021537   0.405058   0.242809  -0.069163  -0.000051   0.004039
    14  H    0.405058   0.514595  -0.035193  -0.004770   0.000045  -0.000025
    15  N    0.242809  -0.035193   6.941349   0.587518  -0.000040  -0.000128
    16  C   -0.069163  -0.004770   0.587518   4.702706   0.001895  -0.000213
    17  H   -0.000051   0.000045  -0.000040   0.001895   0.387146  -0.002407
    18  H    0.004039  -0.000025  -0.000128  -0.000213  -0.002407   0.329635
    19  H   -0.005734   0.000062   0.006462   0.002653   0.000019  -0.000115
    20  H    0.003941  -0.000050   0.000075  -0.000039  -0.000006   0.002291
    21  H   -0.000416   0.000008  -0.000034   0.000002  -0.000000  -0.000000
    22  H    0.000332  -0.000043   0.000002  -0.000001   0.000000   0.000003
    23  H   -0.005906   0.000009   0.006912   0.000043   0.000000   0.000000
    24  H    0.004147  -0.000058   0.000039   0.000005   0.000000  -0.000000
    25  H   -0.034175  -0.002686   0.000915  -0.000064  -0.000000   0.000003
    26  H   -0.045059  -0.000879   0.004193  -0.000052   0.000000  -0.000001
    27  H    0.004937  -0.000167  -0.040114   0.403648  -0.000061   0.000001
              19         20         21         22         23         24
     1  O    0.000000   0.000000  -0.000000  -0.000000   0.000000   0.000000
     2  N   -0.000002  -0.000000  -0.000000   0.000000  -0.000000   0.000000
     3  O    0.000000   0.000000  -0.000000  -0.000000   0.000000   0.000000
     4  C   -0.001003  -0.000006   0.000001  -0.000000   0.000024   0.000000
     5  C    0.001439   0.000048   0.000000  -0.000001  -0.000001  -0.000000
     6  N   -0.000073  -0.000750  -0.000063  -0.000089  -0.000023   0.000005
     7  C   -0.035776  -0.042282   0.004074  -0.004411   0.000449  -0.000148
     8  H    0.003998  -0.001860  -0.000075   0.003526   0.000036  -0.000105
     9  C    0.387268   0.397059  -0.035791  -0.045790  -0.002031   0.004420
    10  C   -0.032742  -0.036922   0.399911   0.396058  -0.040121  -0.038540
    11  C   -0.002200   0.004126  -0.035769  -0.045579   0.396629   0.400275
    12  C    0.000583  -0.000381   0.004232  -0.001218  -0.036585  -0.037842
    13  C   -0.005734   0.003941  -0.000416   0.000332  -0.005906   0.004147
    14  H    0.000062  -0.000050   0.000008  -0.000043   0.000009  -0.000058
    15  N    0.006462   0.000075  -0.000034   0.000002   0.006912   0.000039
    16  C    0.002653  -0.000039   0.000002  -0.000001   0.000043   0.000005
    17  H    0.000019  -0.000006  -0.000000   0.000000   0.000000   0.000000
    18  H   -0.000115   0.002291  -0.000000   0.000003   0.000000  -0.000000
    19  H    0.507654  -0.024045  -0.002605   0.003766   0.001661  -0.000072
    20  H   -0.024045   0.548544  -0.002666  -0.002955  -0.000049  -0.000090
    21  H   -0.002605  -0.002666   0.525953  -0.024682  -0.002812  -0.002076
    22  H    0.003766  -0.002955  -0.024682   0.569045   0.004059  -0.003585
    23  H    0.001661  -0.000049  -0.002812   0.004059   0.509343  -0.024953
    24  H   -0.000072  -0.000090  -0.002076  -0.003585  -0.024953   0.541101
    25  H   -0.000028   0.000011  -0.000086  -0.000083  -0.002080  -0.002402
    26  H    0.000022  -0.000035  -0.000073   0.002469   0.003830  -0.002755
    27  H    0.000080   0.000000  -0.000000   0.000000  -0.000021  -0.000000
              25         26         27
     1  O    0.000000   0.000000   0.005738
     2  N   -0.000000  -0.000000  -0.000756
     3  O    0.000000   0.000000   0.000017
     4  C    0.000018   0.000005  -0.068254
     5  C    0.000000   0.000001   0.001783
     6  N   -0.000072  -0.000069   0.000012
     7  C    0.005060  -0.004497  -0.000416
     8  H   -0.000010   0.001553   0.000009
     9  C   -0.000381   0.001095  -0.000063
    10  C    0.004105  -0.002456   0.000005
    11  C   -0.033802  -0.042504   0.000005
    12  C    0.395200   0.394561  -0.000021
    13  C   -0.034175  -0.045059   0.004937
    14  H   -0.002686  -0.000879  -0.000167
    15  N    0.000915   0.004193  -0.040114
    16  C   -0.000064  -0.000052   0.403648
    17  H   -0.000000   0.000000  -0.000061
    18  H    0.000003  -0.000001   0.000001
    19  H   -0.000028   0.000022   0.000080
    20  H    0.000011  -0.000035   0.000000
    21  H   -0.000086  -0.000073  -0.000000
    22  H   -0.000083   0.002469   0.000000
    23  H   -0.002080   0.003830  -0.000021
    24  H   -0.002402  -0.002755  -0.000000
    25  H    0.509563  -0.023114  -0.000012
    26  H   -0.023114   0.562869   0.000001
    27  H   -0.000012   0.000001   0.453242
 Mulliken charges:
               1
     1  O   -0.459141
     2  N    0.504573
     3  O   -0.488065
     4  C   -0.021237
     5  C    0.184048
     6  N   -0.754814
     7  C    0.030751
     8  H    0.180588
     9  C   -0.307563
    10  C   -0.321407
    11  C   -0.315787
    12  C   -0.312529
    13  C   -0.015208
    14  H    0.198530
    15  N   -0.505911
    16  C    0.123616
    17  H    0.287732
    18  H    0.395271
    19  H    0.188726
    20  H    0.156044
    21  H    0.172965
    22  H    0.149176
    23  H    0.191587
    24  H    0.162633
    25  H    0.184120
    26  H    0.150896
    27  H    0.240409
 Sum of Mulliken charges =  -0.00000
 Mulliken charges with hydrogens summed into heavy atoms:
               1
     1  O   -0.459141
     2  N    0.504573
     3  O   -0.488065
     4  C   -0.021237
     5  C    0.471780
     6  N   -0.359542
     7  C    0.211339
     9  C    0.037207
    10  C    0.000733
    11  C    0.038433
    12  C    0.022487
    13  C    0.183321
    15  N   -0.505911
    16  C    0.364025
 Electronic spatial extent (au):  <R**2>=           3115.9283
 Charge=              0.0000 electrons
 Dipole moment (field-independent basis, Debye):
    X=              5.5194    Y=              4.7216    Z=              0.1561  Tot=              7.2651
 Quadrupole moment (field-independent basis, Debye-Ang):
   XX=           -105.8198   YY=            -79.7114   ZZ=            -82.4218
   XY=             -1.6958   XZ=              2.5409   YZ=              0.0612
 Traceless Quadrupole moment (field-independent basis, Debye-Ang):
   XX=            -16.5022   YY=              9.6063   ZZ=              6.8959
   XY=             -1.6958   XZ=              2.5409   YZ=              0.0612
 Octapole moment (field-independent basis, Debye-Ang**2):
  XXX=            102.0398  YYY=             38.0923  ZZZ=             -6.3589  XYY=             -2.0515
  XXY=             11.5462  XXZ=             -4.7062  XZZ=             -7.4206  YZZ=             -2.5010
  YYZ=              1.1451  XYZ=              0.5578
 Hexadecapole moment (field-independent basis, Debye-Ang**3):
 XXXX=          -3545.8090 YYYY=           -622.1725 ZZZZ=           -295.7838 XXXY=            -36.4523
 XXXZ=             38.3310 YYYX=            -17.6827 YYYZ=             22.0510 ZZZX=             21.2253
 ZZZY=             13.1618 XXYY=           -655.0859 XXZZ=           -541.8386 YYZZ=           -163.9604
 XXYZ=              1.9572 YYXZ=             16.3237 ZZXY=              5.1382
 N-N= 9.180112692640D+02 E-N=-3.382074906559D+03  KE= 6.588785048925D+02
 Calling FoFJK, ICntrl=  10002127 FMM=F ISym2X=0 I1Cent= 0 IOpClX= 0 NMat=1 NMatS=1 NMatT=0.
 -------------------------------------------------------------------
 Center     Atomic                   Forces (Hartrees/Bohr)
 Number     Number              X              Y              Z
 -------------------------------------------------------------------
      1        8           0.002383160   -0.019269322   -0.001913813
      2        7           0.039983252    0.014126566   -0.009223515
      3        8          -0.005201585    0.016522757    0.002447324
      4        6          -0.005841786    0.006556837   -0.002477247
      5        6          -0.000092356   -0.018245896    0.018962290
      6        7           0.018842678   -0.001652360   -0.016157984
      7        6          -0.004771013    0.003929102    0.005278735
      8        1          -0.011534294   -0.001629023   -0.007596303
      9        6          -0.004042951    0.001107242   -0.002463371
     10        6           0.002672693   -0.001243468    0.000954451
     11        6          -0.000879107   -0.004581537   -0.002292107
     12        6           0.000684476   -0.008952618   -0.003224417
     13        6           0.009128979   -0.003130991    0.004215952
     14        1           0.001339231    0.004276739   -0.010218490
     15        7           0.000035787   -0.001430017    0.003292978
     16        6          -0.018396988    0.008097067    0.006725772
     17        1           0.006630970   -0.007607199    0.002883608
     18        1          -0.017027791   -0.001943008   -0.003495683
     19        1           0.003068732    0.005623144    0.007664315
     20        1          -0.003205055   -0.007623443    0.002633812
     21        1          -0.004248111    0.002299000    0.009671354
     22        1          -0.004073150   -0.003837573   -0.007365784
     23        1           0.004005677    0.006006318    0.009345283
     24        1          -0.009399100    0.002587873   -0.002016468
     25        1          -0.000869781    0.010637636   -0.002311276
     26        1          -0.004729423   -0.004681024   -0.004307325
     27        1           0.005536857    0.004057199    0.000987911
 -------------------------------------------------------------------
 Cartesian Forces:  Max     0.039983252 RMS     0.008843821

 GradGradGradGradGradGradGradGradGradGradGradGradGradGradGradGradGradGrad
 Berny optimization.
 FormGI is forming the generalized inverse of G from B-inverse, IUseBI=4.
 Internal  Forces:  Max     0.038824593 RMS     0.006918209
 Search for a local minimum.
 Step number   1 out of a maximum of   20
 All quantities printed in internal units (Hartrees-Bohrs-Radians)
 Mixed Optimization -- RFO/linear search
 Second derivative matrix not updated -- first step.
 ITU=  0
     Eigenvalues ---    0.00232   0.00773   0.01110   0.01177   0.01223
     Eigenvalues ---    0.01515   0.01540   0.01782   0.02016   0.02143
     Eigenvalues ---    0.02687   0.03669   0.04507   0.04695   0.04836
     Eigenvalues ---    0.05075   0.05138   0.05305   0.05865   0.06248
     Eigenvalues ---    0.07117   0.07692   0.07706   0.07835   0.07991
     Eigenvalues ---    0.08043   0.08050   0.10449   0.11646   0.12125
     Eigenvalues ---    0.12693   0.14148   0.15073   0.15763   0.15999
     Eigenvalues ---    0.19906   0.22049   0.22633   0.24789   0.25000
     Eigenvalues ---    0.25000   0.25371   0.26130   0.26652   0.27981
     Eigenvalues ---    0.28085   0.28472   0.29672   0.31468   0.31847
     Eigenvalues ---    0.32041   0.32238   0.32293   0.32380   0.32389
     Eigenvalues ---    0.32405   0.32516   0.32526   0.32586   0.33378
     Eigenvalues ---    0.33468   0.33600   0.35221   0.43886   0.44180
     Eigenvalues ---    0.49637   0.67120   0.90408   0.911601000.00000
     Eigenvalues --- 1000.000001000.000001000.000001000.000001000.00000
     Eigenvalues --- 1000.000001000.000001000.000001000.000001000.00000
     Eigenvalues --- 1000.000001000.000001000.000001000.000001000.00000
     Eigenvalues --- 1000.000001000.000001000.000001000.000001000.00000
     Eigenvalues --- 1000.000001000.000001000.000001000.000001000.00000
     Eigenvalues --- 1000.000001000.000001000.000001000.000001000.00000
     Eigenvalues --- 1000.000001000.000001000.000001000.000001000.00000
     Eigenvalues --- 1000.000001000.000001000.000001000.000001000.00000
     Eigenvalues --- 1000.000001000.000001000.000001000.000001000.00000
     Eigenvalues --- 1000.000001000.000001000.000001000.000001000.00000
     Eigenvalues --- 1000.000001000.000001000.000001000.000001000.00000
     Eigenvalues --- 1000.000001000.000001000.000001000.000001000.00000
     Eigenvalues --- 1000.000001000.000001000.000001000.000001000.00000
     Eigenvalues --- 1000.000001000.000001000.000001000.000001000.00000
     Eigenvalues --- 1000.000001000.000001000.000001000.000001000.00000
     Eigenvalues --- 1000.000001000.000001000.000001000.000001000.00000
     Eigenvalues --- 1000.000001000.000001000.000001000.000001000.00000
     Eigenvalues --- 1000.000001000.000001000.000001000.000001000.00000
     Eigenvalues --- 1000.00000
 RFO step:  Lambda=-2.55583437D-02 EMin= 2.32323407D-03
 Linear search not attempted -- first point.
 Iteration  1 RMS(Cart)=  0.06858661 RMS(Int)=  0.00188547
 Iteration  2 RMS(Cart)=  0.00273207 RMS(Int)=  0.00042846
 Iteration  3 RMS(Cart)=  0.00000630 RMS(Int)=  0.00042844
 Iteration  4 RMS(Cart)=  0.00000000 RMS(Int)=  0.00042844
 Iteration  1 RMS(Cart)=  0.00008726 RMS(Int)=  0.00007789
 Iteration  2 RMS(Cart)=  0.00004020 RMS(Int)=  0.00008613
 Iteration  3 RMS(Cart)=  0.00002353 RMS(Int)=  0.00009560
 Iteration  4 RMS(Cart)=  0.00001704 RMS(Int)=  0.00010221
 Iteration  5 RMS(Cart)=  0.00001342 RMS(Int)=  0.00010686
 Iteration  6 RMS(Cart)=  0.00001083 RMS(Int)=  0.00011032
 Iteration  7 RMS(Cart)=  0.00000882 RMS(Int)=  0.00011302
 Iteration  8 RMS(Cart)=  0.00000724 RMS(Int)=  0.00011519
 Iteration  9 RMS(Cart)=  0.00000598 RMS(Int)=  0.00011698
 Iteration 10 RMS(Cart)=  0.00000497 RMS(Int)=  0.00011847
 Iteration 11 RMS(Cart)=  0.00000415 RMS(Int)=  0.00011972
 Iteration 12 RMS(Cart)=  0.00000348 RMS(Int)=  0.00012079
 Iteration 13 RMS(Cart)=  0.00000293 RMS(Int)=  0.00012169
 Iteration 14 RMS(Cart)=  0.00000247 RMS(Int)=  0.00012245
 Iteration 15 RMS(Cart)=  0.00000208 RMS(Int)=  0.00012311
 Iteration 16 RMS(Cart)=  0.00000176 RMS(Int)=  0.00012366
 Iteration 17 RMS(Cart)=  0.00000149 RMS(Int)=  0.00012414
 Iteration 18 RMS(Cart)=  0.00000127 RMS(Int)=  0.00012454
 Iteration 19 RMS(Cart)=  0.00000107 RMS(Int)=  0.00012489
 Iteration 20 RMS(Cart)=  0.00000091 RMS(Int)=  0.00012519
 Variable       Old X    -DE/DX   Delta X   Delta X   Delta X     New X
                                 (Linear)    (Quad)   (Total)
    R1        2.32403   0.01771   0.00000   0.01890   0.01890   2.34293
    R2        2.32745   0.01632   0.00000   0.01755   0.01755   2.34501
    R3        2.88623  -0.03882   0.00000  -0.12047  -0.12047   2.76576
    R4        2.64376  -0.03150   0.00000  -0.06809  -0.06766   2.57609
    R5        2.80907  -0.02131   0.00000  -0.06229  -0.06171   2.74736
    R6        2.58836  -0.02352   0.00000  -0.04529  -0.04526   2.54309
    R7        2.08238  -0.01010   0.00000  -0.02803  -0.02803   2.05435
    R8        2.82180  -0.01829   0.00000  -0.04923  -0.04969   2.77211
    R9        1.93291  -0.00597   0.00000  -0.01286  -0.01286   1.92005
   R10        2.11828  -0.01272   0.00000  -0.03738  -0.03738   2.08090
   R11        2.92738  -0.01288   0.00000  -0.04223  -0.04223   2.88514
   R12        2.90254  -0.00185   0.00000  -0.00066  -0.00092   2.90162
   R13        2.91137  -0.00425   0.00000  -0.01406  -0.01409   2.89729
   R14        2.09910  -0.00977   0.00000  -0.02784  -0.02784   2.07126
   R15        2.09891  -0.00826   0.00000  -0.02354  -0.02354   2.07537
   R16        2.90447  -0.00164   0.00000  -0.00745  -0.00754   2.89694
   R17        2.10138  -0.01055   0.00000  -0.03018  -0.03018   2.07120
   R18        2.10310  -0.00895   0.00000  -0.02569  -0.02569   2.07741
   R19        2.91765  -0.00915   0.00000  -0.03008  -0.03008   2.88758
   R20        2.10410  -0.01165   0.00000  -0.03347  -0.03347   2.07063
   R21        2.10110  -0.00993   0.00000  -0.02840  -0.02840   2.07269
   R22        2.93528  -0.01095   0.00000  -0.03631  -0.03630   2.89898
   R23        2.10154  -0.01077   0.00000  -0.03082  -0.03082   2.07072
   R24        2.09785  -0.00772   0.00000  -0.02198  -0.02198   2.07587
   R25        2.10769  -0.00979   0.00000  -0.02829  -0.02829   2.07940
   R26        2.76909  -0.00523   0.00000  -0.00921  -0.00959   2.75950
   R27        2.44291  -0.00564   0.00000  -0.00776  -0.00752   2.43539
   R28        2.08011  -0.00597   0.00000  -0.01651  -0.01651   2.06360
    A1        2.15856   0.01122   0.00000   0.04112   0.04077   2.19933
    A2        2.05348  -0.00777   0.00000  -0.02782  -0.02816   2.02532
    A3        2.07085  -0.00346   0.00000  -0.01218  -0.01252   2.05832
    A4        2.03463  -0.00761   0.00000  -0.02980  -0.03216   2.00247
    A5        2.03502  -0.00239   0.00000  -0.01050  -0.01288   2.02214
    A6        2.20411   0.00970   0.00000   0.02547   0.02434   2.22845
    A7        2.17752   0.00802   0.00000   0.02888   0.02971   2.20723
    A8        2.06836  -0.00379   0.00000  -0.01337  -0.01391   2.05445
    A9        2.01886  -0.00337   0.00000  -0.01161  -0.01209   2.00677
   A10        2.24607  -0.00637   0.00000  -0.02454  -0.02484   2.22123
   A11        2.10297  -0.01236   0.00000  -0.07152  -0.07146   2.03152
   A12        1.86452   0.01905   0.00000   0.10002   0.10027   1.96479
   A13        1.83992  -0.00274   0.00000  -0.02053  -0.02040   1.81952
   A14        2.00899  -0.00030   0.00000  -0.02066  -0.02073   1.98826
   A15        1.96402   0.00140   0.00000   0.00859   0.00797   1.97199
   A16        1.85226   0.00293   0.00000   0.02417   0.02397   1.87623
   A17        1.84939   0.00167   0.00000   0.02811   0.02795   1.87735
   A18        1.93556  -0.00262   0.00000  -0.01407  -0.01370   1.92186
   A19        1.90963   0.00016   0.00000  -0.00453  -0.00463   1.90500
   A20        1.92215  -0.00055   0.00000  -0.01347  -0.01347   1.90868
   A21        1.92236  -0.00189   0.00000  -0.00680  -0.00682   1.91554
   A22        1.91923  -0.00061   0.00000   0.00406   0.00399   1.92323
   A23        1.90587   0.00327   0.00000   0.02568   0.02568   1.93155
   A24        1.88442  -0.00036   0.00000  -0.00453  -0.00477   1.87966
   A25        1.94027  -0.00080   0.00000   0.00625   0.00610   1.94637
   A26        1.91883  -0.00078   0.00000  -0.00740  -0.00741   1.91142
   A27        1.90513   0.00028   0.00000  -0.00322  -0.00327   1.90186
   A28        1.91611   0.00059   0.00000   0.00680   0.00686   1.92297
   A29        1.89868   0.00194   0.00000   0.01129   0.01133   1.91001
   A30        1.88378  -0.00121   0.00000  -0.01421  -0.01430   1.86948
   A31        1.94470   0.00144   0.00000   0.00702   0.00717   1.95187
   A32        1.90238   0.00009   0.00000   0.00522   0.00516   1.90754
   A33        1.91738   0.00044   0.00000   0.00477   0.00475   1.92213
   A34        1.90665  -0.00138   0.00000  -0.01491  -0.01496   1.89168
   A35        1.91537  -0.00071   0.00000   0.00007  -0.00004   1.91532
   A36        1.87601   0.00006   0.00000  -0.00262  -0.00265   1.87336
   A37        1.94644  -0.00369   0.00000  -0.02143  -0.02146   1.92498
   A38        1.90619   0.00240   0.00000   0.01493   0.01472   1.92090
   A39        1.91109   0.00191   0.00000   0.01606   0.01607   1.92716
   A40        1.90636   0.00075   0.00000  -0.00257  -0.00240   1.90396
   A41        1.91204  -0.00032   0.00000  -0.00304  -0.00296   1.90908
   A42        1.88051  -0.00096   0.00000  -0.00334  -0.00353   1.87698
   A43        1.84565   0.00552   0.00000   0.02434   0.02441   1.87007
   A44        1.93505  -0.00434   0.00000  -0.02704  -0.02745   1.90761
   A45        1.99035  -0.00086   0.00000   0.00382   0.00382   1.99417
   A46        1.88233   0.00197   0.00000   0.02862   0.02884   1.91117
   A47        1.89139  -0.00424   0.00000  -0.02971  -0.02962   1.86177
   A48        1.91446   0.00218   0.00000   0.00225   0.00243   1.91689
   A49        2.08653  -0.00430   0.00000  -0.01241  -0.01292   2.07361
   A50        2.25128  -0.00431   0.00000  -0.02388  -0.02353   2.22775
   A51        1.97871   0.00470   0.00000   0.02542   0.02457   2.00328
   A52        2.05313  -0.00043   0.00000  -0.00212  -0.00296   2.05017
    D1       -3.13522  -0.00029   0.00000  -0.10539  -0.10296   3.04500
    D2        0.14414   0.00103   0.00000   0.00000   0.00000   0.14414
    D3       -0.01903  -0.00081   0.00000  -0.05791  -0.05670  -0.07573
    D4       -3.02286   0.00052   0.00000   0.04748   0.04626  -2.97659
    D5        2.78756   0.00782   0.00000   0.12086   0.12158   2.90913
    D6       -0.13946   0.00338   0.00000   0.10022   0.10070  -0.03877
    D7       -0.50697   0.00506   0.00000   0.00000   0.00000  -0.50697
    D8        2.84920   0.00061   0.00000  -0.02064  -0.02088   2.82832
    D9       -2.72311  -0.00577   0.00000  -0.10524  -0.10580  -2.82891
   D10        0.43075  -0.00182   0.00000  -0.04727  -0.04811   0.38264
   D11        0.57145  -0.00261   0.00000   0.01713   0.01838   0.58983
   D12       -2.55788   0.00134   0.00000   0.07510   0.07606  -2.48181
   D13        0.36683  -0.00722   0.00000  -0.04978  -0.04962   0.31722
   D14        3.06209  -0.00192   0.00000  -0.01526  -0.01563   3.04646
   D15       -2.98389  -0.00299   0.00000  -0.03004  -0.02960  -3.01349
   D16       -0.28863   0.00231   0.00000   0.00448   0.00438  -0.28425
   D17       -2.74818   0.00063   0.00000   0.02144   0.02147  -2.72671
   D18        1.50031  -0.00100   0.00000   0.01650   0.01631   1.51663
   D19       -0.74034   0.00170   0.00000   0.04718   0.04666  -0.69368
   D20        0.79253   0.00145   0.00000   0.02154   0.02164   0.81417
   D21       -1.24216  -0.00017   0.00000   0.01659   0.01648  -1.22568
   D22        2.80037   0.00253   0.00000   0.04728   0.04683   2.84720
   D23        2.94628   0.00223   0.00000   0.02695   0.02671   2.97300
   D24       -1.22538   0.00123   0.00000   0.02058   0.02036  -1.20502
   D25        0.85114  -0.00073   0.00000   0.00237   0.00222   0.85336
   D26        0.91862   0.00383   0.00000   0.04766   0.04771   0.96633
   D27        3.03014   0.00283   0.00000   0.04128   0.04136   3.07149
   D28       -1.17652   0.00087   0.00000   0.02307   0.02321  -1.15331
   D29       -1.08214   0.00154   0.00000   0.00811   0.00817  -1.07397
   D30        1.02938   0.00054   0.00000   0.00173   0.00182   1.03120
   D31        3.10590  -0.00142   0.00000  -0.01648  -0.01632   3.08958
   D32       -2.89744  -0.00023   0.00000  -0.01828  -0.01816  -2.91561
   D33       -0.86173   0.00303   0.00000   0.01574   0.01552  -0.84620
   D34        1.30939   0.00181   0.00000   0.00000  -0.00001   1.30938
   D35       -0.89535  -0.00182   0.00000  -0.02193  -0.02180  -0.91715
   D36        1.14037   0.00145   0.00000   0.01209   0.01188   1.15226
   D37       -2.97170   0.00022   0.00000  -0.00365  -0.00365  -2.97535
   D38        1.10721   0.00127   0.00000   0.01516   0.01524   1.12245
   D39       -3.14026   0.00453   0.00000   0.04917   0.04893  -3.09133
   D40       -0.96914   0.00331   0.00000   0.03344   0.03339  -0.93575
   D41        0.95665   0.00111   0.00000   0.00000   0.00000   0.95665
   D42        3.08209   0.00079   0.00000   0.00772   0.00767   3.08976
   D43       -1.13787  -0.00098   0.00000  -0.01584  -0.01581  -1.15368
   D44       -1.15663   0.00208   0.00000   0.01699   0.01705  -1.13959
   D45        0.96881   0.00175   0.00000   0.02471   0.02471   0.99352
   D46        3.03203  -0.00001   0.00000   0.00115   0.00124   3.03327
   D47        3.06187   0.00090   0.00000   0.00470   0.00467   3.06654
   D48       -1.09588   0.00058   0.00000   0.01242   0.01234  -1.08354
   D49        0.96735  -0.00118   0.00000  -0.01114  -0.01114   0.95621
   D50       -0.92192  -0.00080   0.00000   0.00000   0.00000  -0.92192
   D51        1.18349  -0.00156   0.00000  -0.01070  -0.01072   1.17277
   D52       -3.04838  -0.00117   0.00000  -0.00806  -0.00811  -3.05649
   D53       -3.04895   0.00031   0.00000   0.00056   0.00058  -3.04836
   D54       -0.94353  -0.00044   0.00000  -0.01014  -0.01013  -0.95367
   D55        1.10778  -0.00006   0.00000  -0.00750  -0.00753   1.10025
   D56        1.17642   0.00030   0.00000   0.00719   0.00722   1.18364
   D57       -3.00136  -0.00045   0.00000  -0.00351  -0.00349  -3.00485
   D58       -0.95004  -0.00007   0.00000  -0.00087  -0.00089  -0.95093
   D59        0.98918  -0.00147   0.00000  -0.01048  -0.01056   0.97862
   D60        3.09788  -0.00129   0.00000  -0.01748  -0.01767   3.08021
   D61       -1.12995   0.00005   0.00000  -0.00349  -0.00348  -1.13343
   D62       -1.11372  -0.00159   0.00000  -0.01161  -0.01162  -1.12534
   D63        0.99497  -0.00141   0.00000  -0.01861  -0.01872   0.97625
   D64        3.05033  -0.00006   0.00000  -0.00462  -0.00453   3.04580
   D65        3.11680  -0.00044   0.00000   0.00029   0.00027   3.11707
   D66       -1.05769  -0.00026   0.00000  -0.00672  -0.00683  -1.06452
   D67        0.99767   0.00108   0.00000   0.00728   0.00736   1.00503
   D68       -1.05564   0.00033   0.00000  -0.00434  -0.00421  -1.05985
   D69       -3.12672   0.00152   0.00000   0.00016  -0.00022  -3.12694
   D70        1.08511   0.00017   0.00000  -0.00208  -0.00229   1.08283
   D71        3.11895  -0.00081   0.00000  -0.00756  -0.00735   3.11160
   D72        1.04787   0.00038   0.00000  -0.00306  -0.00336   1.04451
   D73       -1.02348  -0.00097   0.00000  -0.00530  -0.00543  -1.02891
   D74        1.06294   0.00010   0.00000  -0.00025   0.00001   1.06295
   D75       -1.00814   0.00129   0.00000   0.00426   0.00400  -1.00414
   D76       -3.07949  -0.00007   0.00000   0.00202   0.00194  -3.07756
   D77       -1.17217   0.00590   0.00000   0.00000  -0.00001  -1.17218
   D78        3.06082   0.00237   0.00000  -0.01272  -0.01275   3.04807
   D79        1.00993   0.00123   0.00000  -0.03123  -0.03154   0.97839
   D80        0.20440  -0.00111   0.00000  -0.00665  -0.00753   0.19688
   D81       -2.94990  -0.00518   0.00000  -0.06656  -0.06640  -3.01630
         Item               Value     Threshold  Converged?
 Maximum Force            0.038825     0.000450     NO 
 RMS     Force            0.006932     0.000300     NO 
 Maximum Displacement     0.309993     0.001800     NO 
 RMS     Displacement     0.069256     0.001200     NO 
 Predicted change in Energy=-1.486430D-02
 GradGradGradGradGradGradGradGradGradGradGradGradGradGradGradGradGradGrad

                          Input orientation:                          
 ---------------------------------------------------------------------
 Center     Atomic      Atomic             Coordinates (Angstroms)
 Number     Number       Type             X           Y           Z
 ---------------------------------------------------------------------
      1          8           0       -3.484630   -1.398414   -0.273371
      2          7           0       -3.118161   -0.234132   -0.055854
      3          8           0       -3.860411    0.750831    0.081285
      4          6           0       -1.672344   -0.018282    0.015418
      5          6           0       -1.295729    1.286218    0.137014
      6          7           0       -0.072508    1.737856    0.469862
      7          6           0        1.192539    0.997035    0.417418
      8          1           0        1.839948    1.514486    1.142449
      9          6           0        1.887345    1.053936   -0.940882
     10          6           0        3.294804    0.459927   -0.811096
     11          6           0        3.255676   -0.956112   -0.225119
     12          6           0        2.471652   -1.007358    1.085448
     13          6           0        1.053207   -0.460896    0.878606
     14          1           0        0.505668   -0.489767    1.832643
     15          7           0        0.403870   -1.337697   -0.091935
     16          6           0       -0.842724   -1.151414   -0.360612
     17          1           0       -2.078286    2.040806    0.132912
     18          1           0        0.062967    2.744153    0.432941
     19          1           0        1.302384    0.484615   -1.672351
     20          1           0        1.936262    2.094235   -1.289464
     21          1           0        3.779735    0.449099   -1.793955
     22          1           0        3.897826    1.108713   -0.159984
     23          1           0        2.775216   -1.631395   -0.941902
     24          1           0        4.275479   -1.325185   -0.061395
     25          1           0        2.408738   -2.040330    1.445636
     26          1           0        2.980414   -0.417120    1.859713
     27          1           0       -1.336937   -1.889818   -0.995435
 ---------------------------------------------------------------------
                    Distance matrix (angstroms):
                    1          2          3          4          5
     1  O    0.000000
     2  N    1.239825   0.000000
     3  O    2.210485   1.240924   0.000000
     4  C    2.296203   1.463577   2.320240   0.000000
     5  C    3.488116   2.381159   2.620561   1.363210   0.000000
     6  N    4.693737   3.666213   3.933627   2.418680   1.345747
     7  C    5.300120   4.507981   5.070099   3.065946   2.520661
     8  H    6.232228   5.392257   5.848362   3.994467   3.300830
     9  C    5.942871   5.243805   5.845802   3.838691   3.368646
    10  C    7.050058   6.494477   7.216514   5.058099   4.759692
    11  C    6.754975   6.416830   7.324359   5.022227   5.086695
    12  C    6.121814   5.757296   6.647901   4.392714   4.511449
    13  C    4.774721   4.280765   5.123246   2.893031   3.019911
    14  H    4.602545   4.094375   4.865078   2.875473   3.045375
    15  N    3.893204   3.691052   4.751426   2.462325   3.134642
    16  C    2.654862   2.472226   3.594475   1.453842   2.528813
    17  H    3.737794   2.508448   2.200607   2.102007   1.087113
    18  H    5.499562   4.385051   4.414736   3.288871   2.014746
    19  H    5.330896   4.761395   5.458990   3.456946   3.265970
    20  H    6.528179   5.700025   6.106154   4.380352   3.624017
    21  H    7.648299   7.146242   7.872700   5.763457   5.494520
    22  H    7.797384   7.144099   7.770233   5.685743   5.205067
    23  H    6.299753   6.121219   7.124146   4.826943   5.123389
    24  H    7.763349   7.473710   8.397792   6.090196   6.156066
    25  H    6.172426   6.005284   6.996733   4.773828   5.147960
    26  H    6.878211   6.394959   7.164063   5.020822   4.914717
    27  H    2.318500   2.607081   3.807923   2.153362   3.372142
                    6          7          8          9         10
     6  N    0.000000
     7  C    1.466939   0.000000
     8  H    2.039548   1.101165   0.000000
     9  C    2.509776   1.526752   2.134156   0.000000
    10  C    3.822663   2.493442   2.654249   1.533177   0.000000
    11  C    4.337888   2.912760   3.158858   2.534747   1.532993
    12  C    3.793139   2.469815   2.600383   2.948959   2.535228
    13  C    2.503761   1.535471   2.142593   2.510187   2.954279
    14  H    2.674652   2.164540   2.504735   3.461863   3.958605
    15  N    3.162528   2.516428   3.423590   2.939612   3.479389
    16  C    3.103354   3.059977   4.069760   3.557184   4.463014
    17  H    2.056321   3.445097   4.080286   4.225302   5.679826
    18  H    1.016046   2.080528   2.274455   2.841229   4.148505
    19  H    2.837256   2.154477   3.045112   1.096062   2.170739
    20  H    2.693955   2.161115   2.501917   1.098237   2.178402
    21  H    4.650327   3.447316   3.676995   2.162106   1.096033
    22  H    4.068916   2.768473   2.468976   2.157506   1.099320
    23  H    4.631897   3.355781   3.887906   2.828307   2.158868
    24  H    5.345040   3.889279   3.929985   3.483805   2.170345
    25  H    4.624220   3.429572   3.612777   3.942310   3.482706
    26  H    3.986971   2.697507   2.355043   3.346959   2.828652
    27  H    4.111678   4.090027   5.123712   4.366310   5.196952
                   11         12         13         14         15
    11  C    0.000000
    12  C    1.528039   0.000000
    13  C    2.512830   1.534077   0.000000
    14  H    3.466180   2.165939   1.100372   0.000000
    15  N    2.880302   2.402307   1.460263   2.105552   0.000000
    16  C    4.105286   3.618967   2.367917   2.658252   1.288753
    17  H    6.128691   5.558827   4.076864   3.996211   4.198325
    18  H    4.931369   4.505704   3.384011   3.551533   4.129553
    19  H    2.825867   3.346434   2.731933   3.724132   2.574075
    20  H    3.489742   3.942934   3.465402   4.297816   3.944674
    21  H    2.170370   3.481855   3.924873   4.975259   4.181624
    22  H    2.163355   2.839512   3.410894   4.246461   4.265827
    23  H    1.095731   2.142830   2.765797   3.761949   2.536135
    24  H    1.096822   2.161031   3.466069   4.300788   3.871750
    25  H    2.164314   1.095776   2.157221   2.485095   2.622464
    26  H    2.170899   1.098502   2.163010   2.475960   3.360799
    27  H    4.749451   4.428787   3.356581   3.654225   2.037537
                   16         17         18         19         20
    16  C    0.000000
    17  H    3.458388   0.000000
    18  H    4.077432   2.273693   0.000000
    19  H    2.999790   4.136379   3.327750   0.000000
    20  H    4.372616   4.259414   2.626463   1.771801   0.000000
    21  H    5.097376   6.368890   4.903132   2.480588   2.521780
    22  H    5.255591   6.055451   4.210982   3.068072   2.468746
    23  H    3.695641   6.180353   5.328406   2.679606   3.834705
    24  H    5.129885   7.192911   5.877852   3.835341   4.321171
    25  H    3.824226   6.205828   5.423972   4.161876   4.979823
    26  H    4.481675   5.883339   4.532198   4.013026   4.161066
    27  H    1.092011   4.156028   5.047145   3.614162   5.164588
                   21         22         23         24         25
    21  H    0.000000
    22  H    1.766040   0.000000
    23  H    2.462420   3.062653   0.000000
    24  H    2.528954   2.464995   1.766309   0.000000
    25  H    4.309506   3.835606   2.449872   2.503457   0.000000
    26  H    3.839081   2.692394   3.060329   2.488460   1.770052
    27  H    5.682297   6.090312   4.120612   5.717556   4.473429
                   26         27
    26  H    0.000000
    27  H    5.381470   0.000000
 Symmetry turned off by external request.
 Stoichiometry    C9H13N3O2
 Framework group  C1[X(C9H13N3O2)]
 Deg. of freedom    75
 Full point group                 C1      NOp   1
 Rotational constants (GHZ):           1.6760646           0.4240380           0.3739972
 Standard basis: 6-31G(d) (6D, 7F)
   236 basis functions,   444 primitive gaussians,   236 cartesian basis functions
    52 alpha electrons       52 beta electrons
       nuclear repulsion energy       932.6951951476 Hartrees.
 NAtoms=   27 NActive=   27 NUniq=   27 SFac= 1.00D+00 NAtFMM=   60 NAOKFM=F Big=F
 Integral buffers will be    131072 words long.
 Raffenetti 1 integral format.
 Two-electron integral symmetry is turned off.
 One-electron integrals computed using PRISM.
 NBasis=   236 RedAO= T EigKep=  1.14D-03  NBF=   236
 NBsUse=   236 1.00D-06 EigRej= -1.00D+00 NBFU=   236
 Initial guess from the checkpoint file:  "/home/alexey/tmp/Gau-1564969.chk"
 B after Tr=     0.057671    0.008197   -0.010836
         Rot=    0.999983   -0.003523    0.004435    0.001388 Ang=  -0.67 deg.
 ExpMin= 1.61D-01 ExpMax= 5.48D+03 ExpMxC= 8.25D+02 IAcc=3 IRadAn=         5 AccDes= 0.00D+00
 Harris functional with IExCor=  205 and IRadAn=       5 diagonalized for initial guess.
 HarFok:  IExCor=  205 AccDes= 0.00D+00 IRadAn=         5 IDoV= 1 UseB2=F ITyADJ=14
 ICtDFT=  3500011 ScaDFX=  1.000000  1.000000  1.000000  1.000000
 FoFCou: FMM=F IPFlag=           0 FMFlag=      100000 FMFlg1=           0
         NFxFlg=           0 DoJE=T BraDBF=F KetDBF=T FulRan=T
         wScrn=  0.000000 ICntrl=       500 IOpCl=  0 I1Cent=   200000004 NGrid=           0
         NMat0=    1 NMatS0=      1 NMatT0=    0 NMatD0=    1 NMtDS0=    0 NMtDT0=    0
 Symmetry not used in FoFCou.
 Keep R1 ints in memory in canonical form, NReq=397720213.
 Requested convergence on RMS density matrix=1.00D-08 within 128 cycles.
 Requested convergence on MAX density matrix=1.00D-06.
 Requested convergence on             energy=1.00D-06.
 No special actions if energy rises.
 SCF Done:  E(RHF) =  -661.295676907     A.U. after   15 cycles
            NFock= 15  Conv=0.57D-08     -V/T= 2.0024
 ExpMin= 1.61D-01 ExpMax= 5.48D+03 ExpMxC= 8.25D+02 IAcc=3 IRadAn=         5 AccDes= 0.00D+00
 HarFok:  IExCor=  205 AccDes= 0.00D+00 IRadAn=         5 IDoV=-2 UseB2=F ITyADJ=14
 ICtDFT= 12500011 ScaDFX=  1.000000  1.000000  1.000000  1.000000
 Range of M.O.s used for correlation:    15   236
 NBasis=   236 NAE=    52 NBE=    52 NFC=    14 NFV=     0
 NROrb=    222 NOA=    38 NOB=    38 NVA=   184 NVB=   184
 Fully direct method using O(ONN) memory.
 JobTyp=1 Pass  1:  I=  15 to  52 NPSUse=  4 ParTrn=T ParDer=T DoDerP=T.
 Spin components of T(2) and E(2):
     alpha-alpha T2 =       0.9139459650D-01 E2=     -0.2725336074D+00
     alpha-beta  T2 =       0.4917266422D+00 E2=     -0.1488580607D+01
     beta-beta   T2 =       0.9139459650D-01 E2=     -0.2725336074D+00
 ANorm=    0.1294030848D+01
 E2 =    -0.2033647822D+01 EUMP2 =    -0.66332932472912D+03
          IDoAtm=111111111111111111111111111
          Differentiating once with respect to electric field.
                with respect to dipole field.
          Differentiating once with respect to nuclear coordinates.
 Keep R1 ints in memory in canonical form, NReq=397723379.
          There are     1 degrees of freedom in the 1st order CPHF.  IDoFFX=0 NUNeed=     1.
 LinEq1:  Iter=  0 NonCon=     1 RMS=4.59D-03 Max=1.15D-01 NDo=     1
 AX will form     1 AO Fock derivatives at one time.
[...]
    26  H    2.175589   1.098732   2.166813   2.494929   3.366769
    27  H    4.741103   4.429696   3.357409   3.653269   2.034201
                   16         17         18         19         20
    16  C    0.000000
    17  H    3.442317   0.000000
    18  H    4.070511   2.247682   0.000000
    19  H    2.995759   4.202470   3.378634   0.000000
    20  H    4.375216   4.350296   2.716659   1.769034   0.000000
    21  H    5.102955   6.435373   4.974462   2.498889   2.518728
    22  H    5.248543   6.072369   4.260327   3.070016   2.459416
    23  H    3.703263   6.205908   5.375433   2.702857   3.841205
    24  H    5.137886   7.196707   5.917921   3.848558   4.314932
    25  H    3.819690   6.147028   5.427719   4.169603   4.982278
    26  H    4.490210   5.843866   4.556905   4.034369   4.179172
    27  H    1.089531   4.152293   5.032903   3.585784   5.144408
                   21         22         23         24         25
    21  H    0.000000
    22  H    1.759054   0.000000
    23  H    2.469971   3.062249   0.000000
    24  H    2.517831   2.459699   1.764691   0.000000
    25  H    4.311810   3.837977   2.444394   2.519446   0.000000
    26  H    3.845818   2.702319   3.060584   2.491417   1.767813
    27  H    5.666689   6.067372   4.113547   5.714733   4.469906
                   26         27
    26  H    0.000000
    27  H    5.385718   0.000000
 Symmetry turned off by external request.
 Stoichiometry    C9H13N3O2
 Framework group  C1[X(C9H13N3O2)]
 Deg. of freedom    75
 Full point group                 C1      NOp   1
 Rotational constants (GHZ):           1.6840370           0.4203448           0.3726833

 **********************************************************************

            Population analysis using the SCF Density.

 **********************************************************************

 Alpha  occ. eigenvalues --  -20.59174 -20.58863 -15.84606 -15.64280 -15.56138
 Alpha  occ. eigenvalues --  -11.35158 -11.29630 -11.29592 -11.28542 -11.27121
 Alpha  occ. eigenvalues --  -11.23944 -11.23312 -11.22706 -11.22131  -1.57035
 Alpha  occ. eigenvalues --   -1.36644  -1.31077  -1.23099  -1.14731  -1.09851
 Alpha  occ. eigenvalues --   -1.02818  -1.01358  -0.94383  -0.89592  -0.85725
 Alpha  occ. eigenvalues --   -0.82353  -0.78496  -0.77426  -0.75159  -0.72035
 Alpha  occ. eigenvalues --   -0.69573  -0.69519  -0.67854  -0.64876  -0.63719
 Alpha  occ. eigenvalues --   -0.62597  -0.60215  -0.57695  -0.57034  -0.55049
 Alpha  occ. eigenvalues --   -0.54701  -0.50874  -0.50062  -0.48599  -0.48107
 Alpha  occ. eigenvalues --   -0.47331  -0.46232  -0.46071  -0.43617  -0.41653
 Alpha  occ. eigenvalues --   -0.40044  -0.33883
 Alpha virt. eigenvalues --    0.07444   0.11955   0.17420   0.21727   0.23420
 Alpha virt. eigenvalues --    0.24790   0.27323   0.28161   0.28985   0.29551
 Alpha virt. eigenvalues --    0.30898   0.31669   0.32225   0.32771   0.33753
 Alpha virt. eigenvalues --    0.34303   0.35740   0.37410   0.38406   0.40210
 Alpha virt. eigenvalues --    0.41671   0.42551   0.45107   0.46009   0.46724
 Alpha virt. eigenvalues --    0.47137   0.48847   0.53470   0.56360   0.59283
 Alpha virt. eigenvalues --    0.64207   0.69190   0.69482   0.72757   0.74031
 Alpha virt. eigenvalues --    0.75177   0.75861   0.76723   0.78782   0.78971
 Alpha virt. eigenvalues --    0.80954   0.85063   0.85186   0.86093   0.88249
 Alpha virt. eigenvalues --    0.88878   0.90222   0.91258   0.92774   0.94525
 Alpha virt. eigenvalues --    0.96093   0.97761   0.98029   1.01121   1.02277
 Alpha virt. eigenvalues --    1.03013   1.05975   1.06992   1.07488   1.08318
 Alpha virt. eigenvalues --    1.10086   1.11587   1.12081   1.12601   1.13760
 Alpha virt. eigenvalues --    1.14537   1.14836   1.16069   1.16576   1.18061
 Alpha virt. eigenvalues --    1.18973   1.20884   1.21245   1.22867   1.23650
 Alpha virt. eigenvalues --    1.25511   1.26836   1.27440   1.27806   1.29089
 Alpha virt. eigenvalues --    1.29925   1.31991   1.36131   1.37421   1.38750
 Alpha virt. eigenvalues --    1.40371   1.41267   1.48220   1.52008   1.53206
 Alpha virt. eigenvalues --    1.56703   1.58926   1.60462   1.63238   1.67661
 Alpha virt. eigenvalues --    1.69338   1.70315   1.73742   1.75250   1.77682
 Alpha virt. eigenvalues --    1.80155   1.84534   1.86626   1.91913   1.93243
 Alpha virt. eigenvalues --    1.95646   1.96480   1.99284   2.00981   2.02211
 Alpha virt. eigenvalues --    2.04041   2.05597   2.08871   2.09478   2.13206
 Alpha virt. eigenvalues --    2.13350   2.14754   2.19827   2.19968   2.21777
 Alpha virt. eigenvalues --    2.23092   2.25014   2.26153   2.28127   2.28655
 Alpha virt. eigenvalues --    2.32156   2.32987   2.34627   2.36093   2.38078
 Alpha virt. eigenvalues --    2.39329   2.42309   2.43111   2.45353   2.48649
 Alpha virt. eigenvalues --    2.49592   2.51936   2.53720   2.55697   2.61468
 Alpha virt. eigenvalues --    2.62252   2.65176   2.67481   2.70264   2.71361
 Alpha virt. eigenvalues --    2.71965   2.74015   2.76471   2.78361   2.85258
 Alpha virt. eigenvalues --    2.86945   2.88236   2.92679   2.93284   2.96025
 Alpha virt. eigenvalues --    2.98756   3.01361   3.03489   3.05158   3.07550
 Alpha virt. eigenvalues --    3.09795   3.15741   3.20675   3.24962   3.27196
 Alpha virt. eigenvalues --    3.34405   3.37555   3.39664   3.50591   3.61914
 Alpha virt. eigenvalues --    4.13309   4.27035   4.30478   4.37166   4.46025
 Alpha virt. eigenvalues --    4.56326   4.61710   4.63958   4.73000   4.79618
 Alpha virt. eigenvalues --    4.97686   5.00628   5.03465   5.12298
          Condensed to atoms (all electrons):
               1          2          3          4          5          6
     1  O    8.313663   0.306234  -0.079674  -0.083458   0.004021  -0.000020
     2  N    0.306234   5.739706   0.291961   0.258248  -0.045056   0.001303
     3  O   -0.079674   0.291961   8.352017  -0.086586  -0.000685   0.000656
     4  C   -0.083458   0.258248  -0.086586   5.240716   0.545460  -0.055172
     5  C    0.004021  -0.045056  -0.000685   0.545460   4.719649   0.318789
     6  N   -0.000020   0.001303   0.000656  -0.055172   0.318789   7.175605
     7  C    0.000004  -0.000104   0.000002   0.004755  -0.031061   0.182820
     8  H   -0.000000   0.000002   0.000000  -0.000325   0.004020  -0.050754
     9  C   -0.000000  -0.000004  -0.000000   0.000811  -0.000414  -0.064468
    10  C    0.000000   0.000000  -0.000000  -0.000040  -0.000024   0.003927
    11  C   -0.000000  -0.000000  -0.000000  -0.000019   0.000014  -0.000162
    12  C    0.000000   0.000002  -0.000000  -0.000086  -0.000161   0.003417
    13  C   -0.000028  -0.000059  -0.000005  -0.011143  -0.000932  -0.046331
    14  H   -0.000002  -0.000134   0.000001   0.002897   0.004038  -0.005849
    15  N    0.000414   0.002222  -0.000020  -0.066489  -0.002945   0.000702
    16  C    0.000485  -0.032840   0.002982   0.330250  -0.049598  -0.002317
    17  H    0.000260  -0.007953   0.018014  -0.026475   0.377420  -0.035823
    18  H    0.000001  -0.000057   0.000011   0.001860  -0.030989   0.336424
    19  H    0.000001  -0.000006   0.000000  -0.001387   0.001765  -0.000325
    20  H    0.000000  -0.000000   0.000000  -0.000034   0.000097  -0.000696
    21  H   -0.000000   0.000000  -0.000000   0.000001   0.000000  -0.000082
    22  H   -0.000000   0.000000  -0.000000  -0.000000  -0.000002  -0.000109
    23  H    0.000000  -0.000000   0.000000   0.000034  -0.000001  -0.000029
    24  H    0.000000   0.000000   0.000000   0.000000  -0.000000   0.000006
    25  H    0.000000  -0.000000   0.000000   0.000018   0.000002  -0.000081
    26  H    0.000000  -0.000000   0.000000   0.000006  -0.000000  -0.000061
    27  H    0.006912  -0.000975   0.000035  -0.062944   0.001776   0.000063
               7          8          9         10         11         12
     1  O    0.000004  -0.000000  -0.000000   0.000000  -0.000000   0.000000
     2  N   -0.000104   0.000002  -0.000004   0.000000  -0.000000   0.000002
     3  O    0.000002   0.000000  -0.000000  -0.000000  -0.000000  -0.000000
     4  C    0.004755  -0.000325   0.000811  -0.000040  -0.000019  -0.000086
     5  C   -0.031061   0.004020  -0.000414  -0.000024   0.000014  -0.000161
     6  N    0.182820  -0.050754  -0.064468   0.003927  -0.000162   0.003417
     7  C    5.021252   0.418091   0.351518  -0.053937  -0.009200  -0.060119
     8  H    0.418091   0.534919  -0.055947   0.000892  -0.000325  -0.002168
     9  C    0.351518  -0.055947   5.167316   0.324322  -0.050766  -0.005749
    10  C   -0.053937   0.000892   0.324322   5.116487   0.337509  -0.060805
    11  C   -0.009200  -0.000325  -0.050766   0.337509   5.119622   0.335476
    12  C   -0.060119  -0.002168  -0.005749  -0.060805   0.335476   5.116857
    13  C    0.334544  -0.037778  -0.059741  -0.000523  -0.050625   0.370949
    14  H   -0.046291  -0.001046   0.004488  -0.000422   0.004186  -0.035870
    15  N   -0.055689   0.003731  -0.013959   0.001418  -0.012769  -0.080511
    16  C   -0.003727   0.000127  -0.001509  -0.000007  -0.000027   0.002931
    17  H    0.001689  -0.000023  -0.000102   0.000001   0.000000   0.000000
    18  H   -0.023297  -0.003778   0.000814  -0.000078   0.000006  -0.000107
    19  H   -0.037447   0.004332   0.389562  -0.031439  -0.002224   0.000724
    20  H   -0.043857  -0.002179   0.399450  -0.035142   0.003973  -0.000420
    21  H    0.004558  -0.000083  -0.036293   0.402207  -0.034926   0.004362
    22  H   -0.004774   0.003550  -0.047175   0.398189  -0.045180  -0.001063
    23  H    0.000538   0.000032  -0.001974  -0.039069   0.399290  -0.037863
    24  H   -0.000135  -0.000102   0.004443  -0.038554   0.402343  -0.038610
    25  H    0.005175  -0.000027  -0.000404   0.004194  -0.033506   0.398914
    26  H   -0.003916   0.001730   0.000982  -0.002274  -0.041424   0.397011
    27  H   -0.000435   0.000010  -0.000069   0.000008   0.000009  -0.000034
              13         14         15         16         17         18
     1  O   -0.000028  -0.000002   0.000414   0.000485   0.000260   0.000001
     2  N   -0.000059  -0.000134   0.002222  -0.032840  -0.007953  -0.000057
     3  O   -0.000005   0.000001  -0.000020   0.002982   0.018014   0.000011
     4  C   -0.011143   0.002897  -0.066489   0.330250  -0.026475   0.001860
     5  C   -0.000932   0.004038  -0.002945  -0.049598   0.377420  -0.030989
     6  N   -0.046331  -0.005849   0.000702  -0.002317  -0.035823   0.336424
     7  C    0.334544  -0.046291  -0.055689  -0.003727   0.001689  -0.023297
     8  H   -0.037778  -0.001046   0.003731   0.000127  -0.000023  -0.003778
     9  C   -0.059741   0.004488  -0.013959  -0.001509  -0.000102   0.000814
    10  C   -0.000523  -0.000422   0.001418  -0.000007   0.000001  -0.000078
    11  C   -0.050625   0.004186  -0.012769  -0.000027   0.000000   0.000006
    12  C    0.370949  -0.035870  -0.080511   0.002931   0.000000  -0.000107
    13  C    5.041919   0.404024   0.244343  -0.071794  -0.000038   0.003320
    14  H    0.404024   0.519366  -0.037318  -0.004004   0.000091  -0.000087
    15  N    0.244343  -0.037318   6.963439   0.580046  -0.000061  -0.000148
    16  C   -0.071794  -0.004004   0.580046   4.737886   0.002511  -0.000250
    17  H   -0.000038   0.000091  -0.000061   0.002511   0.382114  -0.002972
    18  H    0.003320  -0.000087  -0.000148  -0.000250  -0.002972   0.315177
    19  H   -0.007265   0.000097   0.007361   0.003371   0.000028  -0.000158
    20  H    0.004413  -0.000066   0.000108  -0.000042  -0.000001   0.001681
    21  H   -0.000442   0.000010  -0.000043   0.000003  -0.000000   0.000000
    22  H    0.000076  -0.000054   0.000015  -0.000002   0.000000   0.000003
    23  H   -0.007288   0.000006   0.008515   0.000045   0.000000   0.000000
    24  H    0.004680  -0.000056   0.000136   0.000008   0.000000  -0.000000
    25  H   -0.035868  -0.002867   0.000297  -0.000027  -0.000000   0.000002
    26  H   -0.047172  -0.001044   0.004795  -0.000074   0.000000  -0.000000
    27  H    0.005089  -0.000188  -0.039651   0.402903  -0.000081   0.000001
              19         20         21         22         23         24
     1  O    0.000001   0.000000  -0.000000  -0.000000   0.000000   0.000000
     2  N   -0.000006  -0.000000   0.000000   0.000000  -0.000000   0.000000
     3  O    0.000000   0.000000  -0.000000  -0.000000   0.000000   0.000000
     4  C   -0.001387  -0.000034   0.000001  -0.000000   0.000034   0.000000
     5  C    0.001765   0.000097   0.000000  -0.000002  -0.000001  -0.000000
     6  N   -0.000325  -0.000696  -0.000082  -0.000109  -0.000029   0.000006
     7  C   -0.037447  -0.043857   0.004558  -0.004774   0.000538  -0.000135
     8  H    0.004332  -0.002179  -0.000083   0.003550   0.000032  -0.000102
     9  C    0.389562   0.399450  -0.036293  -0.047175  -0.001974   0.004443
    10  C   -0.031439  -0.035142   0.402207   0.398189  -0.039069  -0.038554
    11  C   -0.002224   0.003973  -0.034926  -0.045180   0.399290   0.402343
    12  C    0.000724  -0.000420   0.004362  -0.001063  -0.037863  -0.038610
    13  C   -0.007265   0.004413  -0.000442   0.000076  -0.007288   0.004680
    14  H    0.000097  -0.000066   0.000010  -0.000054   0.000006  -0.000056
    15  N    0.007361   0.000108  -0.000043   0.000015   0.008515   0.000136
    16  C    0.003371  -0.000042   0.000003  -0.000002   0.000045   0.000008
    17  H    0.000028  -0.000001  -0.000000   0.000000   0.000000   0.000000
    18  H   -0.000158   0.001681   0.000000   0.000003   0.000000  -0.000000
    19  H    0.506103  -0.025437  -0.002826   0.003964   0.001513  -0.000066
    20  H   -0.025437   0.546914  -0.002743  -0.003017  -0.000044  -0.000085
    21  H   -0.002826  -0.002743   0.524411  -0.027398  -0.002885  -0.002240
    22  H    0.003964  -0.003017  -0.027398   0.569899   0.004126  -0.003658
    23  H    0.001513  -0.000044  -0.002885   0.004126   0.498918  -0.025451
    24  H   -0.000066  -0.000085  -0.002240  -0.003658  -0.025451   0.537984
    25  H   -0.000031   0.000012  -0.000086  -0.000080  -0.002325  -0.002312
    26  H    0.000020  -0.000030  -0.000081   0.002382   0.004050  -0.003038
    27  H    0.000098   0.000000  -0.000000   0.000000  -0.000034  -0.000000
              25         26         27
     1  O    0.000000   0.000000   0.006912
     2  N   -0.000000  -0.000000  -0.000975
     3  O    0.000000   0.000000   0.000035
     4  C    0.000018   0.000006  -0.062944
     5  C    0.000002  -0.000000   0.001776
     6  N   -0.000081  -0.000061   0.000063
     7  C    0.005175  -0.003916  -0.000435
     8  H   -0.000027   0.001730   0.000010
     9  C   -0.000404   0.000982  -0.000069
    10  C    0.004194  -0.002274   0.000008
    11  C   -0.033506  -0.041424   0.000009
    12  C    0.398914   0.397011  -0.000034
    13  C   -0.035868  -0.047172   0.005089
    14  H   -0.002867  -0.001044  -0.000188
    15  N    0.000297   0.004795  -0.039651
    16  C   -0.000027  -0.000074   0.402903
    17  H   -0.000000   0.000000  -0.000081
    18  H    0.000002  -0.000000   0.000001
    19  H   -0.000031   0.000020   0.000098
    20  H    0.000012  -0.000030   0.000000
    21  H   -0.000086  -0.000081  -0.000000
    22  H   -0.000080   0.002382   0.000000
    23  H   -0.002325   0.004050  -0.000034
    24  H   -0.002312  -0.003038  -0.000000
    25  H    0.505635  -0.023979  -0.000012
    26  H   -0.023979   0.560520   0.000001
    27  H   -0.000012   0.000001   0.435588
 Mulliken charges:
               1
     1  O   -0.468811
     2  N    0.487509
     3  O   -0.498709
     4  C    0.009103
     5  C    0.184816
     6  N   -0.761431
     7  C    0.049041
     8  H    0.183099
     9  C   -0.305131
    10  C   -0.326840
    11  C   -0.321277
    12  C   -0.307078
    13  C   -0.036322
    14  H    0.196095
    15  N   -0.507936
    16  C    0.102669
    17  H    0.291399
    18  H    0.402620
    19  H    0.189669
    20  H    0.157145
    21  H    0.174573
    22  H    0.150307
    23  H    0.199896
    24  H    0.164709
    25  H    0.187358
    26  H    0.151595
    27  H    0.251932
 Sum of Mulliken charges =  -0.00000
 Mulliken charges with hydrogens summed into heavy atoms:
               1
     1  O   -0.468811
     2  N    0.487509
     3  O   -0.498709
     4  C    0.009103
     5  C    0.476215
     6  N   -0.358811
     7  C    0.232141
     9  C    0.041682
    10  C   -0.001959
    11  C    0.043328
    12  C    0.031875
    13  C    0.159773
    15  N   -0.507936
    16  C    0.354602
 Electronic spatial extent (au):  <R**2>=           3000.3080
 Charge=             -0.0000 electrons
 Dipole moment (field-independent basis, Debye):
    X=              5.4952    Y=              4.8675    Z=              0.5647  Tot=              7.3627
 Quadrupole moment (field-independent basis, Debye-Ang):
   XX=           -106.1801   YY=            -78.7526   ZZ=            -82.2267
   XY=             -1.8385   XZ=              1.2064   YZ=             -0.0755
 Traceless Quadrupole moment (field-independent basis, Debye-Ang):
   XX=            -17.1270   YY=             10.3005   ZZ=              6.8265
   XY=             -1.8385   XZ=              1.2064   YZ=             -0.0755
 Octapole moment (field-independent basis, Debye-Ang**2):
  XXX=             92.8349  YYY=             38.1856  ZZZ=             -5.9694  XYY=             -5.2298
  XXY=             10.0118  XXZ=              0.2221  XZZ=             -8.7841  YZZ=             -1.5829
  YYZ=              3.2171  XYZ=              2.4605
 Hexadecapole moment (field-independent basis, Debye-Ang**3):
 XXXX=          -3374.7422 YYYY=           -598.3536 ZZZZ=           -301.5218 XXXY=            -24.1734
 XXXZ=              9.5903 YYYX=            -10.5043 YYYZ=             15.6493 ZZZX=             12.5103
 ZZZY=              5.9082 XXYY=           -624.8385 XXZZ=           -524.9242 YYZZ=           -160.7578
 XXYZ=            -10.1888 YYXZ=              7.5659 ZZXY=              5.1094
 N-N= 9.316534323042D+02 E-N=-3.410002850938D+03  KE= 6.596289529756D+02
 Unable to Open any file for archive entry.
 1\1\GINC-LOTUS\FOpt\RMP2-FC\6-31G(d)\C9H13N3O2\ALEXEY\02-Jul-2023\0\\#
 MP2/6-31G* SCF=Tight Opt=(ModRedun, MaxCycle=20 ) NoSymm\\MolName:\\0,
 1\O,-3.5082677769,-1.3745299655,-0.3878309775\N,-3.1168485838,-0.24025
 42807,-0.0502005435\O,-3.886597861,0.7044607295,0.2126909892\C,-1.6814
 21327,-0.0413889448,0.0751667492\C,-1.2945369373,1.2716215308,0.180621
 4224\N,-0.0614797165,1.745475955,0.4167637593\C,1.1974626783,1.0113011
 273,0.3840502003\H,1.84250004,1.5284263156,1.1106994578\C,1.9061504765
 ,1.0459995098,-0.9697970995\C,3.3067038378,0.4429769366,-0.8131886849\
 C,3.2616416079,-0.9629081297,-0.2092696402\C,2.4636418576,-0.995494245
 3,1.0957816281\C,1.0518410761,-0.444583663,0.8667938728\H,0.4762044317
 ,-0.4426786519,1.8059913132\N,0.4069481879,-1.3285439265,-0.105521361\
 C,-0.8407194095,-1.1356534536,-0.3867518888\H,-2.088470464,2.012738063
 2,0.229928966\H,0.0226411773,2.7561510284,0.4363691089\H,1.3161257853,
 0.4782412103,-1.6974517962\H,1.971308412,2.0802553744,-1.3317076502\H,
 3.8128606449,0.4228254965,-1.7851394657\H,3.9021107348,1.1011772869,-0
 .1646010805\H,2.7880612805,-1.6501554295,-0.9172160528\H,4.2815961449,
 -1.3256172767,-0.0350800424\H,2.3806132671,-2.0234176921,1.463901874\H
 ,2.9699641689,-0.4079873497,1.8740392477\H,-1.3180337335,-1.8644475555
 ,-1.0410523055\\Version=ES64L-G16RevC.02\HF=-661.2963808\MP2=-663.3315
 118\RMSD=5.727e-09\RMSF=3.075e-03\Dipole=2.0035503,1.7076102,0.2512439
 \PG=C01 [X(C9H13N3O2)]\\@
 The archive entry for this job was punched.


 OLD AGE AND TREACHERY WILL ALWAYS PREVAIL OVER YOUTH AND SKILL.
 Job cpu time:       0 days  1 hours  4 minutes 59.9 seconds.
 Elapsed time:       0 days  0 hours 19 minutes 29.5 seconds.
 File lengths (MBytes):  RWF=     36 Int=      0 D2E=      0 Chk=      7 Scr=      1
 Normal termination of Gaussian 16 at Sun Jul  2 19:24:32 2023.
