 Entering Gaussian System, Link 0=g16
 Initial command:
 /home/alexey/programs//g16/l1.exe "/home/alexey/tmp/Gau-1562460.inp" -scrdir="/home/alexey/tmp/"
 Entering Link 1 = /home/alexey/programs//g16/l1.exe PID=   1562462.
  
 Copyright (c) 1988-2021, Gaussian, Inc.  All Rights Reserved.
  
 This is part of the Gaussian(R) 16 program.  It is based on
 the Gaussian(R) 09 system (copyright 2009, Gaussian, Inc.),
 the Gaussian(R) 03 system (copyright 2003, Gaussian, Inc.),
 the Gaussian(R) 98 system (copyright 1998, Gaussian, Inc.),
 the Gaussian(R) 94 system (copyright 1995, Gaussian, Inc.),
 the Gaussian 92(TM) system (copyright 1992, Gaussian, Inc.),
 the Gaussian 90(TM) system (copyright 1990, Gaussian, Inc.),
 the Gaussian 88(TM) system (copyright 1988, Gaussian, Inc.),
 the Gaussian 86(TM) system (copyright 1986, Carnegie Mellon
 University), and the Gaussian 82(TM) system (copyright 1983,
 Carnegie Mellon University). Gaussian is a federally registered
 trademark of Gaussian, Inc.
  
 This software contains proprietary and confidential information,
 including trade secrets, belonging to Gaussian, Inc.
  
 This software is provided under written license and may be
 used, copied, transmitted, or stored only in accord with that
 written license.
  
 The following legend is applicable only to US Government
 contracts under FAR:
  
                    RESTRICTED RIGHTS LEGEND
  
 Use, reproduction and disclosure by the US Government is
 subject to restrictions as set forth in subparagraphs (a)
 and (c) of the Commercial Computer Software - Restricted
 Rights clause in FAR 52.227-19.
  
 Gaussian, Inc.
 340 Quinnipiac St., Bldg. 40, Wallingford CT 06492
  
  
 ---------------------------------------------------------------
 Warning -- This program may not be used in any manner that
 competes with the business of Gaussian, Inc. or will provide
 assistance to any competitor of Gaussian, Inc.  The licensee
 of this program is prohibited from giving any competitor of
 Gaussian, Inc. access to this program.  By using this program,
 the user acknowledges that Gaussian, Inc. is engaged in the
 business of creating and licensing software in the field of
 computational chemistry and represents and warrants to the
 licensee that it is not a competitor of Gaussian, Inc. and that
 it will not use this program in any manner prohibited above.
 ---------------------------------------------------------------
  

 Cite this work as:
 Gaussian 16, Revision C.02,
 M. J. Frisch, G. W. Trucks, H. B. Schlegel, G. E. Scuseria, 
 M. A. Robb, J. R. Cheeseman, G. Scalmani, V. Barone, 
 G. A. Petersson, H. Nakatsuji, X. Li, M. Caricato, A. V. Marenich, 
 J. Bloino, B. G. Janesko, R. Gomperts, B. Mennucci, H. P. Hratchian, 
 J. V. Ortiz, A. F. Izmaylov, J. L. Sonnenberg, D. Williams-Young, 
 F. Ding, F. Lipparini, F. Egidi, J. Goings, B. Peng, A. Petrone, 
 T. Henderson, D. Ranasinghe, V. G. Zakrzewski, J. Gao, N. Rega, 
 G. Zheng, W. Liang, M. Hada, M. Ehara, K. Toyota, R. Fukuda, 
 J. Hasegawa, M. Ishida, T. Nakajima, Y. Honda, O. Kitao, H. Nakai, 
 T. Vreven, K. Throssell, J. A. Montgomery, Jr., J. E. Peralta, 
 F. Ogliaro, M. J. Bearpark, J. J. Heyd, E. N. Brothers, K. N. Kudin, 
 V. N. Staroverov, T. A. Keith, R. Kobayashi, J. Normand, 
 K. Raghavachari, A. P. Rendell, J. C. Burant, S. S. Iyengar, 
 J. Tomasi, M. Cossi, J. M. Millam, M. Klene, C. Adamo, R. Cammi, 
 J. W. Ochterski, R. L. Martin, K. Morokuma, O. Farkas, 
 J. B. Foresman, and D. J. Fox, Gaussian, Inc., Wallingford CT, 2019.
 
 ******************************************
 Gaussian 16:  ES64L-G16RevC.02  7-Dec-2021
                 2-Jul-2023 
 ******************************************
 %mem=8GB
 %NPROCS=4
 Will use up to    4 processors via shared memory.
 %NoSave
 ---------------------------------------------------------
 #MP2/6-31G* SCF=Tight Opt=(ModRedun, MaxCycle=20 ) NoSymm
 ---------------------------------------------------------
 1/6=20,18=120,19=15,38=1/1,3;
 2/9=110,12=2,15=1,17=6,18=5,40=1/2;
 3/5=1,6=6,7=1,11=9,25=1,30=1,71=1/1,2,3;
 4//1;
 5/5=2,32=2,38=5/2;
 8/6=4,10=2/1;
 9/15=2,16=-3/6;
 10/5=1,31=1/2;
 6/7=2,8=2,9=2,10=2/1;
 7/12=2,30=1/1,2,3,16;
 1/6=20,18=20,19=15/3(2);
 2/9=110,15=1/2;
 99//99;
 2/9=110,15=1/2;
 3/5=1,6=6,7=1,11=9,25=1,30=1,71=1/1,2,3;
 4/5=5,16=3,69=1/1;
 5/5=2,32=2,38=5/2;
 8/6=4,10=2/1;
 9/15=2,16=-3/6;
 10/5=1,31=1/2;
 7/12=2,30=1/1,2,3,16;
 1/6=20,18=20,19=15/3(-8);
 2/9=110,15=1/2;
 6/7=2,8=2,9=2,10=2/1;
 99/9=10/99;
 --------
 MolName:
 --------
 Symbolic Z-matrix:
 Charge =  0 Multiplicity = 1
 8                    0    -3.62188  -1.44011  -0.15887 
 7                    0    -3.25557  -0.27375  -0.02499 
 8                    0    -4.03018   0.67109   0.13038 
 6                    0    -1.75317   0.00514  -0.04687 
 6                    0    -1.36121   1.32992   0.17688 
 7                    0    -0.0838    1.75683   0.43016 
 6                    0     1.19699   0.98915   0.38291 
 1                    0     1.86636   1.48131   1.13543 
 6                    0     1.94954   1.05335  -0.96974 
 6                    0     3.36438   0.46843  -0.79714 
 6                    0     3.31038  -0.95257  -0.21403 
 6                    0     2.47307  -0.99859   1.08231 
 6                    0     1.03311  -0.46448   0.85011 
 1                    0     0.49006  -0.51176   1.82312 
 7                    0     0.37159  -1.32982  -0.12908 
 6                    0    -0.8727   -1.1336   -0.41748 
 1                    0    -2.14653   2.0969    0.27812 
 1                    0     0.15994   2.74737   0.3551 
 1                    0     1.39461   0.48195  -1.74394 
 1                    0     2.02998   2.10651  -1.31331 
 1                    0     3.89078   0.45365  -1.77655 
 1                    0     3.94599   1.11777  -0.10526 
 1                    0     2.85851  -1.63665  -0.96741 
 1                    0     4.34091  -1.31589  -0.00855 
 1                    0     2.42005  -2.04795   1.44666 
 1                    0     2.97187  -0.39251   1.86735 
 1                    0    -1.38009  -1.89669  -1.02731 
 
 The following ModRedundant input section has been read:
 D      16       4       5       6 F                                           
 D       1       2       4      16 F                                           
 D       7      13      15      16 F                                           
 D       7       9      10      11 F                                           
 D       9      10      11      12 F                                           
 D       6       7      13      15 F                                           
 

 GradGradGradGradGradGradGradGradGradGradGradGradGradGradGradGradGradGrad
 Berny optimization.
 Initialization pass.
                           ----------------------------
                           !    Initial Parameters    !
                           ! (Angstroms and Degrees)  !
 --------------------------                            --------------------------
 ! Name  Definition              Value          Derivative Info.                !
 --------------------------------------------------------------------------------
 ! R1    R(1,2)                  1.2298         estimate D2E/DX2                !
 ! R2    R(2,3)                  1.2316         estimate D2E/DX2                !
 ! R3    R(2,4)                  1.5282         estimate D2E/DX2                !
 ! R4    R(4,5)                  1.3995         estimate D2E/DX2                !
 ! R5    R(4,16)                 1.4864         estimate D2E/DX2                !
 ! R6    R(5,6)                  1.3705         estimate D2E/DX2                !
 ! R7    R(5,17)                 1.1024         estimate D2E/DX2                !
 ! R8    R(6,7)                  1.494          estimate D2E/DX2                !
 ! R9    R(6,18)                 1.0228         estimate D2E/DX2                !
 ! R10   R(7,8)                  1.121          estimate D2E/DX2                !
 ! R11   R(7,9)                  1.5492         estimate D2E/DX2                !
 ! R12   R(7,13)                 1.5356         estimate D2E/DX2                !
 ! R13   R(9,10)                 1.5407         estimate D2E/DX2                !
 ! R14   R(9,19)                 1.1108         estimate D2E/DX2                !
 ! R15   R(9,20)                 1.1107         estimate D2E/DX2                !
 ! R16   R(10,11)                1.5369         estimate D2E/DX2                !
 ! R17   R(10,21)                1.112          estimate D2E/DX2                !
 ! R18   R(10,22)                1.1129         estimate D2E/DX2                !
 ! R19   R(11,12)                1.5439         estimate D2E/DX2                !
 ! R20   R(11,23)                1.1134         estimate D2E/DX2                !
 ! R21   R(11,24)                1.1119         estimate D2E/DX2                !
 ! R22   R(12,13)                1.5533         estimate D2E/DX2                !
 ! R23   R(12,25)                1.1121         estimate D2E/DX2                !
 ! R24   R(12,26)                1.1101         estimate D2E/DX2                !
 ! R25   R(13,14)                1.1153         estimate D2E/DX2                !
 ! R26   R(13,15)                1.4647         estimate D2E/DX2                !
 ! R27   R(15,16)                1.2923         estimate D2E/DX2                !
 ! R28   R(16,27)                1.1007         estimate D2E/DX2                !
 ! A1    A(1,2,3)              123.6391         estimate D2E/DX2                !
 ! A2    A(1,2,4)              117.6672         estimate D2E/DX2                !
 ! A3    A(3,2,4)              118.693          estimate D2E/DX2                !
 ! A4    A(2,4,5)              116.4735         estimate D2E/DX2                !
 ! A5    A(2,4,16)             116.4944         estimate D2E/DX2                !
 ! A6    A(5,4,16)             126.8094         estimate D2E/DX2                !
 ! A7    A(4,5,6)              125.8353         estimate D2E/DX2                !
 ! A8    A(4,5,17)             118.2781         estimate D2E/DX2                !
 ! A9    A(6,5,17)             115.4873         estimate D2E/DX2                !
 ! A10   A(5,6,7)              129.2847         estimate D2E/DX2                !
 ! A11   A(5,6,18)             120.6786         estimate D2E/DX2                !
 ! A12   A(7,6,18)             106.9182         estimate D2E/DX2                !
 ! A13   A(6,7,8)              105.3722         estimate D2E/DX2                !
 ! A14   A(6,7,9)              115.0089         estimate D2E/DX2                !
 ! A15   A(6,7,13)             112.6621         estimate D2E/DX2                !
 ! A16   A(8,7,9)              106.1333         estimate D2E/DX2                !
 ! A17   A(8,7,13)             105.9674         estimate D2E/DX2                !
 ! A18   A(9,7,13)             110.8977         estimate D2E/DX2                !
 ! A19   A(7,9,10)             109.4227         estimate D2E/DX2                !
 ! A20   A(7,9,19)             110.1545         estimate D2E/DX2                !
 ! A21   A(7,9,20)             110.1543         estimate D2E/DX2                !
 ! A22   A(10,9,19)            109.9723         estimate D2E/DX2                !
 ! A23   A(10,9,20)            109.1552         estimate D2E/DX2                !
 ! A24   A(19,9,20)            107.9597         estimate D2E/DX2                !
 ! A25   A(9,10,11)            111.177          estimate D2E/DX2                !
 ! A26   A(9,10,21)            109.9433         estimate D2E/DX2                !
 ! A27   A(9,10,22)            109.1503         estimate D2E/DX2                !
 ! A28   A(11,10,21)           109.7856         estimate D2E/DX2                !
 ! A29   A(11,10,22)           108.7802         estimate D2E/DX2                !
 ! A30   A(21,10,22)           107.9337         estimate D2E/DX2                !
 ! A31   A(10,11,12)           111.4181         estimate D2E/DX2                !
 ! A32   A(10,11,23)           109.0014         estimate D2E/DX2                !
 ! A33   A(10,11,24)           109.8569         estimate D2E/DX2                !
 ! A34   A(12,11,23)           109.2515         estimate D2E/DX2                !
 ! A35   A(12,11,24)           109.7396         estimate D2E/DX2                !
 ! A36   A(23,11,24)           107.4837         estimate D2E/DX2                !
 ! A37   A(11,12,13)           111.5303         estimate D2E/DX2                !
 ! A38   A(11,12,25)           109.2125         estimate D2E/DX2                !
 ! A39   A(11,12,26)           109.4999         estimate D2E/DX2                !
 ! A40   A(13,12,25)           109.223          estimate D2E/DX2                !
 ! A41   A(13,12,26)           109.543          estimate D2E/DX2                !
 ! A42   A(25,12,26)           107.7518         estimate D2E/DX2                !
 ! A43   A(7,13,12)            105.786          estimate D2E/DX2                !
 ! A44   A(7,13,14)            110.9477         estimate D2E/DX2                !
 ! A45   A(7,13,15)            113.8325         estimate D2E/DX2                !
 ! A46   A(12,13,14)           107.842          estimate D2E/DX2                !
 ! A47   A(12,13,15)           108.3903         estimate D2E/DX2                !
 ! A48   A(14,13,15)           109.7728         estimate D2E/DX2                !
 ! A49   A(13,15,16)           119.6289         estimate D2E/DX2                !
 ! A50   A(4,16,15)            129.128          estimate D2E/DX2                !
 ! A51   A(4,16,27)            113.3407         estimate D2E/DX2                !
 ! A52   A(15,16,27)           117.5303         estimate D2E/DX2                !
 ! D1    D(1,2,4,5)           -176.7898         estimate D2E/DX2                !
 ! D2    D(1,2,4,16)             8.2582         Frozen                          !
 ! D3    D(3,2,4,5)              2.8891         estimate D2E/DX2                !
 ! D4    D(3,2,4,16)          -172.0629         estimate D2E/DX2                !
 ! D5    D(2,4,5,6)            167.897          estimate D2E/DX2                !
 ! D6    D(2,4,5,17)            -4.4972         estimate D2E/DX2                !
 ! D7    D(16,4,5,6)           -17.7476         Frozen                          !
 ! D8    D(16,4,5,17)          169.8581         estimate D2E/DX2                !
 ! D9    D(2,4,16,15)         -155.9875         estimate D2E/DX2                !
 ! D10   D(2,4,16,27)           24.375          estimate D2E/DX2                !
 ! D11   D(5,4,16,15)           29.6582         estimate D2E/DX2                !
 ! D12   D(5,4,16,27)         -149.9793         estimate D2E/DX2                !
 ! D13   D(4,5,6,7)              7.5503         estimate D2E/DX2                !
 ! D14   D(4,5,6,18)           164.839          estimate D2E/DX2                !
 ! D15   D(17,5,6,7)          -179.8689         estimate D2E/DX2                !
 ! D16   D(17,5,6,18)          -22.5801         estimate D2E/DX2                !
 ! D17   D(5,6,7,8)           -150.5024         estimate D2E/DX2                !
 ! D18   D(5,6,7,9)             92.9942         estimate D2E/DX2                !
 ! D19   D(5,6,7,13)           -35.4178         estimate D2E/DX2                !
 ! D20   D(18,6,7,8)            49.8059         estimate D2E/DX2                !
 ! D21   D(18,6,7,9)           -66.6974         estimate D2E/DX2                !
 ! D22   D(18,6,7,13)          164.8905         estimate D2E/DX2                !
 ! D23   D(6,7,9,10)           168.7454         estimate D2E/DX2                !
 ! D24   D(6,7,9,19)           -70.2428         estimate D2E/DX2                !
 ! D25   D(6,7,9,20)            48.743          estimate D2E/DX2                !
 ! D26   D(8,7,9,10)            52.6767         estimate D2E/DX2                !
 ! D27   D(8,7,9,19)           173.6886         estimate D2E/DX2                !
 ! D28   D(8,7,9,20)           -67.3256         estimate D2E/DX2                !
 ! D29   D(13,7,9,10)          -61.9672         estimate D2E/DX2                !
 ! D30   D(13,7,9,19)           59.0446         estimate D2E/DX2                !
 ! D31   D(13,7,9,20)          178.0304         estimate D2E/DX2                !
 ! D32   D(6,7,13,12)         -166.077          estimate D2E/DX2                !
 ! D33   D(6,7,13,14)          -49.3871         estimate D2E/DX2                !
 ! D34   D(6,7,13,15)           75.0222         Frozen                          !
 ! D35   D(8,7,13,12)          -51.352          estimate D2E/DX2                !
 ! D36   D(8,7,13,14)           65.3379         estimate D2E/DX2                !
 ! D37   D(8,7,13,15)         -170.2528         estimate D2E/DX2                !
 ! D38   D(9,7,13,12)           63.3958         estimate D2E/DX2                !
 ! D39   D(9,7,13,14)         -179.9143         estimate D2E/DX2                !
 ! D40   D(9,7,13,15)          -55.505          estimate D2E/DX2                !
 ! D41   D(7,9,10,11)           54.812          Frozen                          !
 ! D42   D(7,9,10,21)          176.5979         estimate D2E/DX2                !
 ! D43   D(7,9,10,22)          -65.1889         estimate D2E/DX2                !
 ! D44   D(19,9,10,11)         -66.3103         estimate D2E/DX2                !
 ! D45   D(19,9,10,21)          55.4756         estimate D2E/DX2                !
 ! D46   D(19,9,10,22)         173.6887         estimate D2E/DX2                !
 ! D47   D(20,9,10,11)         175.4249         estimate D2E/DX2                !
 ! D48   D(20,9,10,21)         -62.7892         estimate D2E/DX2                !
 ! D49   D(20,9,10,22)          55.4239         estimate D2E/DX2                !
 ! D50   D(9,10,11,12)         -52.8223         Frozen                          !
 ! D51   D(9,10,11,23)          67.819          estimate D2E/DX2                !
 ! D52   D(9,10,11,24)        -174.652          estimate D2E/DX2                !
 ! D53   D(21,10,11,12)       -174.7            estimate D2E/DX2                !
 ! D54   D(21,10,11,23)        -54.0587         estimate D2E/DX2                !
 ! D55   D(21,10,11,24)         63.4702         estimate D2E/DX2                !
 ! D56   D(22,10,11,12)         67.398          estimate D2E/DX2                !
 ! D57   D(22,10,11,23)       -171.9607         estimate D2E/DX2                !
 ! D58   D(22,10,11,24)        -54.4318         estimate D2E/DX2                !
 ! D59   D(10,11,12,13)         56.6496         estimate D2E/DX2                !
 ! D60   D(10,11,12,25)        177.4669         estimate D2E/DX2                !
 ! D61   D(10,11,12,26)        -64.7628         estimate D2E/DX2                !
 ! D62   D(23,11,12,13)        -63.8448         estimate D2E/DX2                !
 ! D63   D(23,11,12,25)         56.9725         estimate D2E/DX2                !
 ! D64   D(23,11,12,26)        174.7428         estimate D2E/DX2                !
 ! D65   D(24,11,12,13)        178.5473         estimate D2E/DX2                !
 ! D66   D(24,11,12,25)        -60.6354         estimate D2E/DX2                !
 ! D67   D(24,11,12,26)         57.1349         estimate D2E/DX2                !
 ! D68   D(11,12,13,7)         -60.4563         estimate D2E/DX2                !
 ! D69   D(11,12,13,14)       -179.2264         estimate D2E/DX2                !
 ! D70   D(11,12,13,15)         61.9888         estimate D2E/DX2                !
 ! D71   D(25,12,13,7)         178.7325         estimate D2E/DX2                !
 ! D72   D(25,12,13,14)         59.9624         estimate D2E/DX2                !
 ! D73   D(25,12,13,15)        -58.8224         estimate D2E/DX2                !
 ! D74   D(26,12,13,7)          60.9311         estimate D2E/DX2                !
 ! D75   D(26,12,13,14)        -57.839          estimate D2E/DX2                !
 ! D76   D(26,12,13,15)       -176.6238         estimate D2E/DX2                !
 ! D77   D(7,13,15,16)         -67.1598         Frozen                          !
 ! D78   D(12,13,15,16)        175.4355         estimate D2E/DX2                !
 ! D79   D(14,13,15,16)         57.8786         estimate D2E/DX2                !
 ! D80   D(13,15,16,4)          10.1445         estimate D2E/DX2                !
 ! D81   D(13,15,16,27)       -170.2308         estimate D2E/DX2                !
 --------------------------------------------------------------------------------
 Trust Radius=3.00D-01 FncErr=1.00D-07 GrdErr=1.00D-07 EigMax=2.50D+02 EigMin=1.00D-04
 Number of steps in this run=     20 maximum allowed number of steps=    162.
 GradGradGradGradGradGradGradGradGradGradGradGradGradGradGradGradGradGrad

                          Input orientation:                          
 ---------------------------------------------------------------------
 Center     Atomic      Atomic             Coordinates (Angstroms)
 Number     Number       Type             X           Y           Z
 ---------------------------------------------------------------------
      1          8           0       -3.621880   -1.440110   -0.158870
      2          7           0       -3.255570   -0.273750   -0.024990
      3          8           0       -4.030180    0.671090    0.130380
      4          6           0       -1.753170    0.005140   -0.046870
      5          6           0       -1.361210    1.329920    0.176880
      6          7           0       -0.083800    1.756830    0.430160
      7          6           0        1.196990    0.989150    0.382910
      8          1           0        1.866360    1.481310    1.135430
      9          6           0        1.949540    1.053350   -0.969740
     10          6           0        3.364380    0.468430   -0.797140
     11          6           0        3.310380   -0.952570   -0.214030
     12          6           0        2.473070   -0.998590    1.082310
     13          6           0        1.033110   -0.464480    0.850110
     14          1           0        0.490060   -0.511760    1.823120
     15          7           0        0.371590   -1.329820   -0.129080
     16          6           0       -0.872700   -1.133600   -0.417480
     17          1           0       -2.146530    2.096900    0.278120
     18          1           0        0.159940    2.747370    0.355100
     19          1           0        1.394610    0.481950   -1.743940
     20          1           0        2.029980    2.106510   -1.313310
     21          1           0        3.890780    0.453650   -1.776550
     22          1           0        3.945990    1.117770   -0.105260
     23          1           0        2.858510   -1.636650   -0.967410
     24          1           0        4.340910   -1.315890   -0.008550
     25          1           0        2.420050   -2.047950    1.446660
     26          1           0        2.971870   -0.392510    1.867350
     27          1           0       -1.380090   -1.896690   -1.027310
 ---------------------------------------------------------------------
                    Distance matrix (angstroms):
                    1          2          3          4          5
     1  O    0.000000
     2  N    1.229838   0.000000
     3  O    2.169687   1.231618   0.000000
     4  C    2.365030   1.528223   2.379009   0.000000
     5  C    3.591159   2.490203   2.749476   1.399549   0.000000
     6  N    4.804726   3.793487   4.103975   2.466328   1.370467
     7  C    5.423683   4.646137   5.242923   3.139495   2.589007
     8  H    6.350645   5.537236   6.036205   4.083860   3.370303
     9  C    6.157562   5.454073   6.092080   3.957334   3.514583
    10  C    7.270333   6.706026   7.455259   5.192963   4.901233
    11  C    6.949602   6.603653   7.525869   5.156034   5.214051
    12  C    6.235694   5.879526   6.781317   4.488165   4.576403
    13  C    4.861978   4.381205   5.238744   2.964536   3.066900
    14  H    4.658129   4.183528   4.969615   2.965827   3.086923
    15  N    3.995104   3.779207   4.842163   2.510674   3.189110
    16  C    2.778276   2.563486   3.677871   1.486374   2.580860
    17  H    3.857209   2.634735   2.367044   2.153093   1.102377
    18  H    5.665802   4.575734   4.681724   3.367699   2.086822
    19  H    5.601065   5.014982   5.742577   3.607757   3.464556
    20  H    6.771615   5.938219   6.392981   4.509085   3.784697
    21  H    7.914751   7.393740   8.150170   5.920061   5.671608
    22  H    7.988634   7.335205   7.992142   5.807046   5.318927
    23  H    6.533592   6.334637   7.347439   4.981010   5.283557
    24  H    7.965177   7.667649   8.604797   6.235736   6.288789
    25  H    6.281092   6.125863   7.122587   4.884831   5.226880
    26  H    6.977146   6.509690   7.292257   5.113547   4.959842
    27  H    2.447095   2.675071   3.867392   2.171960   3.444044
                    6          7          8          9         10
     6  N    0.000000
     7  C    1.493984   0.000000
     8  H    2.091995   1.120966   0.000000
     9  C    2.566919   1.549231   2.149839   0.000000
    10  C    3.880230   2.522151   2.646661   1.540680   0.000000
    11  C    4.390477   2.931387   3.135284   2.539035   1.536937
    12  C    3.815131   2.463463   2.553590   2.948805   2.545371
    13  C    2.521520   1.535634   2.135840   2.540769   3.003094
    14  H    2.723262   2.196972   2.517826   3.518482   4.011016
    15  N    3.169785   2.514168   3.425752   2.979284   3.554828
    16  C    3.113751   3.070881   4.092888   3.612863   4.545711
    17  H    2.096096   3.523807   4.149364   4.407260   5.846215
    18  H    1.022845   2.041466   2.263557   2.797780   4.097519
    19  H    2.921939   2.195403   3.084160   1.110779   2.185545
    20  H    2.762251   2.195342   2.532583   1.110701   2.174939
    21  H    4.729179   3.493785   3.692423   2.186091   1.112007
    22  H    4.115128   2.794969   2.448741   2.176531   1.112929
    23  H    4.703838   3.388043   3.889469   2.839425   2.171695
    24  H    5.404825   3.917995   3.905946   3.500833   2.181578
    25  H    4.666786   3.442589   3.585961   3.959600   3.501223
    26  H    4.002786   2.694948   2.295443   3.344361   2.827506
    27  H    4.141593   4.118026   5.160210   4.448875   5.306295
                   11         12         13         14         15
    11  C    0.000000
    12  C    1.543925   0.000000
    13  C    2.560583   1.553279   0.000000
    14  H    3.506922   2.172126   1.115297   0.000000
    15  N    2.964122   2.448142   1.464662   2.119986   0.000000
    16  C    4.191935   3.669029   2.384663   2.695197   1.292259
    17  H    6.270514   5.618673   4.122857   4.017927   4.271902
    18  H    4.892723   4.462244   3.365032   3.589706   4.111290
    19  H    2.840536   3.367902   2.784871   3.811770   2.633791
    20  H    3.493682   3.946767   3.504872   4.366221   3.995125
    21  H    2.180777   3.505992   3.988557   5.045249   4.275467
    22  H    2.168442   2.838802   3.449800   4.279891   4.332159
    23  H    1.113433   2.181063   2.830097   3.829098   2.642293
    24  H    1.111852   2.186202   3.521894   4.339434   3.971174
    25  H    2.179550   1.112078   2.187887   2.495288   2.682323
    26  H    2.181834   1.110145   2.190604   2.485067   3.409654
    27  H    4.853174   4.483740   3.376309   3.679734   2.048546
                   16         17         18         19         20
    16  C    0.000000
    17  H    3.541558   0.000000
    18  H    4.089640   2.397674   0.000000
    19  H    3.083860   4.385939   3.326035   0.000000
    20  H    4.441438   4.469449   2.586763   1.796756   0.000000
    21  H    5.201651   6.585670   4.870755   2.496543   2.531623
    22  H    5.327844   6.182595   4.147493   3.098238   2.471454
    23  H    3.804919   6.367195   5.315162   2.689697   3.849332
    24  H    5.232799   7.335952   5.841475   3.863223   4.330776
    25  H    3.892718   6.276856   5.412457   4.199030   5.002912
    26  H    4.533253   5.909385   4.478024   4.036563   4.153174
    27  H    1.100747   4.270871   5.084294   3.724305   5.266496
                   21         22         23         24         25
    21  H    0.000000
    22  H    1.799254   0.000000
    23  H    2.467720   3.084274   0.000000
    24  H    2.541597   2.467390   1.794383   0.000000
    25  H    4.337065   3.841709   2.487800   2.518581   0.000000
    26  H    3.852063   2.668529   3.097838   2.499180   1.794984
    27  H    5.819582   6.189045   4.246992   5.839952   4.537011
                   26         27
    26  H    0.000000
    27  H    5.438857   0.000000
 Symmetry turned off by external request.
 Stoichiometry    C9H13N3O2
 Framework group  C1[X(C9H13N3O2)]
 Deg. of freedom    75
 Full point group                 C1      NOp   1
 Rotational constants (GHZ):           1.6720878           0.4009971           0.3553268
 Standard basis: 6-31G(d) (6D, 7F)
   236 basis functions,   444 primitive gaussians,   236 cartesian basis functions
    52 alpha electrons       52 beta electrons
       nuclear repulsion energy       917.5178257737 Hartrees.
 NAtoms=   27 NActive=   27 NUniq=   27 SFac= 1.00D+00 NAtFMM=   60 NAOKFM=F Big=F
 Integral buffers will be    131072 words long.
 Raffenetti 1 integral format.
 Two-electron integral symmetry is turned off.
 One-electron integrals computed using PRISM.
 NBasis=   236 RedAO= T EigKep=  1.28D-03  NBF=   236
 NBsUse=   236 1.00D-06 EigRej= -1.00D+00 NBFU=   236
 ExpMin= 1.61D-01 ExpMax= 5.48D+03 ExpMxC= 8.25D+02 IAcc=3 IRadAn=         5 AccDes= 0.00D+00
 Harris functional with IExCor=  205 and IRadAn=       5 diagonalized for initial guess.
 HarFok:  IExCor=  205 AccDes= 0.00D+00 IRadAn=         5 IDoV= 1 UseB2=F ITyADJ=14
 ICtDFT=  3500011 ScaDFX=  1.000000  1.000000  1.000000  1.000000
 FoFCou: FMM=F IPFlag=           0 FMFlag=      100000 FMFlg1=           0
         NFxFlg=           0 DoJE=T BraDBF=F KetDBF=T FulRan=T
         wScrn=  0.000000 ICntrl=       500 IOpCl=  0 I1Cent=   200000004 NGrid=           0
         NMat0=    1 NMatS0=      1 NMatT0=    0 NMatD0=    1 NMtDS0=    0 NMtDT0=    0
 Symmetry not used in FoFCou.
 Keep R1 ints in memory in canonical form, NReq=397720213.
 Requested convergence on RMS density matrix=1.00D-08 within 128 cycles.
 Requested convergence on MAX density matrix=1.00D-06.
 Requested convergence on             energy=1.00D-06.
 No special actions if energy rises.
 SCF Done:  E(RHF) =  -661.281606314     A.U. after   16 cycles
            NFock= 16  Conv=0.67D-08     -V/T= 2.0037
 ExpMin= 1.61D-01 ExpMax= 5.48D+03 ExpMxC= 8.25D+02 IAcc=3 IRadAn=         5 AccDes= 0.00D+00
 HarFok:  IExCor=  205 AccDes= 0.00D+00 IRadAn=         5 IDoV=-2 UseB2=F ITyADJ=14
 ICtDFT= 12500011 ScaDFX=  1.000000  1.000000  1.000000  1.000000
 Range of M.O.s used for correlation:    15   236
 NBasis=   236 NAE=    52 NBE=    52 NFC=    14 NFV=     0
 NROrb=    222 NOA=    38 NOB=    38 NVA=   184 NVB=   184
 Fully direct method using O(ONN) memory.
 JobTyp=1 Pass  1:  I=  15 to  52 NPSUse=  4 ParTrn=T ParDer=T DoDerP=T.
 Spin components of T(2) and E(2):
     alpha-alpha T2 =       0.9201559264D-01 E2=     -0.2718317669D+00
     alpha-beta  T2 =       0.4995982823D+00 E2=     -0.1493748195D+01
     beta-beta   T2 =       0.9201559264D-01 E2=     -0.2718317669D+00
 ANorm=    0.1297547482D+01
 E2 =    -0.2037411729D+01 EUMP2 =    -0.66331901804305D+03
          IDoAtm=111111111111111111111111111
          Differentiating once with respect to electric field.
                with respect to dipole field.
          Differentiating once with respect to nuclear coordinates.
 Keep R1 ints in memory in canonical form, NReq=397723379.
          There are     1 degrees of freedom in the 1st order CPHF.  IDoFFX=0 NUNeed=     1.
 LinEq1:  Iter=  0 NonCon=     1 RMS=4.62D-03 Max=1.17D-01 NDo=     1
 AX will form     1 AO Fock derivatives at one time.
 LinEq1:  Iter=  1 NonCon=     1 RMS=1.57D-03 Max=3.07D-02 NDo=     1
 LinEq1:  Iter=  2 NonCon=     1 RMS=6.42D-04 Max=1.89D-02 NDo=     1
 LinEq1:  Iter=  3 NonCon=     1 RMS=2.94D-04 Max=9.44D-03 NDo=     1
 LinEq1:  Iter=  4 NonCon=     1 RMS=9.03D-05 Max=2.11D-03 NDo=     1
 LinEq1:  Iter=  5 NonCon=     1 RMS=3.73D-05 Max=1.87D-03 NDo=     1
 LinEq1:  Iter=  6 NonCon=     1 RMS=1.52D-05 Max=5.66D-04 NDo=     1
 LinEq1:  Iter=  7 NonCon=     1 RMS=5.85D-06 Max=9.87D-05 NDo=     1
 LinEq1:  Iter=  8 NonCon=     1 RMS=2.32D-06 Max=5.78D-05 NDo=     1
 LinEq1:  Iter=  9 NonCon=     1 RMS=8.52D-07 Max=2.45D-05 NDo=     1
 LinEq1:  Iter= 10 NonCon=     1 RMS=4.18D-07 Max=1.50D-05 NDo=     1
 LinEq1:  Iter= 11 NonCon=     1 RMS=1.50D-07 Max=5.70D-06 NDo=     1
 LinEq1:  Iter= 12 NonCon=     1 RMS=5.24D-08 Max=8.31D-07 NDo=     1
 LinEq1:  Iter= 13 NonCon=     1 RMS=1.63D-08 Max=2.91D-07 NDo=     1
 LinEq1:  Iter= 14 NonCon=     1 RMS=4.78D-09 Max=9.01D-08 NDo=     1
 LinEq1:  Iter= 15 NonCon=     1 RMS=1.64D-09 Max=3.40D-08 NDo=     1
 LinEq1:  Iter= 16 NonCon=     1 RMS=6.33D-10 Max=1.26D-08 NDo=     1
 LinEq1:  Iter= 17 NonCon=     1 RMS=2.13D-10 Max=3.62D-09 NDo=     1
 LinEq1:  Iter= 18 NonCon=     0 RMS=7.61D-11 Max=9.06D-10 NDo=     1
 Linear equations converged to 1.000D-10 1.000D-09 after    18 iterations.
 End of Minotr F.D. properties file   721 does not exist.
 End of Minotr F.D. properties file   722 does not exist.
 End of Minotr F.D. properties file   788 does not exist.

 **********************************************************************

            Population analysis using the SCF Density.

 **********************************************************************

 Alpha  occ. eigenvalues --  -20.59706 -20.59282 -15.85187 -15.63775 -15.56619
 Alpha  occ. eigenvalues --  -11.35960 -11.30416 -11.30175 -11.29915 -11.27615
 Alpha  occ. eigenvalues --  -11.24698 -11.23923 -11.23370 -11.22855  -1.58376
 Alpha  occ. eigenvalues --   -1.37878  -1.28812  -1.22678  -1.13301  -1.08362
 Alpha  occ. eigenvalues --   -1.01809  -1.00711  -0.93649  -0.88937  -0.84966
 Alpha  occ. eigenvalues --   -0.81535  -0.77938  -0.77015  -0.74319  -0.71276
 Alpha  occ. eigenvalues --   -0.70189  -0.69714  -0.67343  -0.64370  -0.63249
 Alpha  occ. eigenvalues --   -0.61890  -0.60012  -0.57316  -0.56630  -0.54846
 Alpha  occ. eigenvalues --   -0.53960  -0.50674  -0.49577  -0.48394  -0.47900
 Alpha  occ. eigenvalues --   -0.47645  -0.46193  -0.45672  -0.43940  -0.41998
 Alpha  occ. eigenvalues --   -0.39750  -0.33706
 Alpha virt. eigenvalues --    0.07574   0.11913   0.17703   0.21203   0.23172
 Alpha virt. eigenvalues --    0.24233   0.26519   0.27912   0.28515   0.28859
 Alpha virt. eigenvalues --    0.30047   0.31079   0.31817   0.32335   0.33296
 Alpha virt. eigenvalues --    0.33829   0.34357   0.35544   0.37514   0.38657
 Alpha virt. eigenvalues --    0.40455   0.41577   0.44265   0.45185   0.45538
 Alpha virt. eigenvalues --    0.46573   0.49770   0.53026   0.57181   0.58817
 Alpha virt. eigenvalues --    0.63295   0.68753   0.69249   0.72273   0.73991
 Alpha virt. eigenvalues --    0.74912   0.75753   0.75861   0.78078   0.78734
 Alpha virt. eigenvalues --    0.80528   0.83713   0.84623   0.85530   0.87776
 Alpha virt. eigenvalues --    0.88820   0.90126   0.90399   0.91906   0.93937
 Alpha virt. eigenvalues --    0.94988   0.97197   0.98875   1.00508   1.02034
 Alpha virt. eigenvalues --    1.02768   1.05057   1.06555   1.06985   1.08557
 Alpha virt. eigenvalues --    1.09735   1.10462   1.11379   1.12340   1.13179
 Alpha virt. eigenvalues --    1.13801   1.13934   1.15452   1.16128   1.17212
 Alpha virt. eigenvalues --    1.17862   1.19831   1.21372   1.21942   1.22830
 Alpha virt. eigenvalues --    1.23829   1.24541   1.25448   1.26603   1.27689
 Alpha virt. eigenvalues --    1.29319   1.31344   1.33498   1.36616   1.39832
 Alpha virt. eigenvalues --    1.42115   1.45075   1.47729   1.49352   1.53416
 Alpha virt. eigenvalues --    1.55573   1.56626   1.59876   1.61530   1.66808
 Alpha virt. eigenvalues --    1.68321   1.70721   1.71225   1.73571   1.76236
 Alpha virt. eigenvalues --    1.77999   1.80615   1.84573   1.89425   1.91653
 Alpha virt. eigenvalues --    1.93942   1.96092   1.97858   1.99143   2.00390
 Alpha virt. eigenvalues --    2.03062   2.03448   2.06351   2.09138   2.11899
 Alpha virt. eigenvalues --    2.12431   2.13225   2.17505   2.18777   2.19234
 Alpha virt. eigenvalues --    2.20562   2.22248   2.24032   2.25227   2.26213
 Alpha virt. eigenvalues --    2.29936   2.32024   2.32846   2.35682   2.35950
 Alpha virt. eigenvalues --    2.39429   2.40028   2.42250   2.43493   2.47163
 Alpha virt. eigenvalues --    2.48906   2.49761   2.50603   2.56287   2.57700
 Alpha virt. eigenvalues --    2.60674   2.63019   2.65993   2.68369   2.69100
 Alpha virt. eigenvalues --    2.69714   2.70323   2.74513   2.77122   2.81142
 Alpha virt. eigenvalues --    2.84385   2.86311   2.90188   2.91298   2.94793
 Alpha virt. eigenvalues --    2.97171   2.98364   3.01863   3.04095   3.05575
 Alpha virt. eigenvalues --    3.07520   3.13646   3.18326   3.22875   3.27101
 Alpha virt. eigenvalues --    3.31678   3.33960   3.37342   3.43113   3.59520
 Alpha virt. eigenvalues --    4.10407   4.23606   4.31530   4.36123   4.43017
 Alpha virt. eigenvalues --    4.52466   4.59551   4.60820   4.70535   4.77871
 Alpha virt. eigenvalues --    4.96039   4.99246   5.02766   5.10211
          Condensed to atoms (all electrons):
               1          2          3          4          5          6
     1  O    8.300570   0.313660  -0.089724  -0.079472   0.003574  -0.000011
     2  N    0.313660   5.678806   0.309066   0.268891  -0.046544   0.000800
     3  O   -0.089724   0.309066   8.333148  -0.087437   0.007279   0.000442
     4  C   -0.079472   0.268891  -0.087437   5.250091   0.567068  -0.049792
     5  C    0.003574  -0.046544   0.007279   0.567068   4.676087   0.307844
     6  N   -0.000011   0.000800   0.000442  -0.049792   0.307844   7.170155
     7  C    0.000003  -0.000088   0.000003   0.004473  -0.028951   0.203234
     8  H   -0.000000   0.000001  -0.000000  -0.000247   0.003053  -0.047695
     9  C   -0.000000  -0.000003   0.000000   0.000524   0.000715  -0.057483
    10  C   -0.000000   0.000000  -0.000000  -0.000022  -0.000038   0.003382
    11  C   -0.000000  -0.000000  -0.000000  -0.000012   0.000014  -0.000156
    12  C   -0.000000   0.000001  -0.000000  -0.000142  -0.000155   0.003611
    13  C   -0.000020  -0.000022  -0.000003  -0.009659   0.000424  -0.047221
    14  H   -0.000002  -0.000066   0.000000   0.002811   0.003834  -0.005413
    15  N    0.000189   0.001657  -0.000013  -0.062772  -0.002822   0.001336
    16  C    0.003322  -0.026857   0.002037   0.316288  -0.041077  -0.000531
    17  H    0.000139  -0.004631   0.012704  -0.025446   0.375931  -0.034031
    18  H    0.000000  -0.000035   0.000006   0.001505  -0.025188   0.328921
    19  H    0.000000  -0.000001   0.000000  -0.000926   0.001055   0.000280
    20  H    0.000000  -0.000000   0.000000  -0.000019   0.000034  -0.001206
    21  H   -0.000000  -0.000000   0.000000   0.000000   0.000001  -0.000061
    22  H   -0.000000   0.000000  -0.000000  -0.000000  -0.000001  -0.000094
    23  H    0.000000  -0.000000   0.000000   0.000025  -0.000001  -0.000024
    24  H    0.000000   0.000000   0.000000   0.000000  -0.000000   0.000005
    25  H    0.000000  -0.000000   0.000000   0.000019  -0.000000  -0.000071
    26  H    0.000000  -0.000000   0.000000   0.000005   0.000000  -0.000069
    27  H    0.005577  -0.000482   0.000011  -0.067506   0.001969   0.000028
               7          8          9         10         11         12
     1  O    0.000003  -0.000000  -0.000000  -0.000000  -0.000000  -0.000000
     2  N   -0.000088   0.000001  -0.000003   0.000000  -0.000000   0.000001
     3  O    0.000003  -0.000000   0.000000  -0.000000  -0.000000  -0.000000
     4  C    0.004473  -0.000247   0.000524  -0.000022  -0.000012  -0.000142
     5  C   -0.028951   0.003053   0.000715  -0.000038   0.000014  -0.000155
     6  N    0.203234  -0.047695  -0.057483   0.003382  -0.000156   0.003611
     7  C    5.019719   0.414736   0.342128  -0.049368  -0.007829  -0.064372
     8  H    0.414736   0.543674  -0.059108   0.001243  -0.000304  -0.002886
     9  C    0.342128  -0.059108   5.179552   0.318255  -0.053168  -0.005970
    10  C   -0.049368   0.001243   0.318255   5.126727   0.332662  -0.060347
    11  C   -0.007829  -0.000304  -0.053168   0.332662   5.124604   0.330308
    12  C   -0.064372  -0.002886  -0.005970  -0.060347   0.330308   5.138386
    13  C    0.327293  -0.039208  -0.053033  -0.001258  -0.047818   0.368267
    14  H   -0.040303  -0.000979   0.003846  -0.000392   0.003971  -0.040909
    15  N   -0.057686   0.003916  -0.012404   0.001349  -0.007698  -0.074453
    16  C   -0.002492   0.000040  -0.000853  -0.000030  -0.000004   0.002484
    17  H    0.001410  -0.000020  -0.000072   0.000001   0.000000   0.000001
    18  H   -0.029672  -0.003216   0.000784  -0.000110   0.000011  -0.000142
    19  H   -0.035346   0.004035   0.386693  -0.032641  -0.002222   0.000601
    20  H   -0.042009  -0.001848   0.397169  -0.037179   0.004131  -0.000371
    21  H    0.004062  -0.000078  -0.035808   0.400027  -0.035793   0.004222
    22  H   -0.004326   0.003514  -0.045746   0.396005  -0.045618  -0.001213
    23  H    0.000442   0.000034  -0.002009  -0.040089   0.396653  -0.036552
    24  H   -0.000144  -0.000102   0.004407  -0.038515   0.400285  -0.037874
    25  H    0.005023  -0.000008  -0.000374   0.004100  -0.033847   0.395300
    26  H   -0.004467   0.001564   0.001074  -0.002428  -0.042413   0.394617
    27  H   -0.000410   0.000009  -0.000061   0.000005   0.000005  -0.000020
              13         14         15         16         17         18
     1  O   -0.000020  -0.000002   0.000189   0.003322   0.000139   0.000000
     2  N   -0.000022  -0.000066   0.001657  -0.026857  -0.004631  -0.000035
     3  O   -0.000003   0.000000  -0.000013   0.002037   0.012704   0.000006
     4  C   -0.009659   0.002811  -0.062772   0.316288  -0.025446   0.001505
     5  C    0.000424   0.003834  -0.002822  -0.041077   0.375931  -0.025188
     6  N   -0.047221  -0.005413   0.001336  -0.000531  -0.034031   0.328921
     7  C    0.327293  -0.040303  -0.057686  -0.002492   0.001410  -0.029672
     8  H   -0.039208  -0.000979   0.003916   0.000040  -0.000020  -0.003216
     9  C   -0.053033   0.003846  -0.012404  -0.000853  -0.000072   0.000784
    10  C   -0.001258  -0.000392   0.001349  -0.000030   0.000001  -0.000110
    11  C   -0.047818   0.003971  -0.007698  -0.000004   0.000000   0.000011
    12  C    0.368267  -0.040909  -0.074453   0.002484   0.000001  -0.000142
    13  C    5.021110   0.403902   0.241608  -0.069469  -0.000045   0.003864
    14  H    0.403902   0.516716  -0.035512  -0.004763   0.000052  -0.000007
    15  N    0.241608  -0.035512   6.939529   0.588676  -0.000049  -0.000124
    16  C   -0.069469  -0.004763   0.588676   4.699137   0.001781  -0.000215
    17  H   -0.000045   0.000052  -0.000049   0.001781   0.385400  -0.002151
    18  H    0.003864  -0.000007  -0.000124  -0.000215  -0.002151   0.327445
    19  H   -0.005986   0.000064   0.006724   0.002606   0.000015  -0.000124
    20  H    0.003902  -0.000050   0.000079  -0.000035  -0.000003   0.002572
    21  H   -0.000397   0.000009  -0.000032   0.000002  -0.000000  -0.000000
    22  H    0.000321  -0.000044   0.000003  -0.000001   0.000000   0.000003
    23  H   -0.005913   0.000009   0.006866   0.000057   0.000000   0.000000
    24  H    0.004149  -0.000058   0.000042   0.000005   0.000000  -0.000000
    25  H   -0.034290  -0.002674   0.000865  -0.000063  -0.000000   0.000003
    26  H   -0.044974  -0.000884   0.004197  -0.000052   0.000000  -0.000001
    27  H    0.004912  -0.000170  -0.040055   0.403250  -0.000060   0.000002
              19         20         21         22         23         24
     1  O    0.000000   0.000000  -0.000000  -0.000000   0.000000   0.000000
     2  N   -0.000001  -0.000000  -0.000000   0.000000  -0.000000   0.000000
     3  O    0.000000   0.000000   0.000000  -0.000000   0.000000   0.000000
     4  C   -0.000926  -0.000019   0.000000  -0.000000   0.000025   0.000000
     5  C    0.001055   0.000034   0.000001  -0.000001  -0.000001  -0.000000
     6  N    0.000280  -0.001206  -0.000061  -0.000094  -0.000024   0.000005
     7  C   -0.035346  -0.042009   0.004062  -0.004326   0.000442  -0.000144
     8  H    0.004035  -0.001848  -0.000078   0.003514   0.000034  -0.000102
     9  C    0.386693   0.397169  -0.035808  -0.045746  -0.002009   0.004407
    10  C   -0.032641  -0.037179   0.400027   0.396005  -0.040089  -0.038515
    11  C   -0.002222   0.004131  -0.035793  -0.045618   0.396653   0.400285
    12  C    0.000601  -0.000371   0.004222  -0.001213  -0.036552  -0.037874
    13  C   -0.005986   0.003902  -0.000397   0.000321  -0.005913   0.004149
    14  H    0.000064  -0.000050   0.000009  -0.000044   0.000009  -0.000058
    15  N    0.006724   0.000079  -0.000032   0.000003   0.006866   0.000042
    16  C    0.002606  -0.000035   0.000002  -0.000001   0.000057   0.000005
    17  H    0.000015  -0.000003  -0.000000   0.000000   0.000000   0.000000
    18  H   -0.000124   0.002572  -0.000000   0.000003   0.000000  -0.000000
    19  H    0.506790  -0.024006  -0.002599   0.003759   0.001646  -0.000071
    20  H   -0.024006   0.549415  -0.002643  -0.002959  -0.000049  -0.000090
    21  H   -0.002599  -0.002643   0.525926  -0.024682  -0.002810  -0.002070
    22  H    0.003759  -0.002959  -0.024682   0.569066   0.004059  -0.003593
    23  H    0.001646  -0.000049  -0.002810   0.004059   0.509257  -0.024971
    24  H   -0.000071  -0.000090  -0.002070  -0.003593  -0.024971   0.541102
    25  H   -0.000028   0.000011  -0.000086  -0.000083  -0.002081  -0.002390
    26  H    0.000022  -0.000035  -0.000073   0.002466   0.003822  -0.002758
    27  H    0.000079   0.000000  -0.000000   0.000000  -0.000022  -0.000000
              25         26         27
     1  O    0.000000   0.000000   0.005577
     2  N   -0.000000  -0.000000  -0.000482
     3  O    0.000000   0.000000   0.000011
     4  C    0.000019   0.000005  -0.067506
     5  C   -0.000000   0.000000   0.001969
     6  N   -0.000071  -0.000069   0.000028
     7  C    0.005023  -0.004467  -0.000410
     8  H   -0.000008   0.001564   0.000009
     9  C   -0.000374   0.001074  -0.000061
    10  C    0.004100  -0.002428   0.000005
    11  C   -0.033847  -0.042413   0.000005
    12  C    0.395300   0.394617  -0.000020
    13  C   -0.034290  -0.044974   0.004912
    14  H   -0.002674  -0.000884  -0.000170
    15  N    0.000865   0.004197  -0.040055
    16  C   -0.000063  -0.000052   0.403250
    17  H   -0.000000   0.000000  -0.000060
    18  H    0.000003  -0.000001   0.000002
    19  H   -0.000028   0.000022   0.000079
    20  H    0.000011  -0.000035   0.000000
    21  H   -0.000086  -0.000073  -0.000000
    22  H   -0.000083   0.002466   0.000000
    23  H   -0.002081   0.003822  -0.000022
    24  H   -0.002390  -0.002758  -0.000000
    25  H    0.509791  -0.023095  -0.000011
    26  H   -0.023095   0.561992   0.000001
    27  H   -0.000011   0.000001   0.452652
 Mulliken charges:
               1
     1  O   -0.457808
     2  N    0.505846
     3  O   -0.487520
     4  C   -0.028249
     5  C    0.195894
     6  N   -0.776179
     7  C    0.044939
     8  H    0.179880
     9  C   -0.309056
    10  C   -0.321339
    11  C   -0.315761
    12  C   -0.312389
    13  C   -0.020436
    14  H    0.197013
    15  N   -0.503418
    16  C    0.126756
    17  H    0.289074
    18  H    0.395868
    19  H    0.189579
    20  H    0.155190
    21  H    0.172885
    22  H    0.149163
    23  H    0.191651
    24  H    0.162643
    25  H    0.183991
    26  H    0.151489
    27  H    0.240297
 Sum of Mulliken charges =  -0.00000
 Mulliken charges with hydrogens summed into heavy atoms:
               1
     1  O   -0.457808
     2  N    0.505846
     3  O   -0.487520
     4  C   -0.028249
     5  C    0.484968
     6  N   -0.380311
     7  C    0.224818
     9  C    0.035712
    10  C    0.000708
    11  C    0.038533
    12  C    0.023090
    13  C    0.176577
    15  N   -0.503418
    16  C    0.367053
 Electronic spatial extent (au):  <R**2>=           3123.5406
 Charge=             -0.0000 electrons
 Dipole moment (field-independent basis, Debye):
    X=              5.4560    Y=              4.6402    Z=              0.3648  Tot=              7.1717
 Quadrupole moment (field-independent basis, Debye-Ang):
   XX=           -105.6470   YY=            -79.8821   ZZ=            -82.4232
   XY=             -1.8055   XZ=              1.6078   YZ=              0.0971
 Traceless Quadrupole moment (field-independent basis, Debye-Ang):
   XX=            -16.3296   YY=              9.4353   ZZ=              6.8942
   XY=             -1.8055   XZ=              1.6078   YZ=              0.0971
 Octapole moment (field-independent basis, Debye-Ang**2):
  XXX=            102.0720  YYY=             37.7173  ZZZ=             -5.6754  XYY=             -1.7462
  XXY=             11.8258  XXZ=             -1.9009  XZZ=             -7.6893  YZZ=             -2.8288
  YYZ=              1.2362  XYZ=             -0.3877
 Hexadecapole moment (field-independent basis, Debye-Ang**3):
 XXXX=          -3557.5740 YYYY=           -620.8194 ZZZZ=           -297.1835 XXXY=            -39.0245
 XXXZ=             27.4203 YYYX=            -19.1853 YYYZ=             16.9152 ZZZX=             18.7724
 ZZZY=             10.3449 XXYY=           -656.1404 XXZZ=           -543.2533 YYZZ=           -164.7353
 XXYZ=              2.0934 YYXZ=             12.2043 ZZXY=              3.9485
 N-N= 9.175178257737D+02 E-N=-3.381059271799D+03  KE= 6.588609619594D+02
 Calling FoFJK, ICntrl=  10002127 FMM=F ISym2X=0 I1Cent= 0 IOpClX= 0 NMat=1 NMatS=1 NMatT=0.
 -------------------------------------------------------------------
 Center     Atomic                   Forces (Hartrees/Bohr)
 Number     Number              X              Y              Z
 -------------------------------------------------------------------
      1        8           0.002508914   -0.019135585   -0.002467305
      2        7           0.039860272    0.014194784   -0.005150162
      3        8          -0.005229991    0.016244741    0.002966945
      4        6          -0.004426964    0.008154974    0.003993455
      5        6           0.003141213   -0.017999116    0.006822502
      6        7           0.015183509   -0.005917031   -0.011711238
      7        6          -0.004850422    0.004441528    0.003733122
      8        1          -0.010982914   -0.001527061   -0.007629854
      9        6          -0.003926269    0.000739300   -0.002302493
     10        6           0.002743157   -0.001077838    0.000960058
     11        6          -0.000891546   -0.004595298   -0.002333113
     12        6           0.000689964   -0.008852693   -0.003094386
     13        6           0.008617182   -0.002477699    0.004505693
     14        1           0.001207826    0.004328255   -0.010003385
     15        7           0.000601117   -0.000721206    0.002700364
     16        6          -0.020111910    0.008092276    0.004561767
     17        1           0.007378966   -0.007125411   -0.001584932
     18        1          -0.017715871   -0.001980004    0.001410389
     19        1           0.003107570    0.005737460    0.007709162
     20        1          -0.003213062   -0.007487999    0.002619012
     21        1          -0.004280899    0.002357127    0.009658678
     22        1          -0.004051699   -0.003898692   -0.007370061
     23        1           0.003999701    0.006068621    0.009329121
     24        1          -0.009387712    0.002611187   -0.002051141
     25        1          -0.000837515    0.010628029   -0.002360190
     26        1          -0.004751314   -0.004734020   -0.004326361
     27        1           0.005618697    0.003931369    0.001414355
 -------------------------------------------------------------------
 Cartesian Forces:  Max     0.039860272 RMS     0.008434456

 GradGradGradGradGradGradGradGradGradGradGradGradGradGradGradGradGradGrad
 Berny optimization.
 FormGI is forming the generalized inverse of G from B-inverse, IUseBI=4.
 Internal  Forces:  Max     0.038641124 RMS     0.006941727
 Search for a local minimum.
 Step number   1 out of a maximum of   20
 All quantities printed in internal units (Hartrees-Bohrs-Radians)
 Mixed Optimization -- RFO/linear search
 Second derivative matrix not updated -- first step.
 ITU=  0
     Eigenvalues ---    0.00230   0.00772   0.01099   0.01169   0.01211
     Eigenvalues ---    0.01492   0.01541   0.01781   0.02007   0.02106
     Eigenvalues ---    0.02689   0.03665   0.04508   0.04693   0.04837
     Eigenvalues ---    0.05075   0.05139   0.05304   0.05880   0.06257
     Eigenvalues ---    0.07161   0.07696   0.07714   0.07851   0.07993
     Eigenvalues ---    0.08043   0.08049   0.10454   0.11699   0.12213
     Eigenvalues ---    0.13059   0.14598   0.15249   0.15910   0.16000
     Eigenvalues ---    0.20000   0.22106   0.22948   0.24909   0.25000
     Eigenvalues ---    0.25000   0.25372   0.26191   0.26649   0.27978
     Eigenvalues ---    0.28082   0.28476   0.29588   0.31466   0.31806
     Eigenvalues ---    0.32046   0.32239   0.32292   0.32381   0.32388
     Eigenvalues ---    0.32405   0.32518   0.32526   0.32585   0.33372
     Eigenvalues ---    0.33421   0.33600   0.35275   0.43887   0.44193
     Eigenvalues ---    0.49386   0.67146   0.90415   0.911541000.00000
     Eigenvalues --- 1000.000001000.000001000.000001000.000001000.00000
     Eigenvalues --- 1000.000001000.000001000.000001000.000001000.00000
     Eigenvalues --- 1000.000001000.000001000.000001000.000001000.00000
     Eigenvalues --- 1000.000001000.000001000.000001000.000001000.00000
     Eigenvalues --- 1000.000001000.000001000.000001000.000001000.00000
     Eigenvalues --- 1000.000001000.000001000.000001000.000001000.00000
     Eigenvalues --- 1000.000001000.000001000.000001000.000001000.00000
     Eigenvalues --- 1000.000001000.000001000.000001000.000001000.00000
     Eigenvalues --- 1000.000001000.000001000.000001000.000001000.00000
     Eigenvalues --- 1000.000001000.000001000.000001000.000001000.00000
     Eigenvalues --- 1000.000001000.000001000.000001000.000001000.00000
     Eigenvalues --- 1000.000001000.000001000.000001000.000001000.00000
     Eigenvalues --- 1000.000001000.000001000.000001000.000001000.00000
     Eigenvalues --- 1000.000001000.000001000.000001000.000001000.00000
     Eigenvalues --- 1000.000001000.000001000.000001000.000001000.00000
     Eigenvalues --- 1000.000001000.000001000.000001000.000001000.00000
     Eigenvalues --- 1000.000001000.000001000.000001000.000001000.00000
     Eigenvalues --- 1000.000001000.000001000.000001000.000001000.00000
     Eigenvalues --- 1000.00000
 RFO step:  Lambda=-2.42515544D-02 EMin= 2.30112921D-03
 Linear search not attempted -- first point.
 Iteration  1 RMS(Cart)=  0.06083026 RMS(Int)=  0.00121620
 Iteration  2 RMS(Cart)=  0.00155342 RMS(Int)=  0.00028843
 Iteration  3 RMS(Cart)=  0.00000178 RMS(Int)=  0.00028843
 Iteration  4 RMS(Cart)=  0.00000000 RMS(Int)=  0.00028843
 Iteration  1 RMS(Cart)=  0.00005287 RMS(Int)=  0.00005079
 Iteration  2 RMS(Cart)=  0.00002689 RMS(Int)=  0.00005625
 Iteration  3 RMS(Cart)=  0.00001664 RMS(Int)=  0.00006301
 Iteration  4 RMS(Cart)=  0.00001169 RMS(Int)=  0.00006793
 Iteration  5 RMS(Cart)=  0.00000866 RMS(Int)=  0.00007134
 Iteration  6 RMS(Cart)=  0.00000657 RMS(Int)=  0.00007376
 Iteration  7 RMS(Cart)=  0.00000507 RMS(Int)=  0.00007550
 Iteration  8 RMS(Cart)=  0.00000398 RMS(Int)=  0.00007678
 Iteration  9 RMS(Cart)=  0.00000317 RMS(Int)=  0.00007775
 Iteration 10 RMS(Cart)=  0.00000257 RMS(Int)=  0.00007851
 Iteration 11 RMS(Cart)=  0.00000210 RMS(Int)=  0.00007910
 Iteration 12 RMS(Cart)=  0.00000174 RMS(Int)=  0.00007957
 Iteration 13 RMS(Cart)=  0.00000145 RMS(Int)=  0.00007995
 Iteration 14 RMS(Cart)=  0.00000121 RMS(Int)=  0.00008027
 Iteration 15 RMS(Cart)=  0.00000102 RMS(Int)=  0.00008053
 Iteration 16 RMS(Cart)=  0.00000086 RMS(Int)=  0.00008075
 Variable       Old X    -DE/DX   Delta X   Delta X   Delta X     New X
                                 (Linear)    (Quad)   (Total)
    R1        2.32406   0.01767   0.00000   0.01888   0.01888   2.34294
    R2        2.32742   0.01613   0.00000   0.01737   0.01737   2.34479
    R3        2.88792  -0.03864   0.00000  -0.12070  -0.12070   2.76722
    R4        2.64477  -0.03376   0.00000  -0.07303  -0.07271   2.57205
    R5        2.80884  -0.02177   0.00000  -0.06276  -0.06237   2.74647
    R6        2.58981  -0.02541   0.00000  -0.04904  -0.04897   2.54084
    R7        2.08319  -0.01036   0.00000  -0.02890  -0.02890   2.05429
    R8        2.82322  -0.01892   0.00000  -0.05205  -0.05230   2.77092
    R9        1.93290  -0.00624   0.00000  -0.01348  -0.01348   1.91942
   R10        2.11832  -0.01235   0.00000  -0.03644  -0.03644   2.08188
   R11        2.92762  -0.01291   0.00000  -0.04329  -0.04331   2.88431
   R12        2.90193  -0.00302   0.00000  -0.00439  -0.00450   2.89743
   R13        2.91146  -0.00442   0.00000  -0.01425  -0.01428   2.89718
   R14        2.09907  -0.00988   0.00000  -0.02827  -0.02827   2.07080
   R15        2.09892  -0.00814   0.00000  -0.02330  -0.02330   2.07562
   R16        2.90439  -0.00172   0.00000  -0.00724  -0.00730   2.89709
   R17        2.10139  -0.01056   0.00000  -0.03035  -0.03035   2.07104
   R18        2.10313  -0.00897   0.00000  -0.02585  -0.02585   2.07728
   R19        2.91759  -0.00912   0.00000  -0.02939  -0.02937   2.88822
   R20        2.10408  -0.01166   0.00000  -0.03365  -0.03365   2.07044
   R21        2.10110  -0.00993   0.00000  -0.02852  -0.02852   2.07258
   R22        2.93527  -0.01079   0.00000  -0.03641  -0.03638   2.89889
   R23        2.10152  -0.01076   0.00000  -0.03092  -0.03092   2.07060
   R24        2.09787  -0.00778   0.00000  -0.02222  -0.02222   2.07565
   R25        2.10761  -0.00950   0.00000  -0.02756  -0.02756   2.08005
   R26        2.76781  -0.00538   0.00000  -0.01054  -0.01091   2.75690
   R27        2.44202  -0.00543   0.00000  -0.00732  -0.00725   2.43477
   R28        2.08011  -0.00610   0.00000  -0.01693  -0.01693   2.06318
    A1        2.15791   0.01119   0.00000   0.04083   0.04082   2.19873
    A2        2.05368  -0.00774   0.00000  -0.02819  -0.02820   2.02548
    A3        2.07158  -0.00346   0.00000  -0.01260  -0.01261   2.05898
    A4        2.03285  -0.00798   0.00000  -0.02790  -0.02895   2.00390
    A5        2.03321  -0.00259   0.00000  -0.00803  -0.00911   2.02410
    A6        2.21324   0.01040   0.00000   0.02994   0.02977   2.24301
    A7        2.19624   0.00674   0.00000   0.02164   0.02219   2.21843
    A8        2.06434  -0.00339   0.00000  -0.01032  -0.01073   2.05361
    A9        2.01563  -0.00305   0.00000  -0.00836  -0.00879   2.00684
   A10        2.25644  -0.00611   0.00000  -0.02183  -0.02189   2.23456
   A11        2.10624  -0.01248   0.00000  -0.07165  -0.07196   2.03428
   A12        1.86608   0.01885   0.00000   0.10117   0.10139   1.96746
   A13        1.83909  -0.00236   0.00000  -0.02011  -0.01992   1.81917
   A14        2.00728  -0.00061   0.00000  -0.01610  -0.01618   1.99111
   A15        1.96633   0.00127   0.00000   0.00412   0.00361   1.96993
   A16        1.85238   0.00282   0.00000   0.02418   0.02400   1.87637
   A17        1.84948   0.00127   0.00000   0.02415   0.02394   1.87342
   A18        1.93553  -0.00208   0.00000  -0.01127  -0.01092   1.92461
   A19        1.90979   0.00015   0.00000  -0.00479  -0.00491   1.90488
   A20        1.92256  -0.00066   0.00000  -0.01351  -0.01349   1.90907
   A21        1.92256  -0.00176   0.00000  -0.00674  -0.00674   1.91581
   A22        1.91938  -0.00049   0.00000   0.00482   0.00476   1.92414
   A23        1.90512   0.00315   0.00000   0.02530   0.02530   1.93042
   A24        1.88425  -0.00036   0.00000  -0.00466  -0.00491   1.87934
   A25        1.94040  -0.00081   0.00000   0.00596   0.00585   1.94625
   A26        1.91887  -0.00075   0.00000  -0.00723  -0.00725   1.91162
   A27        1.90503   0.00029   0.00000  -0.00306  -0.00313   1.90190
   A28        1.91612   0.00068   0.00000   0.00697   0.00702   1.92314
   A29        1.89857   0.00182   0.00000   0.01133   0.01135   1.90993
   A30        1.88380  -0.00121   0.00000  -0.01445  -0.01454   1.86926
   A31        1.94461   0.00104   0.00000   0.00612   0.00624   1.95085
   A32        1.90243   0.00036   0.00000   0.00558   0.00554   1.90797
   A33        1.91736   0.00041   0.00000   0.00505   0.00502   1.92238
   A34        1.90680  -0.00128   0.00000  -0.01480  -0.01484   1.89195
   A35        1.91532  -0.00058   0.00000   0.00021   0.00011   1.91543
   A36        1.87594   0.00001   0.00000  -0.00257  -0.00260   1.87335
   A37        1.94657  -0.00332   0.00000  -0.01946  -0.01947   1.92711
   A38        1.90612   0.00247   0.00000   0.01600   0.01584   1.92195
   A39        1.91113   0.00164   0.00000   0.01445   0.01442   1.92555
   A40        1.90630   0.00047   0.00000  -0.00292  -0.00277   1.90353
   A41        1.91189  -0.00026   0.00000  -0.00395  -0.00388   1.90801
   A42        1.88062  -0.00091   0.00000  -0.00359  -0.00377   1.87685
   A43        1.84631   0.00506   0.00000   0.02379   0.02382   1.87014
   A44        1.93640  -0.00434   0.00000  -0.02859  -0.02901   1.90739
   A45        1.98675  -0.00001   0.00000   0.00693   0.00710   1.99385
   A46        1.88220   0.00206   0.00000   0.02905   0.02932   1.91152
   A47        1.89177  -0.00414   0.00000  -0.02880  -0.02878   1.86299
   A48        1.91590   0.00158   0.00000  -0.00012  -0.00001   1.91589
   A49        2.08792  -0.00587   0.00000  -0.01437  -0.01477   2.07315
   A50        2.25371  -0.00477   0.00000  -0.02215  -0.02205   2.23166
   A51        1.97817   0.00508   0.00000   0.02561   0.02487   2.00304
   A52        2.05129  -0.00033   0.00000  -0.00375  -0.00448   2.04681
    D1       -3.08556  -0.00058   0.00000  -0.06603  -0.06448   3.13314
    D2        0.14413   0.00075   0.00000   0.00000   0.00000   0.14413
    D3        0.05042  -0.00131   0.00000  -0.05743  -0.05666  -0.00623
    D4       -3.00306   0.00001   0.00000   0.00860   0.00782  -2.99524
    D5        2.93036   0.00411   0.00000   0.07649   0.07702   3.00738
    D6       -0.07849   0.00159   0.00000   0.04917   0.04935  -0.02914
    D7       -0.30975   0.00173   0.00000   0.00000   0.00000  -0.30975
    D8        2.96458  -0.00079   0.00000  -0.02733  -0.02767   2.93692
    D9       -2.72250  -0.00381   0.00000  -0.07779  -0.07839  -2.80088
   D10        0.42542  -0.00068   0.00000  -0.01974  -0.02027   0.40516
   D11        0.51763  -0.00116   0.00000  -0.00031   0.00032   0.51796
   D12       -2.61763   0.00197   0.00000   0.05775   0.05845  -2.55919
   D13        0.13178  -0.00358   0.00000  -0.02342  -0.02333   0.10845
   D14        2.87698   0.00112   0.00000   0.02365   0.02267   2.89966
   D15       -3.13930  -0.00117   0.00000   0.00303   0.00350  -3.13581
   D16       -0.39410   0.00353   0.00000   0.05009   0.04950  -0.34460
   D17       -2.62676  -0.00004   0.00000   0.00521   0.00545  -2.62131
   D18        1.62306  -0.00162   0.00000  -0.00256  -0.00244   1.62061
   D19       -0.61816   0.00071   0.00000   0.02422   0.02398  -0.59418
   D20        0.86928   0.00066   0.00000  -0.00929  -0.00963   0.85965
   D21       -1.16409  -0.00092   0.00000  -0.01706  -0.01752  -1.18161
   D22        2.87788   0.00141   0.00000   0.00972   0.00890   2.88678
   D23        2.94516   0.00217   0.00000   0.02681   0.02663   2.97180
   D24       -1.22597   0.00124   0.00000   0.02117   0.02103  -1.20494
   D25        0.85073  -0.00072   0.00000   0.00281   0.00273   0.85346
   D26        0.91938   0.00355   0.00000   0.04449   0.04450   0.96388
   D27        3.03144   0.00262   0.00000   0.03885   0.03889   3.07033
   D28       -1.17505   0.00066   0.00000   0.02049   0.02060  -1.15446
   D29       -1.08153   0.00153   0.00000   0.00821   0.00823  -1.07330
   D30        1.03052   0.00059   0.00000   0.00258   0.00262   1.03315
   D31        3.10722  -0.00136   0.00000  -0.01579  -0.01567   3.09155
   D32       -2.89859  -0.00048   0.00000  -0.01582  -0.01564  -2.91423
   D33       -0.86197   0.00265   0.00000   0.01765   0.01748  -0.84449
   D34        1.30938   0.00128   0.00000   0.00000  -0.00001   1.30937
   D35       -0.89626  -0.00190   0.00000  -0.02351  -0.02342  -0.91968
   D36        1.14036   0.00122   0.00000   0.00996   0.00969   1.15006
   D37       -2.97147  -0.00014   0.00000  -0.00769  -0.00779  -2.97926
   D38        1.10647   0.00109   0.00000   0.01278   0.01286   1.11933
   D39       -3.14010   0.00422   0.00000   0.04625   0.04598  -3.09412
   D40       -0.96875   0.00285   0.00000   0.02860   0.02849  -0.94025
   D41        0.95665   0.00088   0.00000   0.00000   0.00000   0.95665
   D42        3.08222   0.00069   0.00000   0.00786   0.00781   3.09003
   D43       -1.13776  -0.00106   0.00000  -0.01580  -0.01577  -1.15353
   D44       -1.15733   0.00191   0.00000   0.01672   0.01679  -1.14055
   D45        0.96823   0.00172   0.00000   0.02458   0.02460   0.99283
   D46        3.03144  -0.00002   0.00000   0.00092   0.00101   3.03245
   D47        3.06174   0.00076   0.00000   0.00438   0.00435   3.06609
   D48       -1.09588   0.00057   0.00000   0.01225   0.01216  -1.08372
   D49        0.96733  -0.00118   0.00000  -0.01141  -0.01142   0.95591
   D50       -0.92192  -0.00079   0.00000   0.00000   0.00000  -0.92192
   D51        1.18367  -0.00149   0.00000  -0.01090  -0.01091   1.17276
   D52       -3.04825  -0.00104   0.00000  -0.00782  -0.00785  -3.05611
   D53       -3.04909   0.00024   0.00000   0.00042   0.00044  -3.04865
   D54       -0.94350  -0.00047   0.00000  -0.01047  -0.01047  -0.95397
   D55        1.10776  -0.00001   0.00000  -0.00739  -0.00742   1.10035
   D56        1.17632   0.00024   0.00000   0.00722   0.00725   1.18357
   D57       -3.00128  -0.00046   0.00000  -0.00368  -0.00366  -3.00494
   D58       -0.95001  -0.00001   0.00000  -0.00060  -0.00060  -0.95062
   D59        0.98872  -0.00116   0.00000  -0.01132  -0.01136   0.97736
   D60        3.09738  -0.00106   0.00000  -0.01678  -0.01693   3.08046
   D61       -1.13032   0.00023   0.00000  -0.00339  -0.00336  -1.13368
   D62       -1.11430  -0.00143   0.00000  -0.01240  -0.01239  -1.12669
   D63        0.99436  -0.00132   0.00000  -0.01785  -0.01795   0.97641
   D64        3.04984  -0.00003   0.00000  -0.00447  -0.00438   3.04545
   D65        3.11624  -0.00034   0.00000  -0.00072  -0.00072   3.11552
   D66       -1.05829  -0.00024   0.00000  -0.00617  -0.00628  -1.06457
   D67        0.99719   0.00105   0.00000   0.00721   0.00729   1.00448
   D68       -1.05516   0.00019   0.00000  -0.00167  -0.00158  -1.05674
   D69       -3.12809   0.00157   0.00000   0.00464   0.00429  -3.12380
   D70        1.08191   0.00082   0.00000   0.00447   0.00437   1.08628
   D71        3.11947  -0.00108   0.00000  -0.00727  -0.00712   3.11235
   D72        1.04654   0.00029   0.00000  -0.00096  -0.00125   1.04529
   D73       -1.02664  -0.00045   0.00000  -0.00114  -0.00117  -1.02781
   D74        1.06345  -0.00010   0.00000   0.00107   0.00128   1.06472
   D75       -1.00948   0.00127   0.00000   0.00739   0.00714  -1.00234
   D76       -3.08267   0.00053   0.00000   0.00721   0.00723  -3.07544
   D77       -1.17216   0.00498   0.00000   0.00000  -0.00001  -1.17217
   D78        3.06193   0.00144   0.00000  -0.01460  -0.01457   3.04736
   D79        1.01017   0.00047   0.00000  -0.03279  -0.03307   0.97711
   D80        0.17706   0.00030   0.00000   0.00719   0.00666   0.18371
   D81       -2.97109  -0.00292   0.00000  -0.05284  -0.05263  -3.02372
         Item               Value     Threshold  Converged?
 Maximum Force            0.038641     0.000450     NO 
 RMS     Force            0.007007     0.000300     NO 
 Maximum Displacement     0.298099     0.001800     NO 
 RMS     Displacement     0.061111     0.001200     NO 
 Predicted change in Energy=-1.360426D-02
 GradGradGradGradGradGradGradGradGradGradGradGradGradGradGradGradGradGrad

                          Input orientation:                          
 ---------------------------------------------------------------------
 Center     Atomic      Atomic             Coordinates (Angstroms)
 Number     Number       Type             X           Y           Z
 ---------------------------------------------------------------------
      1          8           0       -3.484664   -1.408065   -0.263562
      2          7           0       -3.123924   -0.239223   -0.061443
      3          8           0       -3.872433    0.737926    0.095159
      4          6           0       -1.678210   -0.012281   -0.009229
      5          6           0       -1.310278    1.280738    0.203475
      6          7           0       -0.069494    1.743140    0.436844
      7          6           0        1.193929    1.000041    0.396554
      8          1           0        1.835467    1.516733    1.128100
      9          6           0        1.903806    1.051256   -0.953662
     10          6           0        3.308578    0.455209   -0.805986
     11          6           0        3.260078   -0.958863   -0.215768
     12          6           0        2.460663   -1.002743    1.086137
     13          6           0        1.045969   -0.452642    0.864185
     14          1           0        0.489827   -0.474003    1.813829
     15          7           0        0.400780   -1.331223   -0.105443
     16          6           0       -0.842801   -1.141084   -0.383635
     17          1           0       -2.100069    2.023102    0.286393
     18          1           0        0.063097    2.747131    0.358783
     19          1           0        1.325802    0.481869   -1.690231
     20          1           0        1.959805    2.090502   -1.304736
     21          1           0        3.804822    0.440419   -1.783036
     22          1           0        3.905320    1.104935   -0.150162
     23          1           0        2.786586   -1.635929   -0.935343
     24          1           0        4.277077   -1.329368   -0.038786
     25          1           0        2.390672   -2.033592    1.450892
     26          1           0        2.963257   -0.410351    1.862621
     27          1           0       -1.330671   -1.878634   -1.023950
 ---------------------------------------------------------------------
                    Distance matrix (angstroms):
                    1          2          3          4          5
     1  O    0.000000
     2  N    1.239830   0.000000
     3  O    2.210050   1.240810   0.000000
     4  C    2.296993   1.464349   2.321276   0.000000
     5  C    3.489375   2.381129   2.621262   1.361071   0.000000
     6  N    4.699367   3.675268   3.948360   2.422488   1.344552
     7  C    5.303203   4.515461   5.082082   3.072236   2.527275
     8  H    6.228560   5.393881   5.852660   3.997164   3.287299
     9  C    5.963230   5.266826   5.879042   3.854076   3.423735
    10  C    7.064995   6.512577   7.242852   5.071629   4.799410
    11  C    6.759852   6.426288   7.338152   5.032431   5.106831
    12  C    6.110065   5.752175   6.642294   4.394441   4.495929
    13  C    4.765635   4.276721   5.118547   2.894464   2.998840
    14  H    4.580895   4.078107   4.842717   2.870036   2.985420
    15  N    3.889419   3.690249   4.752049   2.463953   3.137752
    16  C    2.658033   2.474002   3.597025   1.453370   2.535440
    17  H    3.740650   2.507465   2.197618   2.099558   1.087083
    18  H    5.499052   4.387710   4.426601   3.283586   2.015090
    19  H    5.361699   4.793014   5.502256   3.477648   3.342638
    20  H    6.554865   5.728673   6.148509   4.397179   3.691051
    21  H    7.672177   7.171702   7.909258   5.780568   5.551270
    22  H    7.806401   7.157158   7.790271   5.695950   5.230528
    23  H    6.311243   6.135847   7.144204   4.840281   5.156369
    24  H    7.765393   7.480892   8.408695   6.099264   6.171699
    25  H    6.152253   5.993137   6.981820   4.772154   5.122291
    26  H    6.862344   6.386319   7.153259   5.020507   4.886271
    27  H    2.332233   2.613398   3.815671   2.152607   3.389487
                    6          7          8          9         10
     6  N    0.000000
     7  C    1.466306   0.000000
     8  H    2.039110   1.101681   0.000000
     9  C    2.511199   1.526313   2.134262   0.000000
    10  C    3.822925   2.492927   2.652844   1.533122   0.000000
    11  C    4.337369   2.912253   3.156592   2.534667   1.533072
    12  C    3.789874   2.468053   2.596226   2.947844   2.534702
    13  C    2.499667   1.533252   2.138082   2.510411   2.955176
    14  H    2.669204   2.162691   2.498799   3.461901   3.958816
    15  N    3.157045   2.513141   3.419182   2.941899   3.483876
    16  C    3.096762   3.056367   4.064782   3.560216   4.467715
    17  H    2.055298   3.450972   4.056270   4.302701   5.736292
    18  H    1.015712   2.081472   2.290638   2.826077   4.140379
    19  H    2.839384   2.154197   3.045274   1.095821   2.171175
    20  H    2.696630   2.161032   2.502671   1.098372   2.177641
    21  H    4.651373   3.446817   3.675803   2.162139   1.095948
    22  H    4.068295   2.767950   2.467352   2.157441   1.099250
    23  H    4.632299   3.355420   3.886090   2.828533   2.159182
    24  H    5.344081   3.888633   3.927260   3.483788   2.170553
    25  H    4.620001   3.427354   3.607943   3.941472   3.482841
    26  H    3.983458   2.696123   2.350549   3.345172   2.826642
    27  H    4.103868   4.083896   5.117056   4.364750   5.197784
                   11         12         13         14         15
    11  C    0.000000
    12  C    1.528380   0.000000
    13  C    2.514923   1.534026   0.000000
    14  H    3.468234   2.166402   1.100715   0.000000
    15  N    2.885551   2.402266   1.458887   2.103891   0.000000
    16  C    4.110352   3.618321   2.366106   2.655135   1.288424
    17  H    6.154304   5.531330   4.044837   3.908472   4.202294
    18  H    4.928000   4.509869   3.385264   3.560190   4.118556
    19  H    2.826867   3.346671   2.734349   3.727061   2.579636
    20  H    3.489296   3.941484   3.465097   4.296856   3.946779
    21  H    2.170499   3.481613   3.926399   4.976223   4.188142
    22  H    2.163309   2.838622   3.410402   4.244514   4.268333
    23  H    1.095627   2.143253   2.769155   3.766048   2.544337
    24  H    1.096760   2.161364   3.467573   4.301987   3.876870
    25  H    2.165332   1.095716   2.156816   2.485409   2.622055
    26  H    2.169947   1.098387   2.162095   2.474730   3.359697
    27  H    4.751222   4.426497   3.353644   3.652423   2.035003
                   16         17         18         19         20
    16  C    0.000000
    17  H    3.470121   0.000000
    18  H    4.060794   2.282268   0.000000
    19  H    3.007326   4.244883   3.305192   0.000000
    20  H    4.375635   4.361056   2.606906   1.771515   0.000000
    21  H    5.104887   6.454081   4.889664   2.481103   2.521038
    22  H    5.257734   6.090838   4.209336   3.068214   2.467673
    23  H    3.704282   6.225797   5.320091   2.681197   3.834880
    24  H    5.134931   7.211989   5.876523   3.836388   4.320635
    25  H    3.823272   6.162758   5.428224   4.162709   4.978683
    26  H    4.479476   5.834677   4.543362   4.012490   4.158525
    27  H    1.091788   4.187185   5.025161   3.615627   5.163344
                   21         22         23         24         25
    21  H    0.000000
    22  H    1.765774   0.000000
    23  H    2.463048   3.062745   0.000000
    24  H    2.529343   2.465044   1.766169   0.000000
    25  H    4.310318   3.835086   2.451326   2.504714   0.000000
    26  H    3.837037   2.689771   3.059715   2.487180   1.769826
    27  H    5.685728   6.089400   4.125356   5.720059   4.471829
                   26         27
    26  H    0.000000
    27  H    5.378286   0.000000
 Symmetry turned off by external request.
 Stoichiometry    C9H13N3O2
 Framework group  C1[X(C9H13N3O2)]
 Deg. of freedom    75
 Full point group                 C1      NOp   1
 Rotational constants (GHZ):           1.6809892           0.4225868           0.3729776
 Standard basis: 6-31G(d) (6D, 7F)
   236 basis functions,   444 primitive gaussians,   236 cartesian basis functions
    52 alpha electrons       52 beta electrons
       nuclear repulsion energy       932.3600841708 Hartrees.
 NAtoms=   27 NActive=   27 NUniq=   27 SFac= 1.00D+00 NAtFMM=   60 NAOKFM=F Big=F
 Integral buffers will be    131072 words long.
 Raffenetti 1 integral format.
 Two-electron integral symmetry is turned off.
 One-electron integrals computed using PRISM.
 NBasis=   236 RedAO= T EigKep=  1.05D-03  NBF=   236
 NBsUse=   236 1.00D-06 EigRej= -1.00D+00 NBFU=   236
 Initial guess from the checkpoint file:  "/home/alexey/tmp/Gau-1562462.chk"
 B after Tr=     0.056953    0.007687   -0.005837
         Rot=    0.999993   -0.002360    0.002640    0.001495 Ang=  -0.44 deg.
 ExpMin= 1.61D-01 ExpMax= 5.48D+03 ExpMxC= 8.25D+02 IAcc=3 IRadAn=         5 AccDes= 0.00D+00
 Harris functional with IExCor=  205 and IRadAn=       5 diagonalized for initial guess.
 HarFok:  IExCor=  205 AccDes= 0.00D+00 IRadAn=         5 IDoV= 1 UseB2=F ITyADJ=14
 ICtDFT=  3500011 ScaDFX=  1.000000  1.000000  1.000000  1.000000
 FoFCou: FMM=F IPFlag=           0 FMFlag=      100000 FMFlg1=           0
         NFxFlg=           0 DoJE=T BraDBF=F KetDBF=T FulRan=T
         wScrn=  0.000000 ICntrl=       500 IOpCl=  0 I1Cent=   200000004 NGrid=           0
         NMat0=    1 NMatS0=      1 NMatT0=    0 NMatD0=    1 NMtDS0=    0 NMtDT0=    0
 Symmetry not used in FoFCou.
 Keep R1 ints in memory in canonical form, NReq=397720213.
 Requested convergence on RMS density matrix=1.00D-08 within 128 cycles.
 Requested convergence on MAX density matrix=1.00D-06.
 Requested convergence on             energy=1.00D-06.
 No special actions if energy rises.
 SCF Done:  E(RHF) =  -661.298762497     A.U. after   15 cycles
            NFock= 15  Conv=0.40D-08     -V/T= 2.0024
 ExpMin= 1.61D-01 ExpMax= 5.48D+03 ExpMxC= 8.25D+02 IAcc=3 IRadAn=         5 AccDes= 0.00D+00
 HarFok:  IExCor=  205 AccDes= 0.00D+00 IRadAn=         5 IDoV=-2 UseB2=F ITyADJ=14
 ICtDFT= 12500011 ScaDFX=  1.000000  1.000000  1.000000  1.000000
 Range of M.O.s used for correlation:    15   236
 NBasis=   236 NAE=    52 NBE=    52 NFC=    14 NFV=     0
 NROrb=    222 NOA=    38 NOB=    38 NVA=   184 NVB=   184
 Fully direct method using O(ONN) memory.
 JobTyp=1 Pass  1:  I=  15 to  52 NPSUse=  4 ParTrn=T ParDer=T DoDerP=T.
 Spin components of T(2) and E(2):
     alpha-alpha T2 =       0.9129238060D-01 E2=     -0.2724069645D+00
     alpha-beta  T2 =       0.4912288079D+00 E2=     -0.1488047890D+01
     beta-beta   T2 =       0.9129238060D-01 E2=     -0.2724069645D+00
 ANorm=    0.1293759471D+01
 E2 =    -0.2032861819D+01 EUMP2 =    -0.66333162431627D+03
          IDoAtm=111111111111111111111111111
          Differentiating once with respect to electric field.
                with respect to dipole field.
          Differentiating once with respect to nuclear coordinates.
 Keep R1 ints in memory in canonical form, NReq=397723379.
          There are     1 degrees of freedom in the 1st order CPHF.  IDoFFX=0 NUNeed=     1.
 LinEq1:  Iter=  0 NonCon=     1 RMS=4.58D-03 Max=1.09D-01 NDo=     1
 AX will form     1 AO Fock derivatives at one time.
 LinEq1:  Iter=  1 NonCon=     1 RMS=1.54D-03 Max=2.66D-02 NDo=     1
 LinEq1:  Iter=  2 NonCon=     1 RMS=6.42D-04 Max=1.86D-02 NDo=     1
 LinEq1:  Iter=  3 NonCon=     1 RMS=2.80D-04 Max=8.47D-03 NDo=     1
[...]
    26  H    2.175628   1.098770   2.166798   2.495704   3.364765
    27  H    4.731806   4.423734   3.356719   3.655409   2.031236
                   16         17         18         19         20
    16  C    0.000000
    17  H    3.455560   0.000000
    18  H    4.079860   2.241967   0.000000
    19  H    2.992233   4.257876   3.447638   0.000000
    20  H    4.373730   4.402510   2.800199   1.768770   0.000000
    21  H    5.099322   6.477387   5.032646   2.498973   2.519869
    22  H    5.248006   6.088796   4.288328   3.070119   2.460498
    23  H    3.699784   6.225300   5.401702   2.703507   3.842051
    24  H    5.136269   7.202496   5.930376   3.849089   4.316057
    25  H    3.821235   6.120627   5.402297   4.170480   4.983692
    26  H    4.492817   5.814504   4.524241   4.035405   4.181066
    27  H    1.089632   4.187495   5.056839   3.582468   5.143974
                   21         22         23         24         25
    21  H    0.000000
    22  H    1.758965   0.000000
    23  H    2.469634   3.062216   0.000000
    24  H    2.517629   2.459766   1.764632   0.000000
    25  H    4.311934   3.838848   2.444228   2.519638   0.000000
    26  H    3.846398   2.703543   3.060497   2.491407   1.767872
    27  H    5.658256   6.062493   4.101437   5.704210   4.462168
                   26         27
    26  H    0.000000
    27  H    5.381713   0.000000
 Symmetry turned off by external request.
 Stoichiometry    C9H13N3O2
 Framework group  C1[X(C9H13N3O2)]
 Deg. of freedom    75
 Full point group                 C1      NOp   1
 Rotational constants (GHZ):           1.6825490           0.4195062           0.3721914

 **********************************************************************

            Population analysis using the SCF Density.

 **********************************************************************

 Alpha  occ. eigenvalues --  -20.59189 -20.58859 -15.84668 -15.64218 -15.56108
 Alpha  occ. eigenvalues --  -11.35081 -11.29631 -11.29555 -11.28570 -11.27115
 Alpha  occ. eigenvalues --  -11.23830 -11.23256 -11.22695 -11.22107  -1.57063
 Alpha  occ. eigenvalues --   -1.36661  -1.31043  -1.23073  -1.14714  -1.09831
 Alpha  occ. eigenvalues --   -1.02818  -1.01340  -0.94443  -0.89642  -0.85653
 Alpha  occ. eigenvalues --   -0.82404  -0.78581  -0.77409  -0.75194  -0.72029
 Alpha  occ. eigenvalues --   -0.69663  -0.69478  -0.67852  -0.64885  -0.63745
 Alpha  occ. eigenvalues --   -0.62488  -0.60241  -0.57716  -0.57021  -0.55060
 Alpha  occ. eigenvalues --   -0.54640  -0.50817  -0.50079  -0.48613  -0.48099
 Alpha  occ. eigenvalues --   -0.47346  -0.46182  -0.46055  -0.43646  -0.41654
 Alpha  occ. eigenvalues --   -0.39946  -0.33827
 Alpha virt. eigenvalues --    0.07512   0.11893   0.17365   0.21826   0.23882
 Alpha virt. eigenvalues --    0.25211   0.27281   0.28461   0.29038   0.29559
 Alpha virt. eigenvalues --    0.30802   0.31751   0.32109   0.32775   0.33842
 Alpha virt. eigenvalues --    0.34348   0.35820   0.37344   0.38490   0.40252
 Alpha virt. eigenvalues --    0.41537   0.42502   0.45086   0.46065   0.46715
 Alpha virt. eigenvalues --    0.47126   0.48969   0.53908   0.57078   0.59211
 Alpha virt. eigenvalues --    0.64057   0.69392   0.69683   0.72817   0.74128
 Alpha virt. eigenvalues --    0.75022   0.75783   0.76723   0.78717   0.79225
 Alpha virt. eigenvalues --    0.81245   0.84884   0.85474   0.85899   0.88382
 Alpha virt. eigenvalues --    0.89183   0.90899   0.91515   0.92811   0.94551
 Alpha virt. eigenvalues --    0.95917   0.97973   0.98968   1.01379   1.02416
 Alpha virt. eigenvalues --    1.03093   1.05933   1.07007   1.07766   1.08620
 Alpha virt. eigenvalues --    1.10213   1.11747   1.11881   1.12507   1.13831
 Alpha virt. eigenvalues --    1.14720   1.14893   1.16120   1.16770   1.18498
 Alpha virt. eigenvalues --    1.19070   1.21246   1.22073   1.23343   1.23983
 Alpha virt. eigenvalues --    1.25545   1.26187   1.26793   1.27669   1.29481
 Alpha virt. eigenvalues --    1.29874   1.32553   1.36314   1.37423   1.40014
 Alpha virt. eigenvalues --    1.40906   1.43034   1.48654   1.52025   1.53522
 Alpha virt. eigenvalues --    1.57223   1.58777   1.59851   1.63103   1.67178
 Alpha virt. eigenvalues --    1.68768   1.69735   1.72815   1.75223   1.77652
 Alpha virt. eigenvalues --    1.81020   1.84623   1.87133   1.91215   1.93592
 Alpha virt. eigenvalues --    1.95963   1.96717   1.99569   2.01546   2.02249
 Alpha virt. eigenvalues --    2.04361   2.05647   2.08639   2.09558   2.12777
 Alpha virt. eigenvalues --    2.13439   2.14971   2.19624   2.19982   2.22149
 Alpha virt. eigenvalues --    2.23024   2.24913   2.25654   2.28164   2.29438
 Alpha virt. eigenvalues --    2.31877   2.33544   2.34396   2.36083   2.38453
 Alpha virt. eigenvalues --    2.40298   2.42148   2.43247   2.44635   2.48302
 Alpha virt. eigenvalues --    2.50172   2.51805   2.53123   2.55495   2.61602
 Alpha virt. eigenvalues --    2.62207   2.65260   2.67316   2.70391   2.70978
 Alpha virt. eigenvalues --    2.71998   2.73174   2.76533   2.78499   2.84535
 Alpha virt. eigenvalues --    2.88018   2.89012   2.92790   2.93167   2.96030
 Alpha virt. eigenvalues --    2.99045   3.01394   3.04125   3.05549   3.07633
 Alpha virt. eigenvalues --    3.09504   3.15398   3.20858   3.25256   3.27415
 Alpha virt. eigenvalues --    3.34151   3.37811   3.39456   3.51592   3.64410
 Alpha virt. eigenvalues --    4.13822   4.27883   4.32974   4.37939   4.46359
 Alpha virt. eigenvalues --    4.56523   4.61989   4.62919   4.73219   4.79927
 Alpha virt. eigenvalues --    4.98834   5.00760   5.04203   5.11770
          Condensed to atoms (all electrons):
               1          2          3          4          5          6
     1  O    8.315099   0.306748  -0.081208  -0.084677   0.004463  -0.000017
     2  N    0.306748   5.728764   0.297049   0.262138  -0.049753   0.001099
     3  O   -0.081208   0.297049   8.353602  -0.090082   0.001777   0.000756
     4  C   -0.084677   0.262138  -0.090082   5.235556   0.552893  -0.049576
     5  C    0.004463  -0.049753   0.001777   0.552893   4.711041   0.317143
     6  N   -0.000017   0.001099   0.000756  -0.049576   0.317143   7.193090
     7  C    0.000004  -0.000123   0.000003   0.005069  -0.030041   0.173641
     8  H   -0.000000   0.000002  -0.000000  -0.000306   0.003579  -0.050913
     9  C   -0.000000  -0.000004  -0.000000   0.000833   0.000131  -0.062965
    10  C    0.000000   0.000000   0.000000  -0.000040  -0.000039   0.003839
    11  C   -0.000000  -0.000000  -0.000000  -0.000023   0.000020  -0.000175
    12  C   -0.000000   0.000002  -0.000000  -0.000115  -0.000170   0.003631
    13  C   -0.000026  -0.000047  -0.000005  -0.011445  -0.000675  -0.047156
    14  H   -0.000003  -0.000122   0.000001   0.002710   0.005103  -0.006503
    15  N    0.000398   0.002264  -0.000017  -0.065195  -0.004514   0.001215
    16  C    0.000389  -0.029360   0.002756   0.328012  -0.050354  -0.002287
    17  H    0.000235  -0.007597   0.017727  -0.024284   0.375563  -0.035008
    18  H    0.000001  -0.000052   0.000012   0.001565  -0.031244   0.337846
    19  H    0.000001  -0.000005   0.000000  -0.001346   0.001506  -0.000333
    20  H    0.000000  -0.000000   0.000000  -0.000056   0.000124  -0.000534
    21  H   -0.000000   0.000000   0.000000   0.000001   0.000001  -0.000080
    22  H   -0.000000   0.000000  -0.000000  -0.000000  -0.000003  -0.000114
    23  H    0.000000  -0.000000   0.000000   0.000038  -0.000001  -0.000030
    24  H    0.000000   0.000000   0.000000   0.000000  -0.000000   0.000006
    25  H    0.000000  -0.000000   0.000000   0.000021   0.000001  -0.000086
    26  H    0.000000  -0.000000   0.000000   0.000007  -0.000001  -0.000061
    27  H    0.006594  -0.000896   0.000030  -0.063485   0.001983   0.000037
               7          8          9         10         11         12
     1  O    0.000004  -0.000000  -0.000000   0.000000  -0.000000  -0.000000
     2  N   -0.000123   0.000002  -0.000004   0.000000  -0.000000   0.000002
     3  O    0.000003  -0.000000  -0.000000   0.000000  -0.000000  -0.000000
     4  C    0.005069  -0.000306   0.000833  -0.000040  -0.000023  -0.000115
     5  C   -0.030041   0.003579   0.000131  -0.000039   0.000020  -0.000170
     6  N    0.173641  -0.050913  -0.062965   0.003839  -0.000175   0.003631
     7  C    5.016761   0.418402   0.351509  -0.054324  -0.009132  -0.060541
     8  H    0.418402   0.536881  -0.055624   0.000861  -0.000325  -0.002202
     9  C    0.351509  -0.055624   5.162265   0.324561  -0.050563  -0.005556
    10  C   -0.054324   0.000861   0.324561   5.117984   0.337255  -0.060898
    11  C   -0.009132  -0.000325  -0.050563   0.337255   5.119714   0.335734
    12  C   -0.060541  -0.002202  -0.005556  -0.060898   0.335734   5.117568
    13  C    0.336803  -0.037840  -0.059965  -0.000403  -0.050658   0.371644
    14  H   -0.046345  -0.000887   0.004448  -0.000414   0.004194  -0.036121
    15  N   -0.056819   0.003826  -0.014419   0.001494  -0.012866  -0.081288
    16  C   -0.002779   0.000078  -0.001427  -0.000017  -0.000000   0.002778
    17  H    0.001620  -0.000031  -0.000083   0.000001   0.000000   0.000000
    18  H   -0.021648  -0.004146   0.001038  -0.000081   0.000005  -0.000109
    19  H   -0.037106   0.004352   0.389859  -0.031753  -0.002216   0.000702
    20  H   -0.043183  -0.002140   0.399505  -0.035253   0.003954  -0.000417
    21  H    0.004581  -0.000080  -0.036325   0.402319  -0.034906   0.004355
    22  H   -0.004811   0.003554  -0.047055   0.397950  -0.045306  -0.001037
    23  H    0.000557   0.000033  -0.001962  -0.039046   0.399224  -0.037843
    24  H   -0.000132  -0.000102   0.004414  -0.038503   0.402352  -0.038660
    25  H    0.005165  -0.000026  -0.000413   0.004191  -0.033454   0.398591
    26  H   -0.003904   0.001699   0.000977  -0.002248  -0.041472   0.396893
    27  H   -0.000424   0.000009  -0.000064   0.000007   0.000010  -0.000035
              13         14         15         16         17         18
     1  O   -0.000026  -0.000003   0.000398   0.000389   0.000235   0.000001
     2  N   -0.000047  -0.000122   0.002264  -0.029360  -0.007597  -0.000052
     3  O   -0.000005   0.000001  -0.000017   0.002756   0.017727   0.000012
     4  C   -0.011445   0.002710  -0.065195   0.328012  -0.024284   0.001565
     5  C   -0.000675   0.005103  -0.004514  -0.050354   0.375563  -0.031244
     6  N   -0.047156  -0.006503   0.001215  -0.002287  -0.035008   0.337846
     7  C    0.336803  -0.046345  -0.056819  -0.002779   0.001620  -0.021648
     8  H   -0.037840  -0.000887   0.003826   0.000078  -0.000031  -0.004146
     9  C   -0.059965   0.004448  -0.014419  -0.001427  -0.000083   0.001038
    10  C   -0.000403  -0.000414   0.001494  -0.000017   0.000001  -0.000081
    11  C   -0.050658   0.004194  -0.012866  -0.000000   0.000000   0.000005
    12  C    0.371644  -0.036121  -0.081288   0.002778   0.000000  -0.000109
    13  C    5.040662   0.403581   0.244387  -0.071630  -0.000024   0.003145
    14  H    0.403581   0.522974  -0.037380  -0.004149   0.000096  -0.000100
    15  N    0.244387  -0.037380   6.964049   0.583651  -0.000070  -0.000141
    16  C   -0.071630  -0.004149   0.583651   4.723607   0.002256  -0.000225
    17  H   -0.000024   0.000096  -0.000070   0.002256   0.378582  -0.002836
    18  H    0.003145  -0.000100  -0.000141  -0.000225  -0.002836   0.311265
    19  H   -0.007396   0.000101   0.007543   0.003238   0.000022  -0.000155
    20  H    0.004378  -0.000066   0.000117  -0.000040   0.000001   0.001199
    21  H   -0.000438   0.000010  -0.000042   0.000003  -0.000000   0.000001
    22  H    0.000059  -0.000055   0.000017  -0.000002   0.000000   0.000002
    23  H   -0.007404   0.000004   0.008543   0.000073   0.000000   0.000000
    24  H    0.004690  -0.000056   0.000136   0.000007   0.000000  -0.000000
    25  H   -0.035711  -0.002841   0.000343  -0.000025  -0.000000   0.000002
    26  H   -0.047313  -0.001047   0.004848  -0.000068   0.000000  -0.000000
    27  H    0.005085  -0.000180  -0.039969   0.403440  -0.000080   0.000001
              19         20         21         22         23         24
     1  O    0.000001   0.000000  -0.000000  -0.000000   0.000000   0.000000
     2  N   -0.000005  -0.000000   0.000000   0.000000  -0.000000   0.000000
     3  O    0.000000   0.000000   0.000000  -0.000000   0.000000   0.000000
     4  C   -0.001346  -0.000056   0.000001  -0.000000   0.000038   0.000000
     5  C    0.001506   0.000124   0.000001  -0.000003  -0.000001  -0.000000
     6  N   -0.000333  -0.000534  -0.000080  -0.000114  -0.000030   0.000006
     7  C   -0.037106  -0.043183   0.004581  -0.004811   0.000557  -0.000132
     8  H    0.004352  -0.002140  -0.000080   0.003554   0.000033  -0.000102
     9  C    0.389859   0.399505  -0.036325  -0.047055  -0.001962   0.004414
    10  C   -0.031753  -0.035253   0.402319   0.397950  -0.039046  -0.038503
    11  C   -0.002216   0.003954  -0.034906  -0.045306   0.399224   0.402352
    12  C    0.000702  -0.000417   0.004355  -0.001037  -0.037843  -0.038660
    13  C   -0.007396   0.004378  -0.000438   0.000059  -0.007404   0.004690
    14  H    0.000101  -0.000066   0.000010  -0.000055   0.000004  -0.000056
    15  N    0.007543   0.000117  -0.000042   0.000017   0.008543   0.000136
    16  C    0.003238  -0.000040   0.000003  -0.000002   0.000073   0.000007
    17  H    0.000022   0.000001  -0.000000   0.000000   0.000000   0.000000
    18  H   -0.000155   0.001199   0.000001   0.000002   0.000000  -0.000000
    19  H    0.505340  -0.025080  -0.002808   0.003961   0.001512  -0.000066
    20  H   -0.025080   0.544266  -0.002718  -0.003003  -0.000044  -0.000084
    21  H   -0.002808  -0.002718   0.524212  -0.027402  -0.002891  -0.002240
    22  H    0.003961  -0.003003  -0.027402   0.570699   0.004133  -0.003658
    23  H    0.001512  -0.000044  -0.002891   0.004133   0.498945  -0.025455
    24  H   -0.000066  -0.000084  -0.002240  -0.003658  -0.025455   0.538088
    25  H   -0.000030   0.000012  -0.000086  -0.000080  -0.002323  -0.002300
    26  H    0.000020  -0.000030  -0.000081   0.002381   0.004059  -0.003039
    27  H    0.000092   0.000000  -0.000000   0.000000  -0.000035  -0.000000
              25         26         27
     1  O    0.000000   0.000000   0.006594
     2  N   -0.000000  -0.000000  -0.000896
     3  O    0.000000   0.000000   0.000030
     4  C    0.000021   0.000007  -0.063485
     5  C    0.000001  -0.000001   0.001983
     6  N   -0.000086  -0.000061   0.000037
     7  C    0.005165  -0.003904  -0.000424
     8  H   -0.000026   0.001699   0.000009
     9  C   -0.000413   0.000977  -0.000064
    10  C    0.004191  -0.002248   0.000007
    11  C   -0.033454  -0.041472   0.000010
    12  C    0.398591   0.396893  -0.000035
    13  C   -0.035711  -0.047313   0.005085
    14  H   -0.002841  -0.001047  -0.000180
    15  N    0.000343   0.004848  -0.039969
    16  C   -0.000025  -0.000068   0.403440
    17  H   -0.000000   0.000000  -0.000080
    18  H    0.000002  -0.000000   0.000001
    19  H   -0.000030   0.000020   0.000092
    20  H    0.000012  -0.000030   0.000000
    21  H   -0.000086  -0.000081  -0.000000
    22  H   -0.000080   0.002381   0.000000
    23  H   -0.002323   0.004059  -0.000035
    24  H   -0.002300  -0.003039  -0.000000
    25  H    0.505923  -0.024036  -0.000012
    26  H   -0.024036   0.561477   0.000001
    27  H   -0.000012   0.000001   0.437292
 Mulliken charges:
               1
     1  O   -0.468000
     2  N    0.489893
     3  O   -0.502401
     4  C    0.001787
     5  C    0.191467
     6  N   -0.776465
     7  C    0.057196
     8  H    0.181347
     9  C   -0.303116
    10  C   -0.327444
    11  C   -0.321366
    12  C   -0.306906
    13  C   -0.036301
    14  H    0.193044
    15  N   -0.510114
    16  C    0.112072
    17  H    0.293908
    18  H    0.404654
    19  H    0.190044
    20  H    0.159092
    21  H    0.174613
    22  H    0.149771
    23  H    0.199913
    24  H    0.164603
    25  H    0.187174
    26  H    0.150938
    27  H    0.250598
 Sum of Mulliken charges =  -0.00000
 Mulliken charges with hydrogens summed into heavy atoms:
               1
     1  O   -0.468000
     2  N    0.489893
     3  O   -0.502401
     4  C    0.001787
     5  C    0.485375
     6  N   -0.371811
     7  C    0.238543
     9  C    0.046020
    10  C   -0.003060
    11  C    0.043150
    12  C    0.031205
    13  C    0.156743
    15  N   -0.510114
    16  C    0.362671
 Electronic spatial extent (au):  <R**2>=           3004.4003
 Charge=             -0.0000 electrons
 Dipole moment (field-independent basis, Debye):
    X=              5.4624    Y=              4.8636    Z=              0.9366  Tot=              7.3736
 Quadrupole moment (field-independent basis, Debye-Ang):
   XX=           -106.2213   YY=            -78.8801   ZZ=            -81.8894
   XY=             -1.8421   XZ=              0.4890   YZ=              0.8813
 Traceless Quadrupole moment (field-independent basis, Debye-Ang):
   XX=            -17.2244   YY=             10.1169   ZZ=              7.1075
   XY=             -1.8421   XZ=              0.4890   YZ=              0.8813
 Octapole moment (field-independent basis, Debye-Ang**2):
  XXX=             92.9729  YYY=             37.6627  ZZZ=             -3.6880  XYY=             -4.9609
  XXY=              9.8156  XXZ=              2.7530  XZZ=             -9.2297  YZZ=             -0.9848
  YYZ=              5.7232  XYZ=              1.4232
 Hexadecapole moment (field-independent basis, Debye-Ang**3):
 XXXX=          -3382.4756 YYYY=           -598.1589 ZZZZ=           -302.6985 XXXY=            -22.3563
 XXXZ=             -3.0806 YYYX=             -9.8668 YYYZ=             20.1982 ZZZX=              6.5969
 ZZZY=              6.1275 XXYY=           -626.5260 XXZZ=           -524.8273 YYZZ=           -159.1175
 XXYZ=             -7.5912 YYXZ=              4.2482 ZZXY=              4.8188
 N-N= 9.313666608147D+02 E-N=-3.409444477092D+03  KE= 6.596288298521D+02
 Unable to Open any file for archive entry.
 1\1\GINC-LOTUS\FOpt\RMP2-FC\6-31G(d)\C9H13N3O2\ALEXEY\02-Jul-2023\0\\#
 MP2/6-31G* SCF=Tight Opt=(ModRedun, MaxCycle=20 ) NoSymm\\MolName:\\0,
 1\O,-3.5073088061,-1.3829949672,-0.3884303039\N,-3.1206716641,-0.23669
 68481,-0.0876958814\O,-3.8945496567,0.7150322793,0.1339568036\C,-1.686
 4810758,-0.0331626331,0.0346673175\C,-1.3000802313,1.2683279712,0.2312
 198913\N,-0.0586937232,1.7457562609,0.4020283801\C,1.2022320265,1.0173
 101346,0.3714341371\H,1.8486244139,1.5413941729,1.0918282545\C,1.90805
 52962,1.039556125,-0.9836789212\C,3.3075759446,0.4348392952,-0.8232881
 384\C,3.2612241068,-0.9658956234,-0.2072683835\C,2.4649629153,-0.98691
 78921,1.0992038663\C,1.0542762621,-0.4343334413,0.8668900071\H,0.47873
 84811,-0.4222105667,1.8060328816\N,0.4079024677,-1.32219013,-0.0973161
 56\C,-0.8395751918,-1.1354780336,-0.3855771478\H,-2.0939308534,2.00400
 78865,0.3293437337\H,0.011444573,2.7493569986,0.5249630097\H,1.3158241
 043,0.4665216709,-1.7051632551\H,1.9734875888,2.0704968414,-1.35403878
 48\H,3.8124051516,0.40523762,-1.7956672094\H,3.9053045227,1.0974484489
 ,-0.1813028347\H,2.7855214564,-1.6582722144,-0.9088017653\H,4.28083111
 91,-1.3288694609,-0.0316072178\H,2.3806768969,-2.0117156668,1.47561192
 79\H,2.9734107099,-0.3940356784,1.8720337463\H,-1.3082168346,-1.877512
 5493,-1.0313779573\\Version=ES64L-G16RevC.02\HF=-661.2994788\MP2=-663.
 333917\RMSD=3.031e-09\RMSF=1.442e-03\Dipole=1.9952641,1.711701,0.36599
 58\PG=C01 [X(C9H13N3O2)]\\@
 The archive entry for this job was punched.


 DESK:  A WASTEBASKET WITH DRAWERS.
 Job cpu time:       0 days  1 hours  3 minutes 52.7 seconds.
 Elapsed time:       0 days  0 hours 19 minutes 18.3 seconds.
 File lengths (MBytes):  RWF=     36 Int=      0 D2E=      0 Chk=      7 Scr=      1
 Normal termination of Gaussian 16 at Sun Jul  2 19:04:39 2023.
