 Entering Gaussian System, Link 0=g16
 Initial command:
 /home/alexey/programs//g16/l1.exe "/home/alexey/tmp/Gau-1553684.inp" -scrdir="/home/alexey/tmp/"
 Entering Link 1 = /home/alexey/programs//g16/l1.exe PID=   1553686.
  
 Copyright (c) 1988-2021, Gaussian, Inc.  All Rights Reserved.
  
 This is part of the Gaussian(R) 16 program.  It is based on
 the Gaussian(R) 09 system (copyright 2009, Gaussian, Inc.),
 the Gaussian(R) 03 system (copyright 2003, Gaussian, Inc.),
 the Gaussian(R) 98 system (copyright 1998, Gaussian, Inc.),
 the Gaussian(R) 94 system (copyright 1995, Gaussian, Inc.),
 the Gaussian 92(TM) system (copyright 1992, Gaussian, Inc.),
 the Gaussian 90(TM) system (copyright 1990, Gaussian, Inc.),
 the Gaussian 88(TM) system (copyright 1988, Gaussian, Inc.),
 the Gaussian 86(TM) system (copyright 1986, Carnegie Mellon
 University), and the Gaussian 82(TM) system (copyright 1983,
 Carnegie Mellon University). Gaussian is a federally registered
 trademark of Gaussian, Inc.
  
 This software contains proprietary and confidential information,
 including trade secrets, belonging to Gaussian, Inc.
  
 This software is provided under written license and may be
 used, copied, transmitted, or stored only in accord with that
 written license.
  
 The following legend is applicable only to US Government
 contracts under FAR:
  
                    RESTRICTED RIGHTS LEGEND
  
 Use, reproduction and disclosure by the US Government is
 subject to restrictions as set forth in subparagraphs (a)
 and (c) of the Commercial Computer Software - Restricted
 Rights clause in FAR 52.227-19.
  
 Gaussian, Inc.
 340 Quinnipiac St., Bldg. 40, Wallingford CT 06492
  
  
 ---------------------------------------------------------------
 Warning -- This program may not be used in any manner that
 competes with the business of Gaussian, Inc. or will provide
 assistance to any competitor of Gaussian, Inc.  The licensee
 of this program is prohibited from giving any competitor of
 Gaussian, Inc. access to this program.  By using this program,
 the user acknowledges that Gaussian, Inc. is engaged in the
 business of creating and licensing software in the field of
 computational chemistry and represents and warrants to the
 licensee that it is not a competitor of Gaussian, Inc. and that
 it will not use this program in any manner prohibited above.
 ---------------------------------------------------------------
  

 Cite this work as:
 Gaussian 16, Revision C.02,
 M. J. Frisch, G. W. Trucks, H. B. Schlegel, G. E. Scuseria, 
 M. A. Robb, J. R. Cheeseman, G. Scalmani, V. Barone, 
 G. A. Petersson, H. Nakatsuji, X. Li, M. Caricato, A. V. Marenich, 
 J. Bloino, B. G. Janesko, R. Gomperts, B. Mennucci, H. P. Hratchian, 
 J. V. Ortiz, A. F. Izmaylov, J. L. Sonnenberg, D. Williams-Young, 
 F. Ding, F. Lipparini, F. Egidi, J. Goings, B. Peng, A. Petrone, 
 T. Henderson, D. Ranasinghe, V. G. Zakrzewski, J. Gao, N. Rega, 
 G. Zheng, W. Liang, M. Hada, M. Ehara, K. Toyota, R. Fukuda, 
 J. Hasegawa, M. Ishida, T. Nakajima, Y. Honda, O. Kitao, H. Nakai, 
 T. Vreven, K. Throssell, J. A. Montgomery, Jr., J. E. Peralta, 
 F. Ogliaro, M. J. Bearpark, J. J. Heyd, E. N. Brothers, K. N. Kudin, 
 V. N. Staroverov, T. A. Keith, R. Kobayashi, J. Normand, 
 K. Raghavachari, A. P. Rendell, J. C. Burant, S. S. Iyengar, 
 J. Tomasi, M. Cossi, J. M. Millam, M. Klene, C. Adamo, R. Cammi, 
 J. W. Ochterski, R. L. Martin, K. Morokuma, O. Farkas, 
 J. B. Foresman, and D. J. Fox, Gaussian, Inc., Wallingford CT, 2019.
 
 ******************************************
 Gaussian 16:  ES64L-G16RevC.02  7-Dec-2021
                 2-Jul-2023 
 ******************************************
 %mem=8GB
 %NPROCS=4
 Will use up to    4 processors via shared memory.
 %NoSave
 ---------------------------------------------------------
 #MP2/6-31G* SCF=Tight Opt=(ModRedun, MaxCycle=20 ) NoSymm
 ---------------------------------------------------------
 1/6=20,18=120,19=15,38=1/1,3;
 2/9=110,12=2,15=1,17=6,18=5,40=1/2;
 3/5=1,6=6,7=1,11=9,25=1,30=1,71=1/1,2,3;
 4//1;
 5/5=2,32=2,38=5/2;
 8/6=4,10=2/1;
 9/15=2,16=-3/6;
 10/5=1,31=1/2;
 6/7=2,8=2,9=2,10=2/1;
 7/12=2,30=1/1,2,3,16;
 1/6=20,18=20,19=15/3(2);
 2/9=110,15=1/2;
 99//99;
 2/9=110,15=1/2;
 3/5=1,6=6,7=1,11=9,25=1,30=1,71=1/1,2,3;
 4/5=5,16=3,69=1/1;
 5/5=2,32=2,38=5/2;
 8/6=4,10=2/1;
 9/15=2,16=-3/6;
 10/5=1,31=1/2;
 7/12=2,30=1/1,2,3,16;
 1/6=20,18=20,19=15/3(-8);
 2/9=110,15=1/2;
 6/7=2,8=2,9=2,10=2/1;
 99/9=10/99;
 --------
 MolName:
 --------
 Symbolic Z-matrix:
 Charge =  0 Multiplicity = 1
 8                    0    -3.61774  -1.44674  -0.18232 
 7                    0    -3.25785  -0.28194  -0.02056 
 8                    0    -4.03771   0.65771   0.13976 
 6                    0    -1.75777   0.00648  -0.04094 
 6                    0    -1.36969   1.31404   0.27339 
 7                    0    -0.08142   1.76884   0.38738 
 6                    0     1.19752   0.99584   0.35955 
 1                    0     1.86015   1.4926    1.11509 
 6                    0     1.96452   1.04836  -0.98534 
 6                    0     3.37579   0.46071  -0.79413 
 6                    0     3.31176  -0.95604  -0.20187 
 6                    0     2.46103  -0.9909    1.08611 
 6                    0     1.02493  -0.4536    0.83771 
 1                    0     0.47459  -0.49346   1.80694 
 7                    0     0.36995  -1.3212   -0.14405 
 6                    0    -0.87087  -1.11692  -0.44325 
 1                    0    -2.15704   2.05288   0.49705 
 1                    0     0.15065   2.75097   0.2205 
 1                    0     1.41614   0.47321  -1.76145 
 1                    0     2.05224   2.09879  -1.33542 
 1                    0     3.91231   0.43774  -1.76788 
 1                    0     3.95203   1.11316  -0.10066 
 1                    0     2.86541  -1.64395  -0.95508 
 1                    0     4.33905  -1.32096   0.01658 
 1                    0     2.40111  -2.03771   1.45669 
 1                    0     2.95421  -0.38135   1.87206 
 1                    0    -1.37232  -1.86356  -1.07787 
 
 The following ModRedundant input section has been read:
 D      16       4       5       6 F                                           
 D       1       2       4      16 F                                           
 D       7      13      15      16 F                                           
 D       7       9      10      11 F                                           
 D       9      10      11      12 F                                           
 D       6       7      13      15 F                                           
 

 GradGradGradGradGradGradGradGradGradGradGradGradGradGradGradGradGradGrad
 Berny optimization.
 Initialization pass.
                           ----------------------------
                           !    Initial Parameters    !
                           ! (Angstroms and Degrees)  !
 --------------------------                            --------------------------
 ! Name  Definition              Value          Derivative Info.                !
 --------------------------------------------------------------------------------
 ! R1    R(1,2)                  1.2298         estimate D2E/DX2                !
 ! R2    R(2,3)                  1.2316         estimate D2E/DX2                !
 ! R3    R(2,4)                  1.5277         estimate D2E/DX2                !
 ! R4    R(4,5)                  1.3997         estimate D2E/DX2                !
 ! R5    R(4,16)                 1.4868         estimate D2E/DX2                !
 ! R6    R(5,6)                  1.3709         estimate D2E/DX2                !
 ! R7    R(5,17)                 1.1026         estimate D2E/DX2                !
 ! R8    R(6,7)                  1.4947         estimate D2E/DX2                !
 ! R9    R(6,18)                 1.0229         estimate D2E/DX2                !
 ! R10   R(7,8)                  1.121          estimate D2E/DX2                !
 ! R11   R(7,9)                  1.5491         estimate D2E/DX2                !
 ! R12   R(7,13)                 1.536          estimate D2E/DX2                !
 ! R13   R(9,10)                 1.5406         estimate D2E/DX2                !
 ! R14   R(9,19)                 1.1108         estimate D2E/DX2                !
 ! R15   R(9,20)                 1.1107         estimate D2E/DX2                !
 ! R16   R(10,11)                1.5369         estimate D2E/DX2                !
 ! R17   R(10,21)                1.112          estimate D2E/DX2                !
 ! R18   R(10,22)                1.1129         estimate D2E/DX2                !
 ! R19   R(11,12)                1.544          estimate D2E/DX2                !
 ! R20   R(11,23)                1.1135         estimate D2E/DX2                !
 ! R21   R(11,24)                1.1119         estimate D2E/DX2                !
 ! R22   R(12,13)                1.5533         estimate D2E/DX2                !
 ! R23   R(12,25)                1.1121         estimate D2E/DX2                !
 ! R24   R(12,26)                1.1102         estimate D2E/DX2                !
 ! R25   R(13,14)                1.1153         estimate D2E/DX2                !
 ! R26   R(13,15)                1.4648         estimate D2E/DX2                !
 ! R27   R(15,16)                1.2926         estimate D2E/DX2                !
 ! R28   R(16,27)                1.1008         estimate D2E/DX2                !
 ! A1    A(1,2,3)              123.6721         estimate D2E/DX2                !
 ! A2    A(1,2,4)              117.6719         estimate D2E/DX2                !
 ! A3    A(3,2,4)              118.6503         estimate D2E/DX2                !
 ! A4    A(2,4,5)              116.4632         estimate D2E/DX2                !
 ! A5    A(2,4,16)             116.5325         estimate D2E/DX2                !
 ! A6    A(5,4,16)             126.9587         estimate D2E/DX2                !
 ! A7    A(4,5,6)              126.0948         estimate D2E/DX2                !
 ! A8    A(4,5,17)             118.2636         estimate D2E/DX2                !
 ! A9    A(6,5,17)             115.5846         estimate D2E/DX2                !
 ! A10   A(5,6,7)              129.121          estimate D2E/DX2                !
 ! A11   A(5,6,18)             121.2089         estimate D2E/DX2                !
 ! A12   A(7,6,18)             107.4216         estimate D2E/DX2                !
 ! A13   A(6,7,8)              105.3111         estimate D2E/DX2                !
 ! A14   A(6,7,9)              114.9794         estimate D2E/DX2                !
 ! A15   A(6,7,13)             112.7113         estimate D2E/DX2                !
 ! A16   A(8,7,9)              106.1071         estimate D2E/DX2                !
 ! A17   A(8,7,13)             105.9481         estimate D2E/DX2                !
 ! A18   A(9,7,13)             110.9705         estimate D2E/DX2                !
 ! A19   A(7,9,10)             109.4426         estimate D2E/DX2                !
 ! A20   A(7,9,19)             110.1572         estimate D2E/DX2                !
 ! A21   A(7,9,20)             110.1697         estimate D2E/DX2                !
 ! A22   A(10,9,19)            109.9649         estimate D2E/DX2                !
 ! A23   A(10,9,20)            109.1175         estimate D2E/DX2                !
 ! A24   A(19,9,20)            107.9661         estimate D2E/DX2                !
 ! A25   A(9,10,11)            111.1787         estimate D2E/DX2                !
 ! A26   A(9,10,21)            109.9477         estimate D2E/DX2                !
 ! A27   A(9,10,22)            109.1478         estimate D2E/DX2                !
 ! A28   A(11,10,21)           109.7859         estimate D2E/DX2                !
 ! A29   A(11,10,22)           108.7756         estimate D2E/DX2                !
 ! A30   A(21,10,22)           107.9342         estimate D2E/DX2                !
 ! A31   A(10,11,12)           111.4221         estimate D2E/DX2                !
 ! A32   A(10,11,23)           108.9982         estimate D2E/DX2                !
 ! A33   A(10,11,24)           109.863          estimate D2E/DX2                !
 ! A34   A(12,11,23)           109.237          estimate D2E/DX2                !
 ! A35   A(12,11,24)           109.7421         estimate D2E/DX2                !
 ! A36   A(23,11,24)           107.4887         estimate D2E/DX2                !
 ! A37   A(11,12,13)           111.6053         estimate D2E/DX2                !
 ! A38   A(11,12,25)           109.2033         estimate D2E/DX2                !
 ! A39   A(11,12,26)           109.4753         estimate D2E/DX2                !
 ! A40   A(13,12,25)           109.2128         estimate D2E/DX2                !
 ! A41   A(13,12,26)           109.512          estimate D2E/DX2                !
 ! A42   A(25,12,26)           107.7494         estimate D2E/DX2                !
 ! A43   A(7,13,12)            105.8018         estimate D2E/DX2                !
 ! A44   A(7,13,14)            111.0821         estimate D2E/DX2                !
 ! A45   A(7,13,15)            113.6109         estimate D2E/DX2                !
 ! A46   A(12,13,14)           107.7509         estimate D2E/DX2                !
 ! A47   A(12,13,15)           108.4037         estimate D2E/DX2                !
 ! A48   A(14,13,15)           109.9166         estimate D2E/DX2                !
 ! A49   A(13,15,16)           119.3909         estimate D2E/DX2                !
 ! A50   A(4,16,15)            129.0058         estimate D2E/DX2                !
 ! A51   A(4,16,27)            113.3769         estimate D2E/DX2                !
 ! A52   A(15,16,27)           117.6161         estimate D2E/DX2                !
 ! D1    D(1,2,4,5)           -174.0245         estimate D2E/DX2                !
 ! D2    D(1,2,4,16)             8.2588         Frozen                          !
 ! D3    D(3,2,4,5)              6.8139         estimate D2E/DX2                !
 ! D4    D(3,2,4,16)          -170.9028         estimate D2E/DX2                !
 ! D5    D(2,4,5,6)            176.1088         estimate D2E/DX2                !
 ! D6    D(2,4,5,17)            -1.0147         estimate D2E/DX2                !
 ! D7    D(16,4,5,6)            -6.4479         Frozen                          !
 ! D8    D(16,4,5,17)          176.4286         estimate D2E/DX2                !
 ! D9    D(2,4,16,15)         -154.6878         estimate D2E/DX2                !
 ! D10   D(2,4,16,27)           24.8959         estimate D2E/DX2                !
 ! D11   D(5,4,16,15)           27.8705         estimate D2E/DX2                !
 ! D12   D(5,4,16,27)         -152.5458         estimate D2E/DX2                !
 ! D13   D(4,5,6,7)             -7.3195         estimate D2E/DX2                !
 ! D14   D(4,5,6,18)           153.4027         estimate D2E/DX2                !
 ! D15   D(17,5,6,7)           169.8715         estimate D2E/DX2                !
 ! D16   D(17,5,6,18)          -29.4062         estimate D2E/DX2                !
 ! D17   D(5,6,7,8)           -142.2786         estimate D2E/DX2                !
 ! D18   D(5,6,7,9)            101.3064         estimate D2E/DX2                !
 ! D19   D(5,6,7,13)           -27.2285         estimate D2E/DX2                !
 ! D20   D(18,6,7,8)            54.9357         estimate D2E/DX2                !
 ! D21   D(18,6,7,9)           -61.4794         estimate D2E/DX2                !
 ! D22   D(18,6,7,13)          169.9857         estimate D2E/DX2                !
 ! D23   D(6,7,9,10)           168.7052         estimate D2E/DX2                !
 ! D24   D(6,7,9,19)           -70.2777         estimate D2E/DX2                !
 ! D25   D(6,7,9,20)            48.7272         estimate D2E/DX2                !
 ! D26   D(8,7,9,10)            52.7454         estimate D2E/DX2                !
 ! D27   D(8,7,9,19)           173.7625         estimate D2E/DX2                !
 ! D28   D(8,7,9,20)           -67.2326         estimate D2E/DX2                !
 ! D29   D(13,7,9,10)          -61.8972         estimate D2E/DX2                !
 ! D30   D(13,7,9,19)           59.1199         estimate D2E/DX2                !
 ! D31   D(13,7,9,20)          178.1248         estimate D2E/DX2                !
 ! D32   D(6,7,13,12)         -166.1752         estimate D2E/DX2                !
 ! D33   D(6,7,13,14)          -49.516          estimate D2E/DX2                !
 ! D34   D(6,7,13,15)           75.0222         Frozen                          !
 ! D35   D(8,7,13,12)          -51.5098         estimate D2E/DX2                !
 ! D36   D(8,7,13,14)           65.1494         estimate D2E/DX2                !
 ! D37   D(8,7,13,15)         -170.3124         estimate D2E/DX2                !
 ! D38   D(9,7,13,12)           63.2321         estimate D2E/DX2                !
 ! D39   D(9,7,13,14)          179.8914         estimate D2E/DX2                !
 ! D40   D(9,7,13,15)          -55.5704         estimate D2E/DX2                !
 ! D41   D(7,9,10,11)           54.8124         Frozen                          !
 ! D42   D(7,9,10,21)          176.6029         estimate D2E/DX2                !
 ! D43   D(7,9,10,22)          -65.1823         estimate D2E/DX2                !
 ! D44   D(19,9,10,11)         -66.3212         estimate D2E/DX2                !
 ! D45   D(19,9,10,21)          55.4692         estimate D2E/DX2                !
 ! D46   D(19,9,10,22)         173.6841         estimate D2E/DX2                !
 ! D47   D(20,9,10,11)         175.4331         estimate D2E/DX2                !
 ! D48   D(20,9,10,21)         -62.7764         estimate D2E/DX2                !
 ! D49   D(20,9,10,22)          55.4384         estimate D2E/DX2                !
 ! D50   D(9,10,11,12)         -52.823          Frozen                          !
 ! D51   D(9,10,11,23)          67.8007         estimate D2E/DX2                !
 ! D52   D(9,10,11,24)        -174.6627         estimate D2E/DX2                !
 ! D53   D(21,10,11,12)       -174.7075         estimate D2E/DX2                !
 ! D54   D(21,10,11,23)        -54.0838         estimate D2E/DX2                !
 ! D55   D(21,10,11,24)         63.4527         estimate D2E/DX2                !
 ! D56   D(22,10,11,12)         67.3923         estimate D2E/DX2                !
 ! D57   D(22,10,11,23)       -171.984          estimate D2E/DX2                !
 ! D58   D(22,10,11,24)        -54.4474         estimate D2E/DX2                !
 ! D59   D(10,11,12,13)         56.5993         estimate D2E/DX2                !
 ! D60   D(10,11,12,25)        177.4457         estimate D2E/DX2                !
 ! D61   D(10,11,12,26)        -64.8066         estimate D2E/DX2                !
 ! D62   D(23,11,12,13)        -63.8842         estimate D2E/DX2                !
 ! D63   D(23,11,12,25)         56.9623         estimate D2E/DX2                !
 ! D64   D(23,11,12,26)        174.71           estimate D2E/DX2                !
 ! D65   D(24,11,12,13)        178.509          estimate D2E/DX2                !
 ! D66   D(24,11,12,25)        -60.6445         estimate D2E/DX2                !
 ! D67   D(24,11,12,26)         57.1032         estimate D2E/DX2                !
 ! D68   D(11,12,13,7)         -60.305          estimate D2E/DX2                !
 ! D69   D(11,12,13,14)       -179.194          estimate D2E/DX2                !
 ! D70   D(11,12,13,15)         61.8935         estimate D2E/DX2                !
 ! D71   D(25,12,13,7)         178.8541         estimate D2E/DX2                !
 ! D72   D(25,12,13,14)         59.965          estimate D2E/DX2                !
 ! D73   D(25,12,13,15)        -58.9474         estimate D2E/DX2                !
 ! D74   D(26,12,13,7)          61.0796         estimate D2E/DX2                !
 ! D75   D(26,12,13,14)        -57.8095         estimate D2E/DX2                !
 ! D76   D(26,12,13,15)       -176.7219         estimate D2E/DX2                !
 ! D77   D(7,13,15,16)         -67.16           Frozen                          !
 ! D78   D(12,13,15,16)        175.54           estimate D2E/DX2                !
 ! D79   D(14,13,15,16)         58.0039         estimate D2E/DX2                !
 ! D80   D(13,15,16,4)           7.638          estimate D2E/DX2                !
 ! D81   D(13,15,16,27)       -171.9307         estimate D2E/DX2                !
 --------------------------------------------------------------------------------
 Trust Radius=3.00D-01 FncErr=1.00D-07 GrdErr=1.00D-07 EigMax=2.50D+02 EigMin=1.00D-04
 Number of steps in this run=     20 maximum allowed number of steps=    162.
 GradGradGradGradGradGradGradGradGradGradGradGradGradGradGradGradGradGrad

                          Input orientation:                          
 ---------------------------------------------------------------------
 Center     Atomic      Atomic             Coordinates (Angstroms)
 Number     Number       Type             X           Y           Z
 ---------------------------------------------------------------------
      1          8           0       -3.617740   -1.446740   -0.182320
      2          7           0       -3.257850   -0.281940   -0.020560
      3          8           0       -4.037710    0.657710    0.139760
      4          6           0       -1.757770    0.006480   -0.040940
      5          6           0       -1.369690    1.314040    0.273390
      6          7           0       -0.081420    1.768840    0.387380
      7          6           0        1.197520    0.995840    0.359550
      8          1           0        1.860150    1.492600    1.115090
      9          6           0        1.964520    1.048360   -0.985340
     10          6           0        3.375790    0.460710   -0.794130
     11          6           0        3.311760   -0.956040   -0.201870
     12          6           0        2.461030   -0.990900    1.086110
     13          6           0        1.024930   -0.453600    0.837710
     14          1           0        0.474590   -0.493460    1.806940
     15          7           0        0.369950   -1.321200   -0.144050
     16          6           0       -0.870870   -1.116920   -0.443250
     17          1           0       -2.157040    2.052880    0.497050
     18          1           0        0.150650    2.750970    0.220500
     19          1           0        1.416140    0.473210   -1.761450
     20          1           0        2.052240    2.098790   -1.335420
     21          1           0        3.912310    0.437740   -1.767880
     22          1           0        3.952030    1.113160   -0.100660
     23          1           0        2.865410   -1.643950   -0.955080
     24          1           0        4.339050   -1.320960    0.016580
     25          1           0        2.401110   -2.037710    1.456690
     26          1           0        2.954210   -0.381350    1.872060
     27          1           0       -1.372320   -1.863560   -1.077870
 ---------------------------------------------------------------------
                    Distance matrix (angstroms):
                    1          2          3          4          5
     1  O    0.000000
     2  N    1.229815   0.000000
     3  O    2.169982   1.231595   0.000000
     4  C    2.364598   1.527692   2.377999   0.000000
     5  C    3.589332   2.489720   2.750810   1.399687   0.000000
     6  N    4.813530   3.802870   4.116814   2.469721   1.370940
     7  C    5.426467   4.650541   5.250740   3.142127   2.588289
     8  H    6.350612   5.534674   6.035981   4.078517   3.342485
     9  C    6.167008   5.474819   6.119250   3.979051   3.573786
    10  C    7.274760   6.719756   7.474687   5.208364   4.938355
    11  C    6.946880   6.606592   7.532304   5.162604   5.224472
    12  C    6.226407   5.867958   6.771050   4.479206   4.543972
    13  C    4.856045   4.371304   5.229959   2.954170   3.029392
    14  H    4.648985   4.161202   4.946265   2.940754   3.003365
    15  N    3.989849   3.775744   4.839845   2.510091   3.185136
    16  C    2.778878   2.563890   3.676695   1.486766   2.583014
    17  H    3.852600   2.632696   2.368771   2.153277   1.102646
    18  H    5.655422   4.568865   4.683014   3.353005   2.092606
    19  H    5.614250   5.044515   5.778678   3.640288   3.550833
    20  H    6.785948   5.966053   6.429647   4.535374   3.861827
    21  H    7.922558   7.415002   8.178649   5.942905   5.730114
    22  H    7.991319   7.344051   8.006321   5.816367   5.338630
    23  H    6.532020   6.342138   7.358626   4.993332   5.309888
    24  H    7.960269   7.667714   8.608160   6.239921   6.292765
    25  H    6.265952   6.106458   7.103379   4.870102   5.182023
    26  H    6.967500   6.494735   7.277874   5.100268   4.911843
    27  H    2.453092   2.678554   3.865712   2.172751   3.452977
                    6          7          8          9         10
     6  N    0.000000
     7  C    1.494654   0.000000
     8  H    2.091785   1.121022   0.000000
     9  C    2.566967   1.549121   2.149430   0.000000
    10  C    3.880653   2.522341   2.647089   1.540642   0.000000
    11  C    4.391567   2.931730   3.136462   2.538996   1.536897
    12  C    3.816863   2.464038   2.555322   2.948900   2.545439
    13  C    2.523103   1.536001   2.135937   2.542091   3.004232
    14  H    2.728058   2.198995   2.518505   3.520501   4.011604
    15  N    3.167728   2.511406   3.423974   2.977455   3.554276
    16  C    3.104962   3.063736   4.086134   3.608564   4.543804
    17  H    2.097833   3.519846   4.102890   4.493751   5.900369
    18  H    1.022881   2.048354   2.303514   2.764608   4.083662
    19  H    2.922125   2.195354   3.083956   1.110795   2.185427
    20  H    2.762139   2.195443   2.531672   1.110700   2.174416
    21  H    4.729361   3.493926   3.692642   2.186118   1.112012
    22  H    4.115437   2.795153   2.449078   2.176477   1.112944
    23  H    4.704587   3.388008   3.890257   2.839199   2.171632
    24  H    5.406007   3.918469   3.907402   3.500845   2.181621
    25  H    4.668640   3.443076   3.587815   3.959539   3.501185
    26  H    4.005327   2.696349   2.298186   3.344890   2.827607
    27  H    4.124041   4.104439   5.149927   4.429711   5.294080
                   11         12         13         14         15
    11  C    0.000000
    12  C    1.543972   0.000000
    13  C    2.561789   1.553312   0.000000
    14  H    3.506969   2.170941   1.115289   0.000000
    15  N    2.964950   2.448470   1.464780   2.121901   0.000000
    16  C    4.192677   3.668294   2.382207   2.694869   1.292627
    17  H    6.280913   5.562208   4.064902   3.889105   4.263931
    18  H    4.890085   4.482045   3.378547   3.626025   4.094332
    19  H    2.840497   3.368087   2.787051   3.815020   2.632566
    20  H    3.493324   3.946784   3.506074   4.368428   3.993218
    21  H    2.180750   3.506064   3.990056   5.046225   4.275396
    22  H    2.168358   2.838762   3.450100   4.279340   4.331199
    23  H    1.113451   2.180930   2.831677   3.829935   2.643720
    24  H    1.111851   2.186274   3.522777   4.338686   3.972349
    25  H    2.179476   1.112084   2.187787   2.493765   2.683536
    26  H    2.181581   1.110178   2.190256   2.483007   3.409753
    27  H    4.850935   4.487640   3.377017   3.689225   2.049800
                   16         17         18         19         20
    16  C    0.000000
    17  H    3.547679   0.000000
    18  H    4.055199   2.426776   0.000000
    19  H    3.081652   4.512626   3.273802   0.000000
    20  H    4.436365   4.591088   2.542100   1.796840   0.000000
    21  H    5.201002   6.676496   4.843013   2.496430   2.531002
    22  H    5.324565   6.209756   4.151633   3.098144   2.470891
    23  H    3.807823   6.403143   5.297852   2.689420   3.848897
    24  H    5.234152   7.335723   5.845074   3.863139   4.330369
    25  H    3.894031   6.199239   5.433617   4.198965   5.002821
    26  H    4.531331   5.825891   4.516528   4.037119   4.153622
    27  H    1.100757   4.293560   5.029820   3.701795   5.243487
                   21         22         23         24         25
    21  H    0.000000
    22  H    1.799276   0.000000
    23  H    2.467808   3.084223   0.000000
    24  H    2.541541   2.467482   1.794453   0.000000
    25  H    4.336984   3.841702   2.487420   2.518583   0.000000
    26  H    3.852016   2.668488   3.097542   2.498691   1.794988
    27  H    5.805119   6.177743   4.245193   5.840546   4.548967
                   26         27
    26  H    0.000000
    27  H    5.442233   0.000000
 Symmetry turned off by external request.
 Stoichiometry    C9H13N3O2
 Framework group  C1[X(C9H13N3O2)]
 Deg. of freedom    75
 Full point group                 C1      NOp   1
 Rotational constants (GHZ):           1.6760367           0.4001033           0.3551063
 Standard basis: 6-31G(d) (6D, 7F)
   236 basis functions,   444 primitive gaussians,   236 cartesian basis functions
    52 alpha electrons       52 beta electrons
       nuclear repulsion energy       917.4391120034 Hartrees.
 NAtoms=   27 NActive=   27 NUniq=   27 SFac= 1.00D+00 NAtFMM=   60 NAOKFM=F Big=F
 Integral buffers will be    131072 words long.
 Raffenetti 1 integral format.
 Two-electron integral symmetry is turned off.
 One-electron integrals computed using PRISM.
 NBasis=   236 RedAO= T EigKep=  1.27D-03  NBF=   236
 NBsUse=   236 1.00D-06 EigRej= -1.00D+00 NBFU=   236
 ExpMin= 1.61D-01 ExpMax= 5.48D+03 ExpMxC= 8.25D+02 IAcc=3 IRadAn=         5 AccDes= 0.00D+00
 Harris functional with IExCor=  205 and IRadAn=       5 diagonalized for initial guess.
 HarFok:  IExCor=  205 AccDes= 0.00D+00 IRadAn=         5 IDoV= 1 UseB2=F ITyADJ=14
 ICtDFT=  3500011 ScaDFX=  1.000000  1.000000  1.000000  1.000000
 FoFCou: FMM=F IPFlag=           0 FMFlag=      100000 FMFlg1=           0
         NFxFlg=           0 DoJE=T BraDBF=F KetDBF=T FulRan=T
         wScrn=  0.000000 ICntrl=       500 IOpCl=  0 I1Cent=   200000004 NGrid=           0
         NMat0=    1 NMatS0=      1 NMatT0=    0 NMatD0=    1 NMtDS0=    0 NMtDT0=    0
 Symmetry not used in FoFCou.
 Keep R1 ints in memory in canonical form, NReq=397720213.
 Requested convergence on RMS density matrix=1.00D-08 within 128 cycles.
 Requested convergence on MAX density matrix=1.00D-06.
 Requested convergence on             energy=1.00D-06.
 No special actions if energy rises.
 SCF Done:  E(RHF) =  -661.280993667     A.U. after   16 cycles
            NFock= 16  Conv=0.80D-08     -V/T= 2.0037
 ExpMin= 1.61D-01 ExpMax= 5.48D+03 ExpMxC= 8.25D+02 IAcc=3 IRadAn=         5 AccDes= 0.00D+00
 HarFok:  IExCor=  205 AccDes= 0.00D+00 IRadAn=         5 IDoV=-2 UseB2=F ITyADJ=14
 ICtDFT= 12500011 ScaDFX=  1.000000  1.000000  1.000000  1.000000
 Range of M.O.s used for correlation:    15   236
 NBasis=   236 NAE=    52 NBE=    52 NFC=    14 NFV=     0
 NROrb=    222 NOA=    38 NOB=    38 NVA=   184 NVB=   184
 Fully direct method using O(ONN) memory.
 JobTyp=1 Pass  1:  I=  15 to  52 NPSUse=  4 ParTrn=T ParDer=T DoDerP=T.
 Spin components of T(2) and E(2):
     alpha-alpha T2 =       0.9197215190D-01 E2=     -0.2717603779D+00
     alpha-beta  T2 =       0.4996948127D+00 E2=     -0.1493763453D+01
     beta-beta   T2 =       0.9197215190D-01 E2=     -0.2717603779D+00
 ANorm=    0.1297551200D+01
 E2 =    -0.2037284209D+01 EUMP2 =    -0.66331827787530D+03
          IDoAtm=111111111111111111111111111
          Differentiating once with respect to electric field.
                with respect to dipole field.
          Differentiating once with respect to nuclear coordinates.
 Keep R1 ints in memory in canonical form, NReq=397723379.
          There are     1 degrees of freedom in the 1st order CPHF.  IDoFFX=0 NUNeed=     1.
 LinEq1:  Iter=  0 NonCon=     1 RMS=4.61D-03 Max=1.12D-01 NDo=     1
 AX will form     1 AO Fock derivatives at one time.
 LinEq1:  Iter=  1 NonCon=     1 RMS=1.56D-03 Max=2.96D-02 NDo=     1
 LinEq1:  Iter=  2 NonCon=     1 RMS=6.40D-04 Max=1.80D-02 NDo=     1
 LinEq1:  Iter=  3 NonCon=     1 RMS=2.94D-04 Max=9.10D-03 NDo=     1
 LinEq1:  Iter=  4 NonCon=     1 RMS=9.03D-05 Max=2.09D-03 NDo=     1
 LinEq1:  Iter=  5 NonCon=     1 RMS=3.75D-05 Max=1.88D-03 NDo=     1
 LinEq1:  Iter=  6 NonCon=     1 RMS=1.54D-05 Max=5.84D-04 NDo=     1
 LinEq1:  Iter=  7 NonCon=     1 RMS=5.93D-06 Max=1.02D-04 NDo=     1
 LinEq1:  Iter=  8 NonCon=     1 RMS=2.37D-06 Max=6.01D-05 NDo=     1
 LinEq1:  Iter=  9 NonCon=     1 RMS=8.83D-07 Max=2.53D-05 NDo=     1
 LinEq1:  Iter= 10 NonCon=     1 RMS=4.34D-07 Max=1.50D-05 NDo=     1
 LinEq1:  Iter= 11 NonCon=     1 RMS=1.54D-07 Max=5.73D-06 NDo=     1
 LinEq1:  Iter= 12 NonCon=     1 RMS=5.41D-08 Max=7.60D-07 NDo=     1
 LinEq1:  Iter= 13 NonCon=     1 RMS=1.71D-08 Max=3.38D-07 NDo=     1
 LinEq1:  Iter= 14 NonCon=     1 RMS=5.42D-09 Max=1.43D-07 NDo=     1
 LinEq1:  Iter= 15 NonCon=     1 RMS=2.01D-09 Max=4.80D-08 NDo=     1
 LinEq1:  Iter= 16 NonCon=     1 RMS=7.58D-10 Max=1.29D-08 NDo=     1
 LinEq1:  Iter= 17 NonCon=     1 RMS=2.54D-10 Max=3.73D-09 NDo=     1
 LinEq1:  Iter= 18 NonCon=     1 RMS=8.77D-11 Max=1.05D-09 NDo=     1
 LinEq1:  Iter= 19 NonCon=     0 RMS=2.93D-11 Max=3.84D-10 NDo=     1
 Linear equations converged to 1.000D-10 1.000D-09 after    19 iterations.
 End of Minotr F.D. properties file   721 does not exist.
 End of Minotr F.D. properties file   722 does not exist.
 End of Minotr F.D. properties file   788 does not exist.

 **********************************************************************

            Population analysis using the SCF Density.

 **********************************************************************

 Alpha  occ. eigenvalues --  -20.59835 -20.59396 -15.85285 -15.63341 -15.56846
 Alpha  occ. eigenvalues --  -11.35870 -11.30473 -11.30085 -11.30083 -11.27693
 Alpha  occ. eigenvalues --  -11.24630 -11.23881 -11.23403 -11.22854  -1.58488
 Alpha  occ. eigenvalues --   -1.37990  -1.28586  -1.22732  -1.13278  -1.08373
 Alpha  occ. eigenvalues --   -1.01813  -1.00672  -0.93591  -0.88965  -0.84936
 Alpha  occ. eigenvalues --   -0.81541  -0.78026  -0.76959  -0.74320  -0.71119
 Alpha  occ. eigenvalues --   -0.70332  -0.69782  -0.67402  -0.64367  -0.63265
 Alpha  occ. eigenvalues --   -0.61645  -0.60371  -0.57427  -0.56474  -0.54888
 Alpha  occ. eigenvalues --   -0.53598  -0.50728  -0.49363  -0.48483  -0.47788
 Alpha  occ. eigenvalues --   -0.47685  -0.46148  -0.45696  -0.44012  -0.42097
 Alpha  occ. eigenvalues --   -0.39961  -0.33779
 Alpha virt. eigenvalues --    0.07358   0.11783   0.18167   0.21387   0.23404
 Alpha virt. eigenvalues --    0.24245   0.26290   0.27795   0.28558   0.28871
 Alpha virt. eigenvalues --    0.29926   0.31080   0.31850   0.32275   0.33340
 Alpha virt. eigenvalues --    0.33783   0.34233   0.35470   0.37579   0.38580
 Alpha virt. eigenvalues --    0.40625   0.41743   0.44441   0.45264   0.45660
 Alpha virt. eigenvalues --    0.46068   0.49711   0.53178   0.57582   0.58986
 Alpha virt. eigenvalues --    0.63296   0.69134   0.69239   0.72201   0.74020
 Alpha virt. eigenvalues --    0.74927   0.75692   0.75854   0.77775   0.79271
 Alpha virt. eigenvalues --    0.80534   0.83636   0.85014   0.85357   0.87981
 Alpha virt. eigenvalues --    0.89072   0.90169   0.90785   0.91848   0.93901
 Alpha virt. eigenvalues --    0.95179   0.97200   0.98851   1.00376   1.01956
 Alpha virt. eigenvalues --    1.02752   1.05092   1.06479   1.07001   1.08673
 Alpha virt. eigenvalues --    1.09573   1.10466   1.11329   1.11957   1.13255
 Alpha virt. eigenvalues --    1.13830   1.14175   1.15408   1.16357   1.17264
 Alpha virt. eigenvalues --    1.17973   1.19985   1.21226   1.22333   1.22985
 Alpha virt. eigenvalues --    1.23709   1.24276   1.25653   1.27062   1.27515
 Alpha virt. eigenvalues --    1.29414   1.31235   1.33018   1.36015   1.39704
 Alpha virt. eigenvalues --    1.42846   1.46178   1.47244   1.49315   1.52674
 Alpha virt. eigenvalues --    1.54651   1.55411   1.60465   1.61455   1.65980
 Alpha virt. eigenvalues --    1.68636   1.70306   1.72806   1.73429   1.77023
 Alpha virt. eigenvalues --    1.77721   1.79973   1.84357   1.89136   1.92604
 Alpha virt. eigenvalues --    1.93698   1.96117   1.97516   1.99022   2.00837
 Alpha virt. eigenvalues --    2.02966   2.03806   2.05972   2.08865   2.11902
 Alpha virt. eigenvalues --    2.12895   2.13735   2.17738   2.18868   2.19405
 Alpha virt. eigenvalues --    2.20750   2.22066   2.24104   2.25115   2.26379
 Alpha virt. eigenvalues --    2.29194   2.32263   2.33442   2.35560   2.35964
 Alpha virt. eigenvalues --    2.38562   2.39844   2.41606   2.43203   2.46340
 Alpha virt. eigenvalues --    2.48663   2.50381   2.50757   2.56767   2.57196
 Alpha virt. eigenvalues --    2.60757   2.62853   2.65958   2.68539   2.68816
 Alpha virt. eigenvalues --    2.69703   2.70172   2.74714   2.77163   2.80939
 Alpha virt. eigenvalues --    2.84683   2.86740   2.89994   2.91384   2.95235
 Alpha virt. eigenvalues --    2.97599   2.98438   3.02207   3.03568   3.05678
 Alpha virt. eigenvalues --    3.07021   3.12713   3.19210   3.22703   3.27194
 Alpha virt. eigenvalues --    3.30701   3.33776   3.37233   3.43388   3.59840
 Alpha virt. eigenvalues --    4.09985   4.23268   4.32051   4.36364   4.43130
 Alpha virt. eigenvalues --    4.52643   4.59652   4.60159   4.70836   4.77586
 Alpha virt. eigenvalues --    4.96379   4.99234   5.02807   5.09941
          Condensed to atoms (all electrons):
               1          2          3          4          5          6
     1  O    8.299761   0.313211  -0.089678  -0.079244   0.003509  -0.000013
     2  N    0.313211   5.682627   0.309046   0.265403  -0.046131   0.000853
     3  O   -0.089678   0.309046   8.330942  -0.087459   0.008004   0.000463
     4  C   -0.079244   0.265403  -0.087459   5.244997   0.567331  -0.047989
     5  C    0.003509  -0.046131   0.008004   0.567331   4.670933   0.307582
     6  N   -0.000013   0.000853   0.000463  -0.047989   0.307582   7.189717
     7  C    0.000003  -0.000093   0.000002   0.004150  -0.029287   0.198423
     8  H   -0.000000   0.000002  -0.000000  -0.000181   0.002302  -0.049963
     9  C   -0.000000  -0.000003   0.000000   0.000472   0.001658  -0.056187
    10  C   -0.000000   0.000000  -0.000000  -0.000019  -0.000062   0.003335
    11  C   -0.000000  -0.000000  -0.000000  -0.000014   0.000015  -0.000154
    12  C   -0.000000   0.000002  -0.000000  -0.000101  -0.000127   0.003599
    13  C   -0.000019  -0.000025  -0.000003  -0.010497   0.000464  -0.044368
    14  H   -0.000003  -0.000055   0.000000   0.002968   0.004810  -0.005571
    15  N    0.000177   0.001640  -0.000013  -0.061333  -0.003697   0.001866
    16  C    0.003451  -0.026833   0.001945   0.318326  -0.041203  -0.001261
    17  H    0.000125  -0.004105   0.011954  -0.027140   0.377295  -0.033906
    18  H    0.000000  -0.000035   0.000008   0.000948  -0.024363   0.328363
    19  H    0.000000   0.000000   0.000000  -0.000767   0.000660   0.000639
    20  H    0.000000  -0.000000   0.000000  -0.000026   0.000029  -0.001707
    21  H   -0.000000  -0.000000   0.000000   0.000000   0.000001  -0.000059
    22  H   -0.000000   0.000000  -0.000000  -0.000000  -0.000002  -0.000098
    23  H    0.000000  -0.000000   0.000000   0.000025  -0.000000  -0.000024
    24  H    0.000000   0.000000   0.000000   0.000000  -0.000000   0.000004
    25  H    0.000000  -0.000000   0.000000   0.000019  -0.000001  -0.000071
    26  H    0.000000  -0.000000   0.000000   0.000006  -0.000001  -0.000067
    27  H    0.005324  -0.000248   0.000002  -0.066137   0.002140   0.000044
               7          8          9         10         11         12
     1  O    0.000003  -0.000000  -0.000000  -0.000000  -0.000000  -0.000000
     2  N   -0.000093   0.000002  -0.000003   0.000000  -0.000000   0.000002
     3  O    0.000002  -0.000000   0.000000  -0.000000  -0.000000  -0.000000
     4  C    0.004150  -0.000181   0.000472  -0.000019  -0.000014  -0.000101
     5  C   -0.029287   0.002302   0.001658  -0.000062   0.000015  -0.000127
     6  N    0.198423  -0.049963  -0.056187   0.003335  -0.000154   0.003599
     7  C    5.003608   0.416730   0.340758  -0.049329  -0.007710  -0.064134
     8  H    0.416730   0.547390  -0.060557   0.001470  -0.000330  -0.002843
     9  C    0.340758  -0.060557   5.181240   0.317927  -0.053050  -0.006216
    10  C   -0.049329   0.001470   0.317927   5.126760   0.332752  -0.060152
    11  C   -0.007710  -0.000330  -0.053050   0.332752   5.123963   0.330651
    12  C   -0.064134  -0.002843  -0.006216  -0.060152   0.330651   5.136988
    13  C    0.332252  -0.040367  -0.050427  -0.001725  -0.047895   0.368231
    14  H   -0.040247  -0.000941   0.003865  -0.000391   0.003955  -0.040735
    15  N   -0.058211   0.004046  -0.012876   0.001459  -0.007735  -0.074161
    16  C   -0.002337   0.000022  -0.000893  -0.000025   0.000003   0.002508
    17  H    0.001426  -0.000019  -0.000065   0.000001   0.000000   0.000001
    18  H   -0.028466  -0.002674   0.000841  -0.000121   0.000011  -0.000136
    19  H   -0.034999   0.004097   0.385969  -0.032567  -0.002264   0.000629
    20  H   -0.041652  -0.001852   0.397240  -0.037367   0.004139  -0.000362
    21  H    0.004043  -0.000080  -0.035835   0.400144  -0.035841   0.004211
    22  H   -0.004220   0.003510  -0.045688   0.395973  -0.045620  -0.001229
    23  H    0.000428   0.000033  -0.002004  -0.040090   0.396699  -0.036627
    24  H   -0.000141  -0.000098   0.004395  -0.038481   0.400299  -0.037870
    25  H    0.004981  -0.000005  -0.000369   0.004097  -0.033922   0.395437
    26  H   -0.004453   0.001604   0.001041  -0.002403  -0.042315   0.394684
    27  H   -0.000402   0.000009  -0.000059   0.000005   0.000005  -0.000019
              13         14         15         16         17         18
     1  O   -0.000019  -0.000003   0.000177   0.003451   0.000125   0.000000
     2  N   -0.000025  -0.000055   0.001640  -0.026833  -0.004105  -0.000035
     3  O   -0.000003   0.000000  -0.000013   0.001945   0.011954   0.000008
     4  C   -0.010497   0.002968  -0.061333   0.318326  -0.027140   0.000948
     5  C    0.000464   0.004810  -0.003697  -0.041203   0.377295  -0.024363
     6  N   -0.044368  -0.005571   0.001866  -0.001261  -0.033906   0.328363
     7  C    0.332252  -0.040247  -0.058211  -0.002337   0.001426  -0.028466
     8  H   -0.040367  -0.000941   0.004046   0.000022  -0.000019  -0.002674
     9  C   -0.050427   0.003865  -0.012876  -0.000893  -0.000065   0.000841
    10  C   -0.001725  -0.000391   0.001459  -0.000025   0.000001  -0.000121
    11  C   -0.047895   0.003955  -0.007735   0.000003   0.000000   0.000011
    12  C    0.368231  -0.040735  -0.074161   0.002508   0.000001  -0.000136
    13  C    5.024172   0.402319   0.239863  -0.069753  -0.000042   0.003683
    14  H    0.402319   0.519277  -0.035822  -0.004835   0.000064   0.000009
    15  N    0.239863  -0.035822   6.936280   0.587587  -0.000059  -0.000119
    16  C   -0.069753  -0.004835   0.587587   4.699837   0.001654  -0.000213
    17  H   -0.000042   0.000064  -0.000059   0.001654   0.386095  -0.001872
    18  H    0.003683   0.000009  -0.000119  -0.000213  -0.001872   0.324445
    19  H   -0.006272   0.000065   0.006956   0.002534   0.000011  -0.000127
    20  H    0.003863  -0.000049   0.000079  -0.000031  -0.000001   0.002868
    21  H   -0.000377   0.000009  -0.000029   0.000002  -0.000000  -0.000000
    22  H    0.000319  -0.000044   0.000002  -0.000001   0.000000   0.000002
    23  H   -0.005861   0.000008   0.006764   0.000062   0.000000   0.000000
    24  H    0.004142  -0.000058   0.000044   0.000005   0.000000  -0.000000
    25  H   -0.034468  -0.002657   0.000765  -0.000061  -0.000000   0.000002
    26  H   -0.044815  -0.000906   0.004187  -0.000055   0.000000  -0.000001
    27  H    0.004880  -0.000174  -0.039792   0.402370  -0.000059   0.000002
              19         20         21         22         23         24
     1  O    0.000000   0.000000  -0.000000  -0.000000   0.000000   0.000000
     2  N    0.000000  -0.000000  -0.000000   0.000000  -0.000000   0.000000
     3  O    0.000000   0.000000   0.000000  -0.000000   0.000000   0.000000
     4  C   -0.000767  -0.000026   0.000000  -0.000000   0.000025   0.000000
     5  C    0.000660   0.000029   0.000001  -0.000002  -0.000000  -0.000000
     6  N    0.000639  -0.001707  -0.000059  -0.000098  -0.000024   0.000004
     7  C   -0.034999  -0.041652   0.004043  -0.004220   0.000428  -0.000141
     8  H    0.004097  -0.001852  -0.000080   0.003510   0.000033  -0.000098
     9  C    0.385969   0.397240  -0.035835  -0.045688  -0.002004   0.004395
    10  C   -0.032567  -0.037367   0.400144   0.395973  -0.040090  -0.038481
    11  C   -0.002264   0.004139  -0.035841  -0.045620   0.396699   0.400299
    12  C    0.000629  -0.000362   0.004211  -0.001229  -0.036627  -0.037870
    13  C   -0.006272   0.003863  -0.000377   0.000319  -0.005861   0.004142
    14  H    0.000065  -0.000049   0.000009  -0.000044   0.000008  -0.000058
    15  N    0.006956   0.000079  -0.000029   0.000002   0.006764   0.000044
    16  C    0.002534  -0.000031   0.000002  -0.000001   0.000062   0.000005
    17  H    0.000011  -0.000001  -0.000000   0.000000   0.000000   0.000000
    18  H   -0.000127   0.002868  -0.000000   0.000002   0.000000  -0.000000
    19  H    0.506814  -0.024022  -0.002593   0.003756   0.001641  -0.000070
    20  H   -0.024022   0.550139  -0.002615  -0.002966  -0.000049  -0.000090
    21  H   -0.002593  -0.002615   0.526073  -0.024693  -0.002813  -0.002060
    22  H    0.003756  -0.002966  -0.024693   0.568834   0.004061  -0.003596
    23  H    0.001641  -0.000049  -0.002813   0.004061   0.509624  -0.024990
    24  H   -0.000070  -0.000090  -0.002060  -0.003596  -0.024990   0.541025
    25  H   -0.000027   0.000011  -0.000086  -0.000082  -0.002092  -0.002380
    26  H    0.000023  -0.000035  -0.000074   0.002465   0.003821  -0.002767
    27  H    0.000076  -0.000000  -0.000000   0.000000  -0.000022  -0.000000
              25         26         27
     1  O    0.000000   0.000000   0.005324
     2  N   -0.000000  -0.000000  -0.000248
     3  O    0.000000   0.000000   0.000002
     4  C    0.000019   0.000006  -0.066137
     5  C   -0.000001  -0.000001   0.002140
     6  N   -0.000071  -0.000067   0.000044
     7  C    0.004981  -0.004453  -0.000402
     8  H   -0.000005   0.001604   0.000009
     9  C   -0.000369   0.001041  -0.000059
    10  C    0.004097  -0.002403   0.000005
    11  C   -0.033922  -0.042315   0.000005
    12  C    0.395437   0.394684  -0.000019
    13  C   -0.034468  -0.044815   0.004880
    14  H   -0.002657  -0.000906  -0.000174
    15  N    0.000765   0.004187  -0.039792
    16  C   -0.000061  -0.000055   0.402370
    17  H   -0.000000   0.000000  -0.000059
    18  H    0.000002  -0.000001   0.000002
    19  H   -0.000027   0.000023   0.000076
    20  H    0.000011  -0.000035  -0.000000
    21  H   -0.000086  -0.000074  -0.000000
    22  H   -0.000082   0.002465   0.000000
    23  H   -0.002092   0.003821  -0.000022
    24  H   -0.002380  -0.002767  -0.000000
    25  H    0.510364  -0.023099  -0.000010
    26  H   -0.023099   0.560958   0.000001
    27  H   -0.000010   0.000001   0.452289
 Mulliken charges:
               1
     1  O   -0.456604
     2  N    0.504745
     3  O   -0.485214
     4  C   -0.023738
     5  C    0.198143
     6  N   -0.793451
     7  C    0.058876
     8  H    0.178695
     9  C   -0.311176
    10  C   -0.321189
    11  C   -0.315640
    12  C   -0.312229
    13  C   -0.027275
    14  H    0.195141
    15  N   -0.497871
    16  C    0.127196
    17  H    0.288642
    18  H    0.396944
    19  H    0.189838
    20  H    0.154457
    21  H    0.172670
    22  H    0.149316
    23  H    0.191406
    24  H    0.162686
    25  H    0.183655
    26  H    0.152200
    27  H    0.239776
 Sum of Mulliken charges =  -0.00000
 Mulliken charges with hydrogens summed into heavy atoms:
               1
     1  O   -0.456604
     2  N    0.504745
     3  O   -0.485214
     4  C   -0.023738
     5  C    0.486785
     6  N   -0.396507
     7  C    0.237571
     9  C    0.033119
    10  C    0.000797
    11  C    0.038452
    12  C    0.023627
    13  C    0.167866
    15  N   -0.497871
    16  C    0.366972
 Electronic spatial extent (au):  <R**2>=           3126.3062
 Charge=              0.0000 electrons
 Dipole moment (field-independent basis, Debye):
    X=              5.3593    Y=              4.5032    Z=              0.4983  Tot=              7.0178
 Quadrupole moment (field-independent basis, Debye-Ang):
   XX=           -105.4567   YY=            -80.2496   ZZ=            -82.2622
   XY=             -1.8736   XZ=              0.9418   YZ=              0.0446
 Traceless Quadrupole moment (field-independent basis, Debye-Ang):
   XX=            -16.1339   YY=              9.0732   ZZ=              7.0607
   XY=             -1.8736   XZ=              0.9418   YZ=              0.0446
 Octapole moment (field-independent basis, Debye-Ang**2):
  XXX=            101.4388  YYY=             36.8202  ZZZ=             -5.3194  XYY=             -1.3989
  XXY=             11.7865  XXZ=             -0.5685  XZZ=             -8.2874  YZZ=             -2.8721
  YYZ=              0.7470  XYZ=             -1.4248
 Hexadecapole moment (field-independent basis, Debye-Ang**3):
 XXXX=          -3561.1703 YYYY=           -619.7613 ZZZZ=           -298.9719 XXXY=            -41.5553
 XXXZ=             27.5406 YYYX=            -21.0315 YYYZ=             11.3626 ZZZX=             21.8880
 ZZZY=              8.8018 XXYY=           -657.0031 XXZZ=           -543.6486 YYZZ=           -164.5298
 XXYZ=              2.3227 YYXZ=             10.4261 ZZXY=              2.3291
 N-N= 9.174391120034D+02 E-N=-3.380888172609D+03  KE= 6.588550614606D+02
 Calling FoFJK, ICntrl=  10002127 FMM=F ISym2X=0 I1Cent= 0 IOpClX= 0 NMat=1 NMatS=1 NMatT=0.
 -------------------------------------------------------------------
 Center     Atomic                   Forces (Hartrees/Bohr)
 Number     Number              X              Y              Z
 -------------------------------------------------------------------
      1        8           0.002381868   -0.019260939   -0.003135547
      2        7           0.039262219    0.013830754   -0.001813818
      3        8          -0.005245964    0.015797390    0.003638671
      4        6          -0.003025374    0.008680413    0.009413662
      5        6           0.003163063   -0.016629206   -0.005095211
      6        7           0.014749945   -0.010125946   -0.006480672
      7        6          -0.004653535    0.005221076    0.002885602
      8        1          -0.010099657   -0.001721208   -0.007656777
      9        6          -0.003946305    0.000175822   -0.002122987
     10        6           0.002837619   -0.000881574    0.000977858
     11        6          -0.001043276   -0.004609839   -0.002411676
     12        6           0.000812021   -0.008752761   -0.002874742
     13        6           0.008902501   -0.001981939    0.004700720
     14        1           0.000888789    0.004468580   -0.009851655
     15        7           0.000099913    0.000997931    0.001341495
     16        6          -0.021044994    0.007437236    0.003651818
     17        1           0.007146492   -0.005983200   -0.006276396
     18        1          -0.017592525   -0.001703811    0.006180564
     19        1           0.003102483    0.005884337    0.007697307
     20        1          -0.003249893   -0.007343961    0.002602429
     21        1          -0.004363598    0.002404417    0.009616880
     22        1          -0.003983802   -0.003975117   -0.007404146
     23        1           0.003982354    0.006132241    0.009300538
     24        1          -0.009379289    0.002622048   -0.002135509
     25        1          -0.000775650    0.010593132   -0.002410272
     26        1          -0.004775369   -0.004804203   -0.004371170
     27        1           0.005849964    0.003528328    0.002033034
 -------------------------------------------------------------------
 Cartesian Forces:  Max     0.039262219 RMS     0.008382595

 GradGradGradGradGradGradGradGradGradGradGradGradGradGradGradGradGradGrad
 Berny optimization.
 FormGI is forming the generalized inverse of G from B-inverse, IUseBI=4.
 Internal  Forces:  Max     0.037715021 RMS     0.006886314
 Search for a local minimum.
 Step number   1 out of a maximum of   20
 All quantities printed in internal units (Hartrees-Bohrs-Radians)
 Mixed Optimization -- RFO/linear search
 Second derivative matrix not updated -- first step.
 ITU=  0
     Eigenvalues ---    0.00231   0.00770   0.01091   0.01164   0.01203
     Eigenvalues ---    0.01507   0.01549   0.01776   0.02000   0.02087
     Eigenvalues ---    0.02686   0.03655   0.04506   0.04691   0.04838
     Eigenvalues ---    0.05078   0.05138   0.05303   0.05893   0.06265
     Eigenvalues ---    0.07192   0.07700   0.07723   0.07871   0.07993
     Eigenvalues ---    0.08050   0.08056   0.10459   0.11726   0.12248
     Eigenvalues ---    0.13352   0.15032   0.15480   0.15987   0.16000
     Eigenvalues ---    0.20064   0.21953   0.23100   0.24980   0.25000
     Eigenvalues ---    0.25000   0.25358   0.26202   0.26650   0.27979
     Eigenvalues ---    0.28083   0.28453   0.29638   0.31460   0.31608
     Eigenvalues ---    0.32046   0.32237   0.32290   0.32380   0.32388
     Eigenvalues ---    0.32405   0.32516   0.32526   0.32581   0.33319
     Eigenvalues ---    0.33391   0.33599   0.35252   0.43882   0.44227
     Eigenvalues ---    0.49112   0.66833   0.90425   0.911631000.00000
     Eigenvalues --- 1000.000001000.000001000.000001000.000001000.00000
     Eigenvalues --- 1000.000001000.000001000.000001000.000001000.00000
     Eigenvalues --- 1000.000001000.000001000.000001000.000001000.00000
     Eigenvalues --- 1000.000001000.000001000.000001000.000001000.00000
     Eigenvalues --- 1000.000001000.000001000.000001000.000001000.00000
     Eigenvalues --- 1000.000001000.000001000.000001000.000001000.00000
     Eigenvalues --- 1000.000001000.000001000.000001000.000001000.00000
     Eigenvalues --- 1000.000001000.000001000.000001000.000001000.00000
     Eigenvalues --- 1000.000001000.000001000.000001000.000001000.00000
     Eigenvalues --- 1000.000001000.000001000.000001000.000001000.00000
     Eigenvalues --- 1000.000001000.000001000.000001000.000001000.00000
     Eigenvalues --- 1000.000001000.000001000.000001000.000001000.00000
     Eigenvalues --- 1000.000001000.000001000.000001000.000001000.00000
     Eigenvalues --- 1000.000001000.000001000.000001000.000001000.00000
     Eigenvalues --- 1000.000001000.000001000.000001000.000001000.00000
     Eigenvalues --- 1000.000001000.000001000.000001000.000001000.00000
     Eigenvalues --- 1000.000001000.000001000.000001000.000001000.00000
     Eigenvalues --- 1000.000001000.000001000.000001000.000001000.00000
     Eigenvalues --- 1000.00000
 RFO step:  Lambda=-2.37831756D-02 EMin= 2.30770848D-03
 Linear search not attempted -- first point.
 Iteration  1 RMS(Cart)=  0.05594221 RMS(Int)=  0.00106446
 Iteration  2 RMS(Cart)=  0.00118509 RMS(Int)=  0.00023965
 Iteration  3 RMS(Cart)=  0.00000072 RMS(Int)=  0.00023965
 Iteration  1 RMS(Cart)=  0.00002382 RMS(Int)=  0.00002419
 Iteration  2 RMS(Cart)=  0.00001524 RMS(Int)=  0.00002667
 Iteration  3 RMS(Cart)=  0.00001046 RMS(Int)=  0.00003035
 Iteration  4 RMS(Cart)=  0.00000747 RMS(Int)=  0.00003337
 Iteration  5 RMS(Cart)=  0.00000548 RMS(Int)=  0.00003564
 Iteration  6 RMS(Cart)=  0.00000412 RMS(Int)=  0.00003730
 Iteration  7 RMS(Cart)=  0.00000317 RMS(Int)=  0.00003854
 Iteration  8 RMS(Cart)=  0.00000249 RMS(Int)=  0.00003946
 Iteration  9 RMS(Cart)=  0.00000199 RMS(Int)=  0.00004017
 Iteration 10 RMS(Cart)=  0.00000162 RMS(Int)=  0.00004073
 Iteration 11 RMS(Cart)=  0.00000133 RMS(Int)=  0.00004117
 Iteration 12 RMS(Cart)=  0.00000111 RMS(Int)=  0.00004153
 Iteration 13 RMS(Cart)=  0.00000093 RMS(Int)=  0.00004182
 Variable       Old X    -DE/DX   Delta X   Delta X   Delta X     New X
                                 (Linear)    (Quad)   (Total)
    R1        2.32401   0.01796   0.00000   0.01920   0.01920   2.34321
    R2        2.32738   0.01585   0.00000   0.01708   0.01708   2.34445
    R3        2.88692  -0.03772   0.00000  -0.11780  -0.11780   2.76912
    R4        2.64502  -0.03476   0.00000  -0.07503  -0.07478   2.57025
    R5        2.80958  -0.02181   0.00000  -0.06252  -0.06227   2.74731
    R6        2.59070  -0.02450   0.00000  -0.04741  -0.04732   2.54338
    R7        2.08370  -0.01039   0.00000  -0.02903  -0.02903   2.05467
    R8        2.82449  -0.01941   0.00000  -0.05377  -0.05389   2.77060
    R9        1.93296  -0.00664   0.00000  -0.01434  -0.01434   1.91862
   R10        2.11842  -0.01189   0.00000  -0.03515  -0.03515   2.08328
   R11        2.92741  -0.01299   0.00000  -0.04430  -0.04432   2.88310
   R12        2.90262  -0.00443   0.00000  -0.00869  -0.00871   2.89391
   R13        2.91139  -0.00463   0.00000  -0.01435  -0.01437   2.89702
   R14        2.09910  -0.00996   0.00000  -0.02853  -0.02853   2.07056
   R15        2.09892  -0.00802   0.00000  -0.02298  -0.02298   2.07593
   R16        2.90431  -0.00183   0.00000  -0.00711  -0.00716   2.89715
   R17        2.10140  -0.01058   0.00000  -0.03042  -0.03042   2.07098
   R18        2.10316  -0.00901   0.00000  -0.02598  -0.02598   2.07718
   R19        2.91768  -0.00908   0.00000  -0.02873  -0.02870   2.88898
   R20        2.10412  -0.01168   0.00000  -0.03373  -0.03373   2.07039
   R21        2.10109  -0.00995   0.00000  -0.02859  -0.02859   2.07250
   R22        2.93533  -0.01057   0.00000  -0.03641  -0.03639   2.89895
   R23        2.10153  -0.01073   0.00000  -0.03088  -0.03088   2.07066
   R24        2.09793  -0.00785   0.00000  -0.02247  -0.02247   2.07547
   R25        2.10759  -0.00916   0.00000  -0.02661  -0.02661   2.08098
   R26        2.76803  -0.00525   0.00000  -0.01115  -0.01147   2.75656
   R27        2.44271  -0.00575   0.00000  -0.00790  -0.00793   2.43479
   R28        2.08013  -0.00623   0.00000  -0.01732  -0.01732   2.06281
    A1        2.15849   0.01096   0.00000   0.04017   0.03998   2.19846
    A2        2.05376  -0.00763   0.00000  -0.02774  -0.02793   2.02583
    A3        2.07084  -0.00331   0.00000  -0.01196  -0.01216   2.05868
    A4        2.03267  -0.00746   0.00000  -0.02486  -0.02519   2.00747
    A5        2.03388  -0.00307   0.00000  -0.00874  -0.00908   2.02479
    A6        2.21585   0.01048   0.00000   0.03268   0.03310   2.24894
    A7        2.20077   0.00612   0.00000   0.01958   0.01984   2.22061
    A8        2.06409  -0.00329   0.00000  -0.01055  -0.01093   2.05316
    A9        2.01733  -0.00278   0.00000  -0.00762  -0.00800   2.00933
   A10        2.25359  -0.00553   0.00000  -0.01866  -0.01869   2.23489
   A11        2.11549  -0.01251   0.00000  -0.07143  -0.07190   2.04359
   A12        1.87486   0.01824   0.00000   0.09877   0.09888   1.97374
   A13        1.83802  -0.00161   0.00000  -0.01748  -0.01729   1.82073
   A14        2.00677  -0.00112   0.00000  -0.01217  -0.01225   1.99452
   A15        1.96718   0.00104   0.00000   0.00064   0.00025   1.96743
   A16        1.85192   0.00268   0.00000   0.02403   0.02389   1.87581
   A17        1.84914   0.00082   0.00000   0.01847   0.01825   1.86739
   A18        1.93680  -0.00150   0.00000  -0.00916  -0.00886   1.92794
   A19        1.91013   0.00014   0.00000  -0.00487  -0.00500   1.90513
   A20        1.92261  -0.00073   0.00000  -0.01296  -0.01293   1.90968
   A21        1.92282  -0.00165   0.00000  -0.00701  -0.00700   1.91582
   A22        1.91925  -0.00040   0.00000   0.00564   0.00560   1.92485
   A23        1.90446   0.00305   0.00000   0.02458   0.02458   1.92904
   A24        1.88436  -0.00039   0.00000  -0.00495  -0.00520   1.87916
   A25        1.94043  -0.00087   0.00000   0.00556   0.00545   1.94589
   A26        1.91895  -0.00070   0.00000  -0.00683  -0.00685   1.91210
   A27        1.90499   0.00031   0.00000  -0.00294  -0.00300   1.90199
   A28        1.91613   0.00079   0.00000   0.00710   0.00714   1.92327
   A29        1.89849   0.00171   0.00000   0.01116   0.01118   1.90968
   A30        1.88381  -0.00122   0.00000  -0.01453  -0.01461   1.86920
   A31        1.94468   0.00064   0.00000   0.00518   0.00529   1.94997
   A32        1.90238   0.00062   0.00000   0.00584   0.00581   1.90818
   A33        1.91747   0.00038   0.00000   0.00526   0.00523   1.92270
   A34        1.90655  -0.00113   0.00000  -0.01415  -0.01419   1.89235
   A35        1.91536  -0.00048   0.00000   0.00011   0.00003   1.91539
   A36        1.87603  -0.00006   0.00000  -0.00261  -0.00265   1.87338
   A37        1.94788  -0.00297   0.00000  -0.01806  -0.01808   1.92980
   A38        1.90596   0.00254   0.00000   0.01689   0.01674   1.92270
   A39        1.91070   0.00139   0.00000   0.01320   0.01317   1.92387
   A40        1.90612   0.00019   0.00000  -0.00292  -0.00277   1.90335
   A41        1.91135  -0.00021   0.00000  -0.00476  -0.00469   1.90665
   A42        1.88058  -0.00087   0.00000  -0.00386  -0.00405   1.87654
   A43        1.84659   0.00455   0.00000   0.02340   0.02345   1.87004
   A44        1.93875  -0.00433   0.00000  -0.03108  -0.03151   1.90724
   A45        1.98288   0.00082   0.00000   0.01110   0.01135   1.99423
   A46        1.88061   0.00223   0.00000   0.03017   0.03048   1.91109
   A47        1.89200  -0.00388   0.00000  -0.02828  -0.02835   1.86365
   A48        1.91841   0.00082   0.00000  -0.00301  -0.00289   1.91551
   A49        2.08376  -0.00622   0.00000  -0.01292  -0.01339   2.07037
   A50        2.25158  -0.00500   0.00000  -0.02002  -0.02017   2.23141
   A51        1.97880   0.00561   0.00000   0.02706   0.02648   2.00528
   A52        2.05279  -0.00060   0.00000  -0.00672  -0.00728   2.04551
    D1       -3.03730  -0.00074   0.00000  -0.02210  -0.02158  -3.05888
    D2        0.14414   0.00038   0.00000   0.00000  -0.00000   0.14414
    D3        0.11892  -0.00176   0.00000  -0.05693  -0.05667   0.06226
    D4       -2.98282  -0.00064   0.00000  -0.03483  -0.03508  -3.01790
    D5        3.07368   0.00060   0.00000   0.02604   0.02629   3.09997
    D6       -0.01771  -0.00042   0.00000  -0.00920  -0.00921  -0.02692
    D7       -0.11254  -0.00108   0.00000   0.00000   0.00000  -0.11253
    D8        3.07926  -0.00210   0.00000  -0.03524  -0.03549   3.04377
    D9       -2.69981  -0.00200   0.00000  -0.04964  -0.04997  -2.74978
   D10        0.43452   0.00042   0.00000   0.00692   0.00683   0.44134
   D11        0.48643  -0.00023   0.00000  -0.02323  -0.02312   0.46332
   D12       -2.66243   0.00220   0.00000   0.03333   0.03368  -2.62875
   D13       -0.12775  -0.00014   0.00000   0.00760   0.00788  -0.11987
   D14        2.67738   0.00379   0.00000   0.06050   0.05930   2.73668
   D15        2.96482   0.00083   0.00000   0.04191   0.04251   3.00733
   D16       -0.51324   0.00476   0.00000   0.09481   0.09393  -0.41930
   D17       -2.48323  -0.00071   0.00000  -0.01445  -0.01407  -2.49729
   D18        1.76813  -0.00235   0.00000  -0.02592  -0.02556   1.74257
   D19       -0.47523  -0.00016   0.00000  -0.00241  -0.00241  -0.47763
   D20        0.95881  -0.00007   0.00000  -0.03830  -0.03889   0.91992
   D21       -1.07302  -0.00171   0.00000  -0.04977  -0.05039  -1.12341
   D22        2.96681   0.00048   0.00000  -0.02626  -0.02723   2.93958
   D23        2.94446   0.00234   0.00000   0.02626   0.02611   2.97057
   D24       -1.22658   0.00147   0.00000   0.02193   0.02181  -1.20477
   D25        0.85045  -0.00049   0.00000   0.00337   0.00332   0.85377
   D26        0.92058   0.00316   0.00000   0.03863   0.03861   0.95919
   D27        3.03273   0.00229   0.00000   0.03430   0.03430   3.06703
   D28       -1.17343   0.00033   0.00000   0.01574   0.01582  -1.15761
   D29       -1.08031   0.00144   0.00000   0.00805   0.00806  -1.07225
   D30        1.03184   0.00057   0.00000   0.00372   0.00375   1.03559
   D31        3.10886  -0.00139   0.00000  -0.01483  -0.01473   3.09413
   D32       -2.90030  -0.00102   0.00000  -0.01317  -0.01294  -2.91325
   D33       -0.86422   0.00203   0.00000   0.02022   0.02006  -0.84416
   D34        1.30938   0.00030   0.00000   0.00000  -0.00001   1.30937
   D35       -0.89902  -0.00193   0.00000  -0.02282  -0.02273  -0.92175
   D36        1.13707   0.00112   0.00000   0.01056   0.01027   1.14734
   D37       -2.97251  -0.00061   0.00000  -0.00966  -0.00980  -2.98231
   D38        1.10361   0.00095   0.00000   0.01121   0.01131   1.11492
   D39        3.13970   0.00400   0.00000   0.04459   0.04431  -3.09918
   D40       -0.96989   0.00227   0.00000   0.02438   0.02424  -0.94565
   D41        0.95666   0.00065   0.00000   0.00000   0.00000   0.95666
   D42        3.08230   0.00059   0.00000   0.00803   0.00799   3.09029
   D43       -1.13765  -0.00112   0.00000  -0.01542  -0.01539  -1.15303
   D44       -1.15752   0.00173   0.00000   0.01557   0.01564  -1.14188
   D45        0.96812   0.00167   0.00000   0.02360   0.02362   0.99174
   D46        3.03136  -0.00005   0.00000   0.00016   0.00025   3.03161
   D47        3.06189   0.00060   0.00000   0.00356   0.00352   3.06540
   D48       -1.09566   0.00054   0.00000   0.01159   0.01150  -1.08415
   D49        0.96758  -0.00118   0.00000  -0.01186  -0.01187   0.95571
   D50       -0.92193  -0.00080   0.00000   0.00000   0.00000  -0.92193
   D51        1.18335  -0.00140   0.00000  -0.01051  -0.01052   1.17283
   D52       -3.04844  -0.00089   0.00000  -0.00721  -0.00724  -3.05568
   D53       -3.04922   0.00012   0.00000   0.00010   0.00011  -3.04911
   D54       -0.94394  -0.00047   0.00000  -0.01041  -0.01041  -0.95435
   D55        1.10746   0.00003   0.00000  -0.00712  -0.00714   1.10032
   D56        1.17622   0.00014   0.00000   0.00701   0.00705   1.18326
   D57       -3.00169  -0.00045   0.00000  -0.00349  -0.00348  -3.00517
   D58       -0.95029   0.00005   0.00000  -0.00020  -0.00020  -0.95049
   D59        0.98784  -0.00083   0.00000  -0.01181  -0.01184   0.97601
   D60        3.09701  -0.00080   0.00000  -0.01576  -0.01591   3.08111
   D61       -1.13109   0.00044   0.00000  -0.00294  -0.00291  -1.13399
   D62       -1.11499  -0.00126   0.00000  -0.01304  -0.01303  -1.12802
   D63        0.99418  -0.00123   0.00000  -0.01700  -0.01710   0.97708
   D64        3.04926   0.00000   0.00000  -0.00418  -0.00410   3.04517
   D65        3.11557  -0.00024   0.00000  -0.00163  -0.00163   3.11394
   D66       -1.05845  -0.00021   0.00000  -0.00559  -0.00569  -1.06414
   D67        0.99664   0.00102   0.00000   0.00724   0.00730   1.00394
   D68       -1.05252   0.00005   0.00000  -0.00003   0.00004  -1.05248
   D69       -3.12753   0.00159   0.00000   0.00881   0.00845  -3.11908
   D70        1.08025   0.00150   0.00000   0.01112   0.01106   1.09130
   D71        3.12159  -0.00135   0.00000  -0.00763  -0.00749   3.11410
   D72        1.04659   0.00019   0.00000   0.00121   0.00092   1.04751
   D73       -1.02883   0.00011   0.00000   0.00352   0.00353  -1.02530
   D74        1.06604  -0.00029   0.00000   0.00151   0.00168   1.06772
   D75       -1.00897   0.00125   0.00000   0.01035   0.01010  -0.99887
   D76       -3.08438   0.00116   0.00000   0.01266   0.01270  -3.07167
   D77       -1.17216   0.00378   0.00000   0.00000  -0.00001  -1.17217
   D78        3.06375   0.00019   0.00000  -0.01704  -0.01694   3.04681
   D79        1.01236  -0.00070   0.00000  -0.03521  -0.03547   0.97689
   D80        0.13331   0.00185   0.00000   0.02353   0.02314   0.15644
   D81       -3.00076  -0.00069   0.00000  -0.03518  -0.03490  -3.03566
         Item               Value     Threshold  Converged?
 Maximum Force            0.037715     0.000450     NO 
 RMS     Force            0.006980     0.000300     NO 
 Maximum Displacement     0.291066     0.001800     NO 
 RMS     Displacement     0.056040     0.001200     NO 
 Predicted change in Energy=-1.329219D-02
 GradGradGradGradGradGradGradGradGradGradGradGradGradGradGradGradGradGrad

                          Input orientation:                          
 ---------------------------------------------------------------------
 Center     Atomic      Atomic             Coordinates (Angstroms)
 Number     Number       Type             X           Y           Z
 ---------------------------------------------------------------------
      1          8           0       -3.481444   -1.423669   -0.228626
      2          7           0       -3.128914   -0.248938   -0.046234
      3          8           0       -3.883684    0.716793    0.145735
      4          6           0       -1.684117   -0.004676   -0.033681
      5          6           0       -1.318873    1.270335    0.267752
      6          7           0       -0.067996    1.751570    0.390878
      7          6           0        1.193678    1.005087    0.368600
      8          1           0        1.827530    1.518720    1.110052
      9          6           0        1.925531    1.049932   -0.969327
     10          6           0        3.326079    0.450806   -0.796947
     11          6           0        3.263745   -0.961226   -0.203064
     12          6           0        2.442544   -0.997246    1.085931
     13          6           0        1.033249   -0.442158    0.842841
     14          1           0        0.465474   -0.454743    1.786309
     15          7           0        0.395089   -1.323878   -0.128320
     16          6           0       -0.844381   -1.126873   -0.419803
     17          1           0       -2.111256    1.993482    0.444865
     18          1           0        0.058060    2.750463    0.259971
     19          1           0        1.358019    0.481011   -1.714182
     20          1           0        1.991479    2.088181   -1.322135
     21          1           0        3.838592    0.431615   -1.765446
     22          1           0        3.913662    1.100763   -0.133219
     23          1           0        2.800214   -1.639426   -0.927996
     24          1           0        4.276424   -1.334210   -0.007729
     25          1           0        2.363115   -2.026073    1.454526
     26          1           0        2.935727   -0.403352    1.867149
     27          1           0       -1.326566   -1.859290   -1.069909
 ---------------------------------------------------------------------
                    Distance matrix (angstroms):
                    1          2          3          4          5
     1  O    0.000000
     2  N    1.239975   0.000000
     3  O    2.209870   1.240632   0.000000
     4  C    2.298245   1.465354   2.321811   0.000000
     5  C    3.490095   2.383910   2.626700   1.360116   0.000000
     6  N    4.702931   3.682706   3.961103   2.424148   1.345898
     7  C    5.302103   4.519898   5.090422   3.076224   2.528525
     8  H    6.215698   5.387759   5.847303   3.995061   3.266652
     9  C    5.991887   5.299677   5.924637   3.875201   3.479238
    10  C    7.083715   6.536066   7.275994   5.088428   4.835369
    11  C    6.761070   6.434131   7.350045   5.042322   5.118781
    12  C    6.083053   5.734363   6.621410   4.389540   4.467617
    13  C    4.742769   4.260445   5.099545   2.888556   2.965778
    14  H    4.536181   4.039826   4.793658   2.852308   2.909605
    15  N    3.879114   3.685218   4.748405   2.464213   3.134402
    16  C    2.660589   2.475766   3.599486   1.453813   2.538598
    17  H    3.742717   2.511027   2.204748   2.098592   1.087282
    18  H    5.494560   4.387137   4.436914   3.272950   2.021579
    19  H    5.408796   4.842256   5.566897   3.509211   3.422987
    20  H    6.594068   5.771350   6.209098   4.421557   3.762319
    21  H    7.706284   7.208674   7.960370   5.804280   5.606852
    22  H    7.814695   7.171272   7.811777   5.706753   5.250615
    23  H    6.324151   6.153497   7.167926   4.856072   5.182992
    24  H    7.761528   7.484540   8.415316   6.107076   6.177936
    25  H    6.111854   5.964300   6.946852   4.762446   5.082497
    26  H    6.827401   6.361191   7.121963   5.011492   4.843647
    27  H    2.353937   2.624805   3.827904   2.154346   3.403520
                    6          7          8          9         10
     6  N    0.000000
     7  C    1.466136   0.000000
     8  H    2.040698   1.102423   0.000000
     9  C    2.513285   1.525670   2.133819   0.000000
    10  C    3.823959   2.492561   2.650045   1.533037   0.000000
    11  C    4.337341   2.911763   3.152320   2.534311   1.533108
    12  C    3.787071   2.466489   2.590156   2.946579   2.534309
    13  C    2.495888   1.531391   2.132446   2.511265   2.956917
    14  H    2.664515   2.161315   2.491400   3.462563   3.959330
    15  N    3.153156   2.511722   3.415525   2.946950   3.491027
    16  C    3.089565   3.052952   4.059399   3.565511   4.474824
    17  H    2.058239   3.450411   4.022674   4.380168   5.786758
    18  H    1.015290   2.085131   2.317510   2.808991   4.133455
    19  H    2.842378   2.153983   3.045254   1.095695   2.171519
    20  H    2.699844   2.160594   2.503338   1.098537   2.176689
    21  H    4.653326   3.446533   3.673507   2.162388   1.095914
    22  H    4.068394   2.767542   2.464216   2.157389   1.099197
    23  H    4.633024   3.354932   3.882478   2.828326   2.159347
    24  H    5.343680   3.888092   3.922464   3.483605   2.170784
    25  H    4.616518   3.425601   3.601537   3.940602   3.483010
    26  H    3.980630   2.695196   2.344282   3.343370   2.824777
    27  H    4.093434   4.077449   5.109941   4.364609   5.201745
                   11         12         13         14         15
    11  C    0.000000
    12  C    1.528782   0.000000
    13  C    2.517629   1.534056   0.000000
    14  H    3.470512   2.166483   1.101209   0.000000
    15  N    2.892453   2.402741   1.458708   2.103843   0.000000
    16  C    4.117173   3.617722   2.364021   2.652246   1.288433
    17  H    6.167718   5.485665   3.997330   3.799055   4.197045
    18  H    4.926201   4.518109   3.388741   3.573380   4.106655
    19  H    2.827599   3.346950   2.737897   3.731717   2.588400
    20  H    3.488533   3.939810   3.465248   4.296229   3.951683
    21  H    2.170598   3.481515   3.928942   4.977803   4.197576
    22  H    2.163116   2.837633   3.410290   4.241956   4.273086
    23  H    1.095601   2.143880   2.773351   3.771198   2.554149
    24  H    1.096719   2.161655   3.469497   4.302950   3.883222
    25  H    2.166249   1.095744   2.156731   2.486001   2.621374
    26  H    2.169009   1.098290   2.161049   2.472110   3.359182
    27  H    4.756983   4.426845   3.351954   3.652689   2.034048
                   16         17         18         19         20
    16  C    0.000000
    17  H    3.476958   0.000000
    18  H    4.038592   2.305024   0.000000
    19  H    3.018489   4.357169   3.276825   0.000000
    20  H    4.380967   4.468075   2.584529   1.771430   0.000000
    21  H    5.115650   6.536482   4.875633   2.481594   2.520428
    22  H    5.261508   6.118069   4.212099   3.068363   2.466435
    23  H    3.715380   6.261415   5.310537   2.682214   3.834639
    24  H    5.141541   7.216706   5.877995   3.837200   4.319884
    25  H    3.822263   6.098872   5.436501   4.163700   4.977454
    26  H    4.476924   5.765392   4.561857   4.012130   4.155824
    27  H    1.091593   4.213565   4.993555   3.619266   5.162902
                   21         22         23         24         25
    21  H    0.000000
    22  H    1.765661   0.000000
    23  H    2.463486   3.062691   0.000000
    24  H    2.529705   2.465043   1.766138   0.000000
    25  H    4.311088   3.834350   2.452949   2.505517   0.000000
    26  H    3.835111   2.687041   3.059260   2.485786   1.769567
    27  H    5.693054   6.090919   4.135068   5.726904   4.473738
                   26         27
    26  H    0.000000
    27  H    5.377100   0.000000
 Symmetry turned off by external request.
 Stoichiometry    C9H13N3O2
 Framework group  C1[X(C9H13N3O2)]
 Deg. of freedom    75
 Full point group                 C1      NOp   1
 Rotational constants (GHZ):           1.6874458           0.4214657           0.3721792
 Standard basis: 6-31G(d) (6D, 7F)
   236 basis functions,   444 primitive gaussians,   236 cartesian basis functions
    52 alpha electrons       52 beta electrons
       nuclear repulsion energy       932.0884769534 Hartrees.
 NAtoms=   27 NActive=   27 NUniq=   27 SFac= 1.00D+00 NAtFMM=   60 NAOKFM=F Big=F
 Integral buffers will be    131072 words long.
 Raffenetti 1 integral format.
 Two-electron integral symmetry is turned off.
 One-electron integrals computed using PRISM.
 NBasis=   236 RedAO= T EigKep=  1.00D-03  NBF=   236
 NBsUse=   236 1.00D-06 EigRej= -1.00D+00 NBFU=   236
 Initial guess from the checkpoint file:  "/home/alexey/tmp/Gau-1553686.chk"
 B after Tr=     0.055299    0.005988   -0.001057
         Rot=    0.999998   -0.001141    0.000958    0.001249 Ang=  -0.22 deg.
 ExpMin= 1.61D-01 ExpMax= 5.48D+03 ExpMxC= 8.25D+02 IAcc=3 IRadAn=         5 AccDes= 0.00D+00
 Harris functional with IExCor=  205 and IRadAn=       5 diagonalized for initial guess.
 HarFok:  IExCor=  205 AccDes= 0.00D+00 IRadAn=         5 IDoV= 1 UseB2=F ITyADJ=14
 ICtDFT=  3500011 ScaDFX=  1.000000  1.000000  1.000000  1.000000
 FoFCou: FMM=F IPFlag=           0 FMFlag=      100000 FMFlg1=           0
         NFxFlg=           0 DoJE=T BraDBF=F KetDBF=T FulRan=T
         wScrn=  0.000000 ICntrl=       500 IOpCl=  0 I1Cent=   200000004 NGrid=           0
         NMat0=    1 NMatS0=      1 NMatT0=    0 NMatD0=    1 NMtDS0=    0 NMtDT0=    0
 Symmetry not used in FoFCou.
 Keep R1 ints in memory in canonical form, NReq=397720213.
 Requested convergence on RMS density matrix=1.00D-08 within 128 cycles.
 Requested convergence on MAX density matrix=1.00D-06.
 Requested convergence on             energy=1.00D-06.
 No special actions if energy rises.
 SCF Done:  E(RHF) =  -661.298214900     A.U. after   15 cycles
            NFock= 15  Conv=0.37D-08     -V/T= 2.0024
 ExpMin= 1.61D-01 ExpMax= 5.48D+03 ExpMxC= 8.25D+02 IAcc=3 IRadAn=         5 AccDes= 0.00D+00
 HarFok:  IExCor=  205 AccDes= 0.00D+00 IRadAn=         5 IDoV=-2 UseB2=F ITyADJ=14
 ICtDFT= 12500011 ScaDFX=  1.000000  1.000000  1.000000  1.000000
 Range of M.O.s used for correlation:    15   236
 NBasis=   236 NAE=    52 NBE=    52 NFC=    14 NFV=     0
 NROrb=    222 NOA=    38 NOB=    38 NVA=   184 NVB=   184
 Fully direct method using O(ONN) memory.
 JobTyp=1 Pass  1:  I=  15 to  52 NPSUse=  4 ParTrn=T ParDer=T DoDerP=T.
 Spin components of T(2) and E(2):
     alpha-alpha T2 =       0.9124267441D-01 E2=     -0.2723204868D+00
     alpha-beta  T2 =       0.4912620312D+00 E2=     -0.1488007518D+01
     beta-beta   T2 =       0.9124267441D-01 E2=     -0.2723204868D+00
 ANorm=    0.1293733891D+01
 E2 =    -0.2032648492D+01 EUMP2 =    -0.66333086339164D+03
          IDoAtm=111111111111111111111111111
          Differentiating once with respect to electric field.
                with respect to dipole field.
          Differentiating once with respect to nuclear coordinates.
 Keep R1 ints in memory in canonical form, NReq=397723379.
          There are     1 degrees of freedom in the 1st order CPHF.  IDoFFX=0 NUNeed=     1.
 LinEq1:  Iter=  0 NonCon=     1 RMS=4.57D-03 Max=1.05D-01 NDo=     1
 AX will form     1 AO Fock derivatives at one time.
 LinEq1:  Iter=  1 NonCon=     1 RMS=1.53D-03 Max=2.72D-02 NDo=     1
 LinEq1:  Iter=  2 NonCon=     1 RMS=6.42D-04 Max=1.77D-02 NDo=     1
 LinEq1:  Iter=  3 NonCon=     1 RMS=2.80D-04 Max=8.19D-03 NDo=     1
 LinEq1:  Iter=  4 NonCon=     1 RMS=8.71D-05 Max=1.95D-03 NDo=     1
 LinEq1:  Iter=  5 NonCon=     1 RMS=3.64D-05 Max=1.79D-03 NDo=     1
 LinEq1:  Iter=  6 NonCon=     1 RMS=1.41D-05 Max=5.35D-04 NDo=     1
[...]
    19  H    2.990942   4.303413   3.511848   0.000000
    20  H    4.375391   4.449322   2.881967   1.768539   0.000000
    21  H    5.096791   6.511287   5.086487   2.499216   2.521015
    22  H    5.248886   6.100578   4.313258   3.070236   2.461451
    23  H    3.695093   6.235044   5.421204   2.704214   3.842921
    24  H    5.133897   7.200913   5.936713   3.849635   4.317119
    25  H    3.821405   6.088325   5.369772   4.171509   4.985079
    26  H    4.495244   5.781353   4.485399   4.036072   4.182393
    27  H    1.089668   4.215354   5.079382   3.583350   5.147968
                   21         22         23         24         25
    21  H    0.000000
    22  H    1.758857   0.000000
    23  H    2.469471   3.062291   0.000000
    24  H    2.517352   2.459911   1.764580   0.000000
    25  H    4.312019   3.839552   2.444067   2.519689   0.000000
    26  H    3.846770   2.704449   3.060431   2.491717   1.767986
    27  H    5.652982   6.060464   4.090396   5.694712   4.454354
                   26         27
    26  H    0.000000
    27  H    5.378514   0.000000
 Symmetry turned off by external request.
 Stoichiometry    C9H13N3O2
 Framework group  C1[X(C9H13N3O2)]
 Deg. of freedom    75
 Full point group                 C1      NOp   1
 Rotational constants (GHZ):           1.6800343           0.4193388           0.3721350

 **********************************************************************

            Population analysis using the SCF Density.

 **********************************************************************

 Alpha  occ. eigenvalues --  -20.59236 -20.58904 -15.84722 -15.64136 -15.56113
 Alpha  occ. eigenvalues --  -11.35018 -11.29623 -11.29560 -11.28628 -11.27134
 Alpha  occ. eigenvalues --  -11.23729 -11.23208 -11.22692 -11.22090  -1.57115
 Alpha  occ. eigenvalues --   -1.36708  -1.30977  -1.23064  -1.14703  -1.09819
 Alpha  occ. eigenvalues --   -1.02805  -1.01308  -0.94481  -0.89685  -0.85566
 Alpha  occ. eigenvalues --   -0.82448  -0.78609  -0.77411  -0.75203  -0.72019
 Alpha  occ. eigenvalues --   -0.69770  -0.69437  -0.67820  -0.64893  -0.63777
 Alpha  occ. eigenvalues --   -0.62367  -0.60282  -0.57700  -0.57001  -0.55077
 Alpha  occ. eigenvalues --   -0.54582  -0.50762  -0.50108  -0.48656  -0.48102
 Alpha  occ. eigenvalues --   -0.47372  -0.46147  -0.46045  -0.43677  -0.41695
 Alpha  occ. eigenvalues --   -0.39849  -0.33830
 Alpha virt. eigenvalues --    0.07464   0.11799   0.17307   0.21848   0.24112
 Alpha virt. eigenvalues --    0.25663   0.27134   0.28694   0.29043   0.29635
 Alpha virt. eigenvalues --    0.30682   0.31797   0.32036   0.32766   0.33950
 Alpha virt. eigenvalues --    0.34386   0.35849   0.37312   0.38581   0.40291
 Alpha virt. eigenvalues --    0.41386   0.42443   0.45025   0.46117   0.46731
 Alpha virt. eigenvalues --    0.47077   0.49000   0.53996   0.57578   0.59404
 Alpha virt. eigenvalues --    0.63912   0.69543   0.69908   0.72860   0.74243
 Alpha virt. eigenvalues --    0.74867   0.75781   0.76676   0.78660   0.79441
 Alpha virt. eigenvalues --    0.81385   0.84691   0.85717   0.85806   0.88530
 Alpha virt. eigenvalues --    0.89423   0.91051   0.92114   0.92854   0.94527
 Alpha virt. eigenvalues --    0.95642   0.98038   0.99637   1.01675   1.02471
 Alpha virt. eigenvalues --    1.03152   1.05873   1.06970   1.07901   1.09013
 Alpha virt. eigenvalues --    1.10283   1.11418   1.11855   1.12443   1.13915
 Alpha virt. eigenvalues --    1.14766   1.14990   1.15831   1.16903   1.18726
 Alpha virt. eigenvalues --    1.19136   1.21336   1.22576   1.23915   1.24533
 Alpha virt. eigenvalues --    1.24829   1.26038   1.26911   1.27486   1.29557
 Alpha virt. eigenvalues --    1.30007   1.33126   1.36069   1.37181   1.40860
 Alpha virt. eigenvalues --    1.41850   1.46488   1.48741   1.51702   1.54291
 Alpha virt. eigenvalues --    1.56373   1.58778   1.59555   1.63465   1.65626
 Alpha virt. eigenvalues --    1.68030   1.68625   1.72990   1.75221   1.77376
 Alpha virt. eigenvalues --    1.81578   1.84601   1.87685   1.90651   1.93491
 Alpha virt. eigenvalues --    1.95815   1.96956   1.99719   2.01570   2.02522
 Alpha virt. eigenvalues --    2.05101   2.05605   2.08497   2.09557   2.12395
 Alpha virt. eigenvalues --    2.13262   2.15295   2.18826   2.20013   2.22451
 Alpha virt. eigenvalues --    2.22637   2.24492   2.25491   2.28214   2.29547
 Alpha virt. eigenvalues --    2.31994   2.33723   2.34701   2.36398   2.38459
 Alpha virt. eigenvalues --    2.40481   2.41928   2.43868   2.45137   2.47363
 Alpha virt. eigenvalues --    2.50720   2.51947   2.53114   2.55574   2.61501
 Alpha virt. eigenvalues --    2.62309   2.65192   2.67625   2.70313   2.70495
 Alpha virt. eigenvalues --    2.72270   2.72649   2.76981   2.78439   2.83805
 Alpha virt. eigenvalues --    2.88567   2.88948   2.92944   2.93135   2.96056
 Alpha virt. eigenvalues --    2.99438   3.01342   3.04314   3.05723   3.07675
 Alpha virt. eigenvalues --    3.09414   3.15048   3.21210   3.25216   3.27459
 Alpha virt. eigenvalues --    3.33446   3.37783   3.38782   3.52163   3.65798
 Alpha virt. eigenvalues --    4.13673   4.28072   4.34716   4.38921   4.46293
 Alpha virt. eigenvalues --    4.56306   4.61872   4.62353   4.73465   4.79738
 Alpha virt. eigenvalues --    4.99415   5.00897   5.05023   5.11165
          Condensed to atoms (all electrons):
               1          2          3          4          5          6
     1  O    8.316095   0.306969  -0.082544  -0.085466   0.004639  -0.000016
     2  N    0.306969   5.722362   0.301232   0.264184  -0.053647   0.000969
     3  O   -0.082544   0.301232   8.353653  -0.092657   0.003627   0.000785
     4  C   -0.085466   0.264184  -0.092657   5.225607   0.560356  -0.047287
     5  C    0.004639  -0.053647   0.003627   0.560356   4.710015   0.317416
     6  N   -0.000016   0.000969   0.000785  -0.047287   0.317416   7.195593
     7  C    0.000004  -0.000140   0.000002   0.004631  -0.030206   0.169267
     8  H   -0.000000   0.000002  -0.000000  -0.000261   0.003096  -0.050672
     9  C   -0.000000  -0.000004  -0.000000   0.000854   0.000626  -0.061658
    10  C    0.000000   0.000000   0.000000  -0.000038  -0.000052   0.003748
    11  C   -0.000000  -0.000000  -0.000000  -0.000028   0.000025  -0.000190
    12  C   -0.000000   0.000002  -0.000000  -0.000127  -0.000176   0.003873
    13  C   -0.000025  -0.000039  -0.000004  -0.011559  -0.000585  -0.047691
    14  H   -0.000004  -0.000104   0.000001   0.002645   0.006075  -0.006957
    15  N    0.000382   0.002362  -0.000016  -0.063513  -0.006398   0.001597
    16  C    0.000857  -0.027274   0.002548   0.328484  -0.050332  -0.001854
    17  H    0.000220  -0.007234   0.017396  -0.023146   0.374510  -0.034181
    18  H    0.000001  -0.000050   0.000012   0.001506  -0.031446   0.338681
    19  H    0.000001  -0.000004   0.000000  -0.001226   0.001233  -0.000352
    20  H    0.000000  -0.000000   0.000000  -0.000079   0.000153  -0.000429
    21  H   -0.000000   0.000000   0.000000   0.000001   0.000001  -0.000077
    22  H   -0.000000   0.000000  -0.000000  -0.000000  -0.000003  -0.000117
    23  H    0.000000  -0.000000   0.000000   0.000040  -0.000000  -0.000031
    24  H    0.000000   0.000000   0.000000   0.000000  -0.000000   0.000006
    25  H    0.000000  -0.000000   0.000000   0.000024   0.000000  -0.000090
    26  H    0.000000  -0.000000   0.000000   0.000006  -0.000002  -0.000060
    27  H    0.006123  -0.000878   0.000018  -0.063400   0.002213   0.000017
               7          8          9         10         11         12
     1  O    0.000004  -0.000000  -0.000000   0.000000  -0.000000  -0.000000
     2  N   -0.000140   0.000002  -0.000004   0.000000  -0.000000   0.000002
     3  O    0.000002  -0.000000  -0.000000   0.000000  -0.000000  -0.000000
     4  C    0.004631  -0.000261   0.000854  -0.000038  -0.000028  -0.000127
     5  C   -0.030206   0.003096   0.000626  -0.000052   0.000025  -0.000176
     6  N    0.169267  -0.050672  -0.061658   0.003748  -0.000190   0.003873
     7  C    5.017557   0.418418   0.350529  -0.054671  -0.009029  -0.061069
     8  H    0.418418   0.538084  -0.055044   0.000776  -0.000325  -0.002230
     9  C    0.350529  -0.055044   5.158227   0.324774  -0.050416  -0.005342
    10  C   -0.054671   0.000776   0.324774   5.119311   0.336999  -0.060989
    11  C   -0.009029  -0.000325  -0.050416   0.336999   5.119921   0.335973
    12  C   -0.061069  -0.002230  -0.005342  -0.060989   0.335973   5.118632
    13  C    0.338593  -0.037938  -0.060237  -0.000286  -0.050690   0.371989
    14  H   -0.046592  -0.000746   0.004422  -0.000405   0.004195  -0.036318
    15  N   -0.057950   0.003900  -0.014608   0.001561  -0.013053  -0.082066
    16  C   -0.001778   0.000009  -0.001269  -0.000029   0.000029   0.002609
    17  H    0.001616  -0.000045  -0.000070   0.000001   0.000000   0.000000
    18  H   -0.021215  -0.004473   0.001328  -0.000083   0.000004  -0.000114
    19  H   -0.036859   0.004362   0.390223  -0.032069  -0.002212   0.000689
    20  H   -0.042412  -0.002077   0.399488  -0.035302   0.003931  -0.000415
    21  H    0.004599  -0.000076  -0.036357   0.402432  -0.034894   0.004348
    22  H   -0.004849   0.003559  -0.046955   0.397752  -0.045402  -0.001021
    23  H    0.000577   0.000035  -0.001958  -0.039019   0.399178  -0.037867
    24  H   -0.000130  -0.000102   0.004388  -0.038436   0.402340  -0.038690
    25  H    0.005151  -0.000025  -0.000423   0.004190  -0.033400   0.398274
    26  H   -0.003905   0.001685   0.000968  -0.002231  -0.041480   0.396727
    27  H   -0.000408   0.000009  -0.000058   0.000007   0.000012  -0.000036
              13         14         15         16         17         18
     1  O   -0.000025  -0.000004   0.000382   0.000857   0.000220   0.000001
     2  N   -0.000039  -0.000104   0.002362  -0.027274  -0.007234  -0.000050
     3  O   -0.000004   0.000001  -0.000016   0.002548   0.017396   0.000012
     4  C   -0.011559   0.002645  -0.063513   0.328484  -0.023146   0.001506
     5  C   -0.000585   0.006075  -0.006398  -0.050332   0.374510  -0.031446
     6  N   -0.047691  -0.006957   0.001597  -0.001854  -0.034181   0.338681
     7  C    0.338593  -0.046592  -0.057950  -0.001778   0.001616  -0.021215
     8  H   -0.037938  -0.000746   0.003900   0.000009  -0.000045  -0.004473
     9  C   -0.060237   0.004422  -0.014608  -0.001269  -0.000070   0.001328
    10  C   -0.000286  -0.000405   0.001561  -0.000029   0.000001  -0.000083
    11  C   -0.050690   0.004195  -0.013053   0.000029   0.000000   0.000004
    12  C    0.371989  -0.036318  -0.082066   0.002609   0.000000  -0.000114
    13  C    5.040268   0.403079   0.244764  -0.071082  -0.000009   0.002971
    14  H    0.403079   0.526773  -0.037371  -0.004538   0.000093  -0.000109
    15  N    0.244764  -0.037371   6.965124   0.585198  -0.000080  -0.000132
    16  C   -0.071082  -0.004538   0.585198   4.709878   0.002012  -0.000197
    17  H   -0.000009   0.000093  -0.000080   0.002012   0.376474  -0.002817
    18  H    0.002971  -0.000109  -0.000132  -0.000197  -0.002817   0.310596
    19  H   -0.007547   0.000106   0.007694   0.003001   0.000016  -0.000149
    20  H    0.004339  -0.000066   0.000126  -0.000036   0.000002   0.000807
    21  H   -0.000433   0.000010  -0.000041   0.000004  -0.000000   0.000001
    22  H    0.000045  -0.000055   0.000019  -0.000002   0.000000   0.000001
    23  H   -0.007522   0.000003   0.008589   0.000106   0.000000   0.000000
    24  H    0.004699  -0.000057   0.000135   0.000007   0.000000  -0.000000
    25  H   -0.035562  -0.002816   0.000409  -0.000022  -0.000000   0.000002
    26  H   -0.047409  -0.001047   0.004899  -0.000061   0.000000  -0.000000
    27  H    0.005061  -0.000174  -0.040320   0.403678  -0.000079   0.000001
              19         20         21         22         23         24
     1  O    0.000001   0.000000  -0.000000  -0.000000   0.000000   0.000000
     2  N   -0.000004  -0.000000   0.000000   0.000000  -0.000000   0.000000
     3  O    0.000000   0.000000   0.000000  -0.000000   0.000000   0.000000
     4  C   -0.001226  -0.000079   0.000001  -0.000000   0.000040   0.000000
     5  C    0.001233   0.000153   0.000001  -0.000003  -0.000000  -0.000000
     6  N   -0.000352  -0.000429  -0.000077  -0.000117  -0.000031   0.000006
     7  C   -0.036859  -0.042412   0.004599  -0.004849   0.000577  -0.000130
     8  H    0.004362  -0.002077  -0.000076   0.003559   0.000035  -0.000102
     9  C    0.390223   0.399488  -0.036357  -0.046955  -0.001958   0.004388
    10  C   -0.032069  -0.035302   0.402432   0.397752  -0.039019  -0.038436
    11  C   -0.002212   0.003931  -0.034894  -0.045402   0.399178   0.402340
    12  C    0.000689  -0.000415   0.004348  -0.001021  -0.037867  -0.038690
    13  C   -0.007547   0.004339  -0.000433   0.000045  -0.007522   0.004699
    14  H    0.000106  -0.000066   0.000010  -0.000055   0.000003  -0.000057
    15  N    0.007694   0.000126  -0.000041   0.000019   0.008589   0.000135
    16  C    0.003001  -0.000036   0.000004  -0.000002   0.000106   0.000007
    17  H    0.000016   0.000002  -0.000000   0.000000   0.000000   0.000000
    18  H   -0.000149   0.000807   0.000001   0.000001   0.000000  -0.000000
    19  H    0.504958  -0.024738  -0.002787   0.003959   0.001514  -0.000066
    20  H   -0.024738   0.541152  -0.002692  -0.002990  -0.000045  -0.000083
    21  H   -0.002787  -0.002692   0.524025  -0.027404  -0.002898  -0.002242
    22  H    0.003959  -0.002990  -0.027404   0.571319   0.004137  -0.003656
    23  H    0.001514  -0.000045  -0.002898   0.004137   0.498964  -0.025451
    24  H   -0.000066  -0.000083  -0.002242  -0.003656  -0.025451   0.538122
    25  H   -0.000029   0.000012  -0.000087  -0.000080  -0.002318  -0.002291
    26  H    0.000019  -0.000030  -0.000081   0.002379   0.004067  -0.003035
    27  H    0.000083   0.000000  -0.000000   0.000000  -0.000035  -0.000000
              25         26         27
     1  O    0.000000   0.000000   0.006123
     2  N   -0.000000  -0.000000  -0.000878
     3  O    0.000000   0.000000   0.000018
     4  C    0.000024   0.000006  -0.063400
     5  C    0.000000  -0.000002   0.002213
     6  N   -0.000090  -0.000060   0.000017
     7  C    0.005151  -0.003905  -0.000408
     8  H   -0.000025   0.001685   0.000009
     9  C   -0.000423   0.000968  -0.000058
    10  C    0.004190  -0.002231   0.000007
    11  C   -0.033400  -0.041480   0.000012
    12  C    0.398274   0.396727  -0.000036
    13  C   -0.035562  -0.047409   0.005061
    14  H   -0.002816  -0.001047  -0.000174
    15  N    0.000409   0.004899  -0.040320
    16  C   -0.000022  -0.000061   0.403678
    17  H   -0.000000   0.000000  -0.000079
    18  H    0.000002  -0.000000   0.000001
    19  H   -0.000029   0.000019   0.000083
    20  H    0.000012  -0.000030   0.000000
    21  H   -0.000087  -0.000081  -0.000000
    22  H   -0.000080   0.002379   0.000000
    23  H   -0.002318   0.004067  -0.000035
    24  H   -0.002291  -0.003035  -0.000000
    25  H    0.506109  -0.024080  -0.000013
    26  H   -0.024080   0.562320   0.000001
    27  H   -0.000013   0.000001   0.439302
 Mulliken charges:
               1
     1  O   -0.467236
     2  N    0.491292
     3  O   -0.504053
     4  C    0.000448
     5  C    0.188863
     6  N   -0.780291
     7  C    0.060266
     8  H    0.180079
     9  C   -0.301428
    10  C   -0.327940
    11  C   -0.321489
    12  C   -0.306657
    13  C   -0.037191
    14  H    0.189958
    15  N   -0.511209
    16  C    0.120056
    17  H    0.295319
    18  H    0.404874
    19  H    0.190181
    20  H    0.161385
    21  H    0.174647
    22  H    0.149362
    23  H    0.199933
    24  H    0.164542
    25  H    0.187064
    26  H    0.150348
    27  H    0.248877
 Sum of Mulliken charges =  -0.00000
 Mulliken charges with hydrogens summed into heavy atoms:
               1
     1  O   -0.467236
     2  N    0.491292
     3  O   -0.504053
     4  C    0.000448
     5  C    0.484182
     6  N   -0.375416
     7  C    0.240345
     9  C    0.050138
    10  C   -0.003931
    11  C    0.042986
    12  C    0.030755
    13  C    0.152767
    15  N   -0.511209
    16  C    0.368933
 Electronic spatial extent (au):  <R**2>=           3005.3797
 Charge=             -0.0000 electrons
 Dipole moment (field-independent basis, Debye):
    X=              5.4161    Y=              4.7958    Z=              1.2811  Tot=              7.3468
 Quadrupole moment (field-independent basis, Debye-Ang):
   XX=           -106.1415   YY=            -79.2258   ZZ=            -81.5010
   XY=             -1.7656   XZ=             -0.1330   YZ=              1.8561
 Traceless Quadrupole moment (field-independent basis, Debye-Ang):
   XX=            -17.1854   YY=              9.7303   ZZ=              7.4551
   XY=             -1.7656   XZ=             -0.1330   YZ=              1.8561
 Octapole moment (field-independent basis, Debye-Ang**2):
  XXX=             92.4071  YYY=             36.2803  ZZZ=             -1.4837  XYY=             -4.5764
  XXY=              9.5316  XXZ=              4.9320  XZZ=             -9.7593  YZZ=             -0.3931
  YYZ=              7.9968  XYZ=              0.2523
 Hexadecapole moment (field-independent basis, Debye-Ang**3):
 XXXX=          -3382.1119 YYYY=           -601.0720 ZZZZ=           -303.8025 XXXY=            -20.8918
 XXXZ=            -13.5505 YYYX=             -8.9499 YYYZ=             25.0091 ZZZX=              1.8320
 ZZZY=              7.0897 XXYY=           -627.7801 XXZZ=           -523.8091 YYZZ=           -157.3243
 XXYZ=             -4.2899 YYXZ=              1.6688 ZZXY=              4.6961
 N-N= 9.312302886169D+02 E-N=-3.409176716189D+03  KE= 6.596286624220D+02
 Unable to Open any file for archive entry.
 1\1\GINC-LOTUS\FOpt\RMP2-FC\6-31G(d)\C9H13N3O2\ALEXEY\02-Jul-2023\0\\#
 MP2/6-31G* SCF=Tight Opt=(ModRedun, MaxCycle=20 ) NoSymm\\MolName:\\0,
 1\O,-3.5069890017,-1.3902896887,-0.3711478116\N,-3.1211066573,-0.23221
 19764,-0.1185936269\O,-3.8952995907,0.7288781271,0.0555887725\C,-1.686
 6339993,-0.0238656838,-0.0097253676\C,-1.3014184343,1.2606156822,0.275
 2130831\N,-0.057189158,1.7501718761,0.3863291402\C,1.2056118414,1.0239
 889271,0.3593146054\H,1.8533613253,1.5528940667,1.0747530624\C,1.90913
 21499,1.03509586,-0.9965049854\C,3.307510167,0.428454727,-0.8324199008
 \C,3.259511577,-0.9676592501,-0.2058549008\C,2.4645012263,-0.978300837
 7,1.101601915\C,1.0547780614,-0.4246061627,0.8651614536\H,0.4782208857
 ,-0.4032823021,1.8035755621\N,0.4082558492,-1.3180451086,-0.0910041659
 \C,-0.8391123988,-1.1382628314,-0.3863700348\H,-2.0962155589,1.9874995
 312,0.4187979403\H,0.0016507851,2.7353403069,0.6155155407\H,1.31488928
 38,0.4576344732,-1.7126897207\H,1.9751167417,2.0630273254,-1.374248766
 \H,3.8114968444,0.3903863446,-1.8049414317\H,3.9072773614,1.094760871,
 -0.1961338895\H,2.7818364489,-1.6644332342,-0.9017225873\H,4.278676200
 5,-1.3311809686,-0.0287071049\H,2.3790430979,-2.000240492,1.4854211477
 \H,2.9744524886,-0.3804827228,1.8696681207\H,-1.3003775366,-1.89288685
 94,-1.0228860498\\Version=ES64L-G16RevC.02\HF=-661.3003567\MP2=-663.33
 46494\RMSD=6.347e-09\RMSF=1.025e-05\Dipole=1.9793256,1.6917985,0.47116
 97\PG=C01 [X(C9H13N3O2)]\\@
 The archive entry for this job was punched.


 The juvenile sea squirt wanders through the sea searching
 for a suitable rock or hunk of coral to cling to and make
 its home for life.  For this task it has a rudimentary
 nervous system.  When it finds its spot and takes root, it
 doesn't need its brain any more so it eats it.
 It's rather like getting tenure.

                               -- source unknown
 Job cpu time:       0 days  1 hours  9 minutes 17.8 seconds.
 Elapsed time:       0 days  0 hours 20 minutes 55.7 seconds.
 File lengths (MBytes):  RWF=     36 Int=      0 D2E=      0 Chk=      7 Scr=      1
 Normal termination of Gaussian 16 at Sun Jul  2 18:00:53 2023.
