 Entering Gaussian System, Link 0=g16
 Initial command:
 /home/alexey/programs//g16/l1.exe "/home/alexey/tmp/Gau-1556467.inp" -scrdir="/home/alexey/tmp/"
 Entering Link 1 = /home/alexey/programs//g16/l1.exe PID=   1556469.
  
 Copyright (c) 1988-2021, Gaussian, Inc.  All Rights Reserved.
  
 This is part of the Gaussian(R) 16 program.  It is based on
 the Gaussian(R) 09 system (copyright 2009, Gaussian, Inc.),
 the Gaussian(R) 03 system (copyright 2003, Gaussian, Inc.),
 the Gaussian(R) 98 system (copyright 1998, Gaussian, Inc.),
 the Gaussian(R) 94 system (copyright 1995, Gaussian, Inc.),
 the Gaussian 92(TM) system (copyright 1992, Gaussian, Inc.),
 the Gaussian 90(TM) system (copyright 1990, Gaussian, Inc.),
 the Gaussian 88(TM) system (copyright 1988, Gaussian, Inc.),
 the Gaussian 86(TM) system (copyright 1986, Carnegie Mellon
 University), and the Gaussian 82(TM) system (copyright 1983,
 Carnegie Mellon University). Gaussian is a federally registered
 trademark of Gaussian, Inc.
  
 This software contains proprietary and confidential information,
 including trade secrets, belonging to Gaussian, Inc.
  
 This software is provided under written license and may be
 used, copied, transmitted, or stored only in accord with that
 written license.
  
 The following legend is applicable only to US Government
 contracts under FAR:
  
                    RESTRICTED RIGHTS LEGEND
  
 Use, reproduction and disclosure by the US Government is
 subject to restrictions as set forth in subparagraphs (a)
 and (c) of the Commercial Computer Software - Restricted
 Rights clause in FAR 52.227-19.
  
 Gaussian, Inc.
 340 Quinnipiac St., Bldg. 40, Wallingford CT 06492
  
  
 ---------------------------------------------------------------
 Warning -- This program may not be used in any manner that
 competes with the business of Gaussian, Inc. or will provide
 assistance to any competitor of Gaussian, Inc.  The licensee
 of this program is prohibited from giving any competitor of
 Gaussian, Inc. access to this program.  By using this program,
 the user acknowledges that Gaussian, Inc. is engaged in the
 business of creating and licensing software in the field of
 computational chemistry and represents and warrants to the
 licensee that it is not a competitor of Gaussian, Inc. and that
 it will not use this program in any manner prohibited above.
 ---------------------------------------------------------------
  

 Cite this work as:
 Gaussian 16, Revision C.02,
 M. J. Frisch, G. W. Trucks, H. B. Schlegel, G. E. Scuseria, 
 M. A. Robb, J. R. Cheeseman, G. Scalmani, V. Barone, 
 G. A. Petersson, H. Nakatsuji, X. Li, M. Caricato, A. V. Marenich, 
 J. Bloino, B. G. Janesko, R. Gomperts, B. Mennucci, H. P. Hratchian, 
 J. V. Ortiz, A. F. Izmaylov, J. L. Sonnenberg, D. Williams-Young, 
 F. Ding, F. Lipparini, F. Egidi, J. Goings, B. Peng, A. Petrone, 
 T. Henderson, D. Ranasinghe, V. G. Zakrzewski, J. Gao, N. Rega, 
 G. Zheng, W. Liang, M. Hada, M. Ehara, K. Toyota, R. Fukuda, 
 J. Hasegawa, M. Ishida, T. Nakajima, Y. Honda, O. Kitao, H. Nakai, 
 T. Vreven, K. Throssell, J. A. Montgomery, Jr., J. E. Peralta, 
 F. Ogliaro, M. J. Bearpark, J. J. Heyd, E. N. Brothers, K. N. Kudin, 
 V. N. Staroverov, T. A. Keith, R. Kobayashi, J. Normand, 
 K. Raghavachari, A. P. Rendell, J. C. Burant, S. S. Iyengar, 
 J. Tomasi, M. Cossi, J. M. Millam, M. Klene, C. Adamo, R. Cammi, 
 J. W. Ochterski, R. L. Martin, K. Morokuma, O. Farkas, 
 J. B. Foresman, and D. J. Fox, Gaussian, Inc., Wallingford CT, 2019.
 
 ******************************************
 Gaussian 16:  ES64L-G16RevC.02  7-Dec-2021
                 2-Jul-2023 
 ******************************************
 %mem=8GB
 %NPROCS=4
 Will use up to    4 processors via shared memory.
 %NoSave
 ---------------------------------------------------------
 #MP2/6-31G* SCF=Tight Opt=(ModRedun, MaxCycle=20 ) NoSymm
 ---------------------------------------------------------
 1/6=20,18=120,19=15,38=1/1,3;
 2/9=110,12=2,15=1,17=6,18=5,40=1/2;
 3/5=1,6=6,7=1,11=9,25=1,30=1,71=1/1,2,3;
 4//1;
 5/5=2,32=2,38=5/2;
 8/6=4,10=2/1;
 9/15=2,16=-3/6;
 10/5=1,31=1/2;
 6/7=2,8=2,9=2,10=2/1;
 7/12=2,30=1/1,2,3,16;
 1/6=20,18=20,19=15/3(2);
 2/9=110,15=1/2;
 99//99;
 2/9=110,15=1/2;
 3/5=1,6=6,7=1,11=9,25=1,30=1,71=1/1,2,3;
 4/5=5,16=3,69=1/1;
 5/5=2,32=2,38=5/2;
 8/6=4,10=2/1;
 9/15=2,16=-3/6;
 10/5=1,31=1/2;
 7/12=2,30=1/1,2,3,16;
 1/6=20,18=20,19=15/3(-8);
 2/9=110,15=1/2;
 6/7=2,8=2,9=2,10=2/1;
 99/9=10/99;
 --------
 MolName:
 --------
 Symbolic Z-matrix:
 Charge =  0 Multiplicity = 1
 8                    0    -3.62069  -1.43725  -0.21772 
 7                    0    -3.25938  -0.27708  -0.02861 
 8                    0    -4.03715   0.66403   0.13297 
 6                    0    -1.76017   0.00913  -0.03831 
 6                    0    -1.36724   1.29048   0.36506 
 7                    0    -0.08396   1.77219   0.34848 
 6                    0     1.19605   1.00022   0.3377 
 1                    0     1.85081   1.50309   1.09614 
 6                    0     1.97707   1.04347  -0.99897 
 6                    0     3.38566   0.456    -0.78945 
 6                    0     3.31406  -0.95689  -0.18894 
 6                    0     2.44989  -0.98319   1.09045 
 6                    0     1.01649  -0.44538   0.82743 
 1                    0     0.461    -0.47913   1.79394 
 7                    0     0.36846  -1.31752  -0.15564 
 6                    0    -0.87008  -1.10529  -0.46351 
 1                    0    -2.14434   1.99801   0.69909 
 1                    0     0.12643   2.74289   0.1038 
 1                    0     1.43636   0.46338  -1.77687 
 1                    0     2.06956   2.09149  -1.35503 
 1                    0     3.93233   0.42641  -1.75736 
 1                    0     3.95522   1.11233  -0.09409 
 1                    0     2.87423  -1.64887  -0.94229 
 1                    0     4.33859  -1.32171   0.04216 
 1                    0     2.38532  -2.02777   1.46652 
 1                    0     2.93661  -0.3698    1.87752 
 1                    0    -1.36813  -1.83824  -1.1165 
 
 The following ModRedundant input section has been read:
 D      16       4       5       6 F                                           
 D       1       2       4      16 F                                           
 D       7      13      15      16 F                                           
 D       7       9      10      11 F                                           
 D       9      10      11      12 F                                           
 D       6       7      13      15 F                                           
 

 GradGradGradGradGradGradGradGradGradGradGradGradGradGradGradGradGradGrad
 Berny optimization.
 Initialization pass.
                           ----------------------------
                           !    Initial Parameters    !
                           ! (Angstroms and Degrees)  !
 --------------------------                            --------------------------
 ! Name  Definition              Value          Derivative Info.                !
 --------------------------------------------------------------------------------
 ! R1    R(1,2)                  1.2298         estimate D2E/DX2                !
 ! R2    R(2,3)                  1.2316         estimate D2E/DX2                !
 ! R3    R(2,4)                  1.5263         estimate D2E/DX2                !
 ! R4    R(4,5)                  1.3996         estimate D2E/DX2                !
 ! R5    R(4,16)                 1.4883         estimate D2E/DX2                !
 ! R6    R(5,6)                  1.3708         estimate D2E/DX2                !
 ! R7    R(5,17)                 1.1028         estimate D2E/DX2                !
 ! R8    R(6,7)                  1.4948         estimate D2E/DX2                !
 ! R9    R(6,18)                 1.0229         estimate D2E/DX2                !
 ! R10   R(7,8)                  1.1211         estimate D2E/DX2                !
 ! R11   R(7,9)                  1.5487         estimate D2E/DX2                !
 ! R12   R(7,13)                 1.5368         estimate D2E/DX2                !
 ! R13   R(9,10)                 1.5405         estimate D2E/DX2                !
 ! R14   R(9,19)                 1.1109         estimate D2E/DX2                !
 ! R15   R(9,20)                 1.1107         estimate D2E/DX2                !
 ! R16   R(10,11)                1.5369         estimate D2E/DX2                !
 ! R17   R(10,21)                1.112          estimate D2E/DX2                !
 ! R18   R(10,22)                1.113          estimate D2E/DX2                !
 ! R19   R(11,12)                1.5441         estimate D2E/DX2                !
 ! R20   R(11,23)                1.1135         estimate D2E/DX2                !
 ! R21   R(11,24)                1.1118         estimate D2E/DX2                !
 ! R22   R(12,13)                1.5534         estimate D2E/DX2                !
 ! R23   R(12,25)                1.1121         estimate D2E/DX2                !
 ! R24   R(12,26)                1.1102         estimate D2E/DX2                !
 ! R25   R(13,14)                1.1153         estimate D2E/DX2                !
 ! R26   R(13,15)                1.4653         estimate D2E/DX2                !
 ! R27   R(15,16)                1.2938         estimate D2E/DX2                !
 ! R28   R(16,27)                1.1008         estimate D2E/DX2                !
 ! A1    A(1,2,3)              123.7487         estimate D2E/DX2                !
 ! A2    A(1,2,4)              117.679          estimate D2E/DX2                !
 ! A3    A(3,2,4)              118.5458         estimate D2E/DX2                !
 ! A4    A(2,4,5)              116.4612         estimate D2E/DX2                !
 ! A5    A(2,4,16)             116.6698         estimate D2E/DX2                !
 ! A6    A(5,4,16)             126.8667         estimate D2E/DX2                !
 ! A7    A(4,5,6)              125.5234         estimate D2E/DX2                !
 ! A8    A(4,5,17)             118.4797         estimate D2E/DX2                !
 ! A9    A(6,5,17)             115.9697         estimate D2E/DX2                !
 ! A10   A(5,6,7)              128.333          estimate D2E/DX2                !
 ! A11   A(5,6,18)             121.9308         estimate D2E/DX2                !
 ! A12   A(7,6,18)             108.193          estimate D2E/DX2                !
 ! A13   A(6,7,8)              105.283          estimate D2E/DX2                !
 ! A14   A(6,7,9)              115.0641         estimate D2E/DX2                !
 ! A15   A(6,7,13)             112.5462         estimate D2E/DX2                !
 ! A16   A(8,7,9)              106.0714         estimate D2E/DX2                !
 ! A17   A(8,7,13)             105.9374         estimate D2E/DX2                !
 ! A18   A(9,7,13)             111.1138         estimate D2E/DX2                !
 ! A19   A(7,9,10)             109.4559         estimate D2E/DX2                !
 ! A20   A(7,9,19)             110.1413         estimate D2E/DX2                !
 ! A21   A(7,9,20)             110.183          estimate D2E/DX2                !
 ! A22   A(10,9,19)            109.9483         estimate D2E/DX2                !
 ! A23   A(10,9,20)            109.1041         estimate D2E/DX2                !
 ! A24   A(19,9,20)            107.9853         estimate D2E/DX2                !
 ! A25   A(9,10,11)            111.1695         estimate D2E/DX2                !
 ! A26   A(9,10,21)            109.9545         estimate D2E/DX2                !
 ! A27   A(9,10,22)            109.1485         estimate D2E/DX2                !
 ! A28   A(11,10,21)           109.7879         estimate D2E/DX2                !
 ! A29   A(11,10,22)           108.7752         estimate D2E/DX2                !
 ! A30   A(21,10,22)           107.9346         estimate D2E/DX2                !
 ! A31   A(10,11,12)           111.4368         estimate D2E/DX2                !
 ! A32   A(10,11,23)           108.9877         estimate D2E/DX2                !
 ! A33   A(10,11,24)           109.8733         estimate D2E/DX2                !
 ! A34   A(12,11,23)           109.2038         estimate D2E/DX2                !
 ! A35   A(12,11,24)           109.7489         estimate D2E/DX2                !
 ! A36   A(23,11,24)           107.4999         estimate D2E/DX2                !
 ! A37   A(11,12,13)           111.7298         estimate D2E/DX2                !
 ! A38   A(11,12,25)           109.1887         estimate D2E/DX2                !
 ! A39   A(11,12,26)           109.428          estimate D2E/DX2                !
 ! A40   A(13,12,25)           109.2007         estimate D2E/DX2                !
 ! A41   A(13,12,26)           109.4681         estimate D2E/DX2                !
 ! A42   A(25,12,26)           107.7382         estimate D2E/DX2                !
 ! A43   A(7,13,12)            105.7718         estimate D2E/DX2                !
 ! A44   A(7,13,14)            111.2732         estimate D2E/DX2                !
 ! A45   A(7,13,15)            113.4379         estimate D2E/DX2                !
 ! A46   A(12,13,14)           107.601          estimate D2E/DX2                !
 ! A47   A(12,13,15)           108.3986         estimate D2E/DX2                !
 ! A48   A(14,13,15)           110.0678         estimate D2E/DX2                !
 ! A49   A(13,15,16)           119.0388         estimate D2E/DX2                !
 ! A50   A(4,16,15)            128.8576         estimate D2E/DX2                !
 ! A51   A(4,16,27)            113.4203         estimate D2E/DX2                !
 ! A52   A(15,16,27)           117.7159         estimate D2E/DX2                !
 ! D1    D(1,2,4,5)           -171.2231         estimate D2E/DX2                !
 ! D2    D(1,2,4,16)             8.2587         Frozen                          !
 ! D3    D(3,2,4,5)             10.5817         estimate D2E/DX2                !
 ! D4    D(3,2,4,16)          -169.9365         estimate D2E/DX2                !
 ! D5    D(2,4,5,6)           -175.7257         estimate D2E/DX2                !
 ! D6    D(2,4,5,17)             2.2931         estimate D2E/DX2                !
 ! D7    D(16,4,5,6)             4.8531         Frozen                          !
 ! D8    D(16,4,5,17)         -177.1281         estimate D2E/DX2                !
 ! D9    D(2,4,16,15)         -154.1905         estimate D2E/DX2                !
 ! D10   D(2,4,16,27)           24.874          estimate D2E/DX2                !
 ! D11   D(5,4,16,15)           25.2296         estimate D2E/DX2                !
 ! D12   D(5,4,16,27)         -155.7059         estimate D2E/DX2                !
 ! D13   D(4,5,6,7)            -21.2913         estimate D2E/DX2                !
 ! D14   D(4,5,6,18)           142.8082         estimate D2E/DX2                !
 ! D15   D(17,5,6,7)           160.6457         estimate D2E/DX2                !
 ! D16   D(17,5,6,18)          -35.2548         estimate D2E/DX2                !
 ! D17   D(5,6,7,8)           -134.7495         estimate D2E/DX2                !
 ! D18   D(5,6,7,9)            108.8522         estimate D2E/DX2                !
 ! D19   D(5,6,7,13)           -19.8105         estimate D2E/DX2                !
 ! D20   D(18,6,7,8)            59.4174         estimate D2E/DX2                !
 ! D21   D(18,6,7,9)           -56.9809         estimate D2E/DX2                !
 ! D22   D(18,6,7,13)          174.3564         estimate D2E/DX2                !
 ! D23   D(6,7,9,10)           168.7957         estimate D2E/DX2                !
 ! D24   D(6,7,9,19)           -70.2093         estimate D2E/DX2                !
 ! D25   D(6,7,9,20)            48.8178         estimate D2E/DX2                !
 ! D26   D(8,7,9,10)            52.8475         estimate D2E/DX2                !
 ! D27   D(8,7,9,19)           173.8425         estimate D2E/DX2                !
 ! D28   D(8,7,9,20)           -67.1304         estimate D2E/DX2                !
 ! D29   D(13,7,9,10)          -61.8334         estimate D2E/DX2                !
 ! D30   D(13,7,9,19)           59.1616         estimate D2E/DX2                !
 ! D31   D(13,7,9,20)          178.1887         estimate D2E/DX2                !
 ! D32   D(6,7,13,12)         -166.298          estimate D2E/DX2                !
 ! D33   D(6,7,13,14)          -49.7366         estimate D2E/DX2                !
 ! D34   D(6,7,13,15)           75.0224         Frozen                          !
 ! D35   D(8,7,13,12)          -51.7558         estimate D2E/DX2                !
 ! D36   D(8,7,13,14)           64.8056         estimate D2E/DX2                !
 ! D37   D(8,7,13,15)         -170.4354         estimate D2E/DX2                !
 ! D38   D(9,7,13,12)           63.0086         estimate D2E/DX2                !
 ! D39   D(9,7,13,14)          179.5701         estimate D2E/DX2                !
 ! D40   D(9,7,13,15)          -55.671          estimate D2E/DX2                !
 ! D41   D(7,9,10,11)           54.8122         Frozen                          !
 ! D42   D(7,9,10,21)          176.6036         estimate D2E/DX2                !
 ! D43   D(7,9,10,22)          -65.1766         estimate D2E/DX2                !
 ! D44   D(19,9,10,11)         -66.2998         estimate D2E/DX2                !
 ! D45   D(19,9,10,21)          55.4916         estimate D2E/DX2                !
 ! D46   D(19,9,10,22)         173.7114         estimate D2E/DX2                !
 ! D47   D(20,9,10,11)         175.4489         estimate D2E/DX2                !
 ! D48   D(20,9,10,21)         -62.7596         estimate D2E/DX2                !
 ! D49   D(20,9,10,22)          55.4601         estimate D2E/DX2                !
 ! D50   D(9,10,11,12)         -52.8223         Frozen                          !
 ! D51   D(9,10,11,23)          67.7624         estimate D2E/DX2                !
 ! D52   D(9,10,11,24)        -174.6877         estimate D2E/DX2                !
 ! D53   D(21,10,11,12)       -174.7107         estimate D2E/DX2                !
 ! D54   D(21,10,11,23)        -54.126          estimate D2E/DX2                !
 ! D55   D(21,10,11,24)         63.4239         estimate D2E/DX2                !
 ! D56   D(22,10,11,12)         67.3878         estimate D2E/DX2                !
 ! D57   D(22,10,11,23)       -172.0276         estimate D2E/DX2                !
 ! D58   D(22,10,11,24)        -54.4776         estimate D2E/DX2                !
 ! D59   D(10,11,12,13)         56.5385         estimate D2E/DX2                !
 ! D60   D(10,11,12,25)        177.4401         estimate D2E/DX2                !
 ! D61   D(10,11,12,26)        -64.8616         estimate D2E/DX2                !
 ! D62   D(23,11,12,13)        -63.9193         estimate D2E/DX2                !
 ! D63   D(23,11,12,25)         56.9823         estimate D2E/DX2                !
 ! D64   D(23,11,12,26)        174.6806         estimate D2E/DX2                !
 ! D65   D(24,11,12,13)        178.4758         estimate D2E/DX2                !
 ! D66   D(24,11,12,25)        -60.6226         estimate D2E/DX2                !
 ! D67   D(24,11,12,26)         57.0757         estimate D2E/DX2                !
 ! D68   D(11,12,13,7)         -60.0676         estimate D2E/DX2                !
 ! D69   D(11,12,13,14)       -179.0882         estimate D2E/DX2                !
 ! D70   D(11,12,13,15)         61.906          estimate D2E/DX2                !
 ! D71   D(25,12,13,7)         179.0378         estimate D2E/DX2                !
 ! D72   D(25,12,13,14)         60.0171         estimate D2E/DX2                !
 ! D73   D(25,12,13,15)        -58.9886         estimate D2E/DX2                !
 ! D74   D(26,12,13,7)          61.3093         estimate D2E/DX2                !
 ! D75   D(26,12,13,14)        -57.7114         estimate D2E/DX2                !
 ! D76   D(26,12,13,15)       -176.7171         estimate D2E/DX2                !
 ! D77   D(7,13,15,16)         -67.1607         Frozen                          !
 ! D78   D(12,13,15,16)        175.6836         estimate D2E/DX2                !
 ! D79   D(14,13,15,16)         58.2457         estimate D2E/DX2                !
 ! D80   D(13,15,16,4)           5.7391         estimate D2E/DX2                !
 ! D81   D(13,15,16,27)       -173.2912         estimate D2E/DX2                !
 --------------------------------------------------------------------------------
 Trust Radius=3.00D-01 FncErr=1.00D-07 GrdErr=1.00D-07 EigMax=2.50D+02 EigMin=1.00D-04
 Number of steps in this run=     20 maximum allowed number of steps=    162.
 GradGradGradGradGradGradGradGradGradGradGradGradGradGradGradGradGradGrad

                          Input orientation:                          
 ---------------------------------------------------------------------
 Center     Atomic      Atomic             Coordinates (Angstroms)
 Number     Number       Type             X           Y           Z
 ---------------------------------------------------------------------
      1          8           0       -3.620690   -1.437250   -0.217720
      2          7           0       -3.259380   -0.277080   -0.028610
      3          8           0       -4.037150    0.664030    0.132970
      4          6           0       -1.760170    0.009130   -0.038310
      5          6           0       -1.367240    1.290480    0.365060
      6          7           0       -0.083960    1.772190    0.348480
      7          6           0        1.196050    1.000220    0.337700
      8          1           0        1.850810    1.503090    1.096140
      9          6           0        1.977070    1.043470   -0.998970
     10          6           0        3.385660    0.456000   -0.789450
     11          6           0        3.314060   -0.956890   -0.188940
     12          6           0        2.449890   -0.983190    1.090450
     13          6           0        1.016490   -0.445380    0.827430
     14          1           0        0.461000   -0.479130    1.793940
     15          7           0        0.368460   -1.317520   -0.155640
     16          6           0       -0.870080   -1.105290   -0.463510
     17          1           0       -2.144340    1.998010    0.699090
     18          1           0        0.126430    2.742890    0.103800
     19          1           0        1.436360    0.463380   -1.776870
     20          1           0        2.069560    2.091490   -1.355030
     21          1           0        3.932330    0.426410   -1.757360
     22          1           0        3.955220    1.112330   -0.094090
     23          1           0        2.874230   -1.648870   -0.942290
     24          1           0        4.338590   -1.321710    0.042160
     25          1           0        2.385320   -2.027770    1.466520
     26          1           0        2.936610   -0.369800    1.877520
     27          1           0       -1.368130   -1.838240   -1.116500
 ---------------------------------------------------------------------
                    Distance matrix (angstroms):
                    1          2          3          4          5
     1  O    0.000000
     2  N    1.229757   0.000000
     3  O    2.170668   1.231553   0.000000
     4  C    2.363417   1.526316   2.375472   0.000000
     5  C    3.585831   2.488456   2.752222   1.399628   0.000000
     6  N    4.809319   3.798025   4.111225   2.463263   1.370813
     7  C    5.426853   4.649359   5.247983   3.140522   2.579817
     8  H    6.348948   5.527034   6.024931   4.069161   3.306891
     9  C    6.172458   5.486881   6.131566   3.994958   3.620221
    10  C    7.280124   6.728510   7.482796   5.219528   4.961785
    11  C    6.951427   6.610443   7.534673   5.167562   5.222275
    12  C    6.226510   5.860602   6.761049   4.470280   4.501805
    13  C    4.855881   4.363965   5.220378   2.943794   2.984822
    14  H    4.650265   4.147739   4.929401   2.920468   2.918164
    15  N    3.991429   3.776225   4.839342   2.510942   3.175759
    16  C    2.781450   2.565896   3.676495   1.488283   2.583294
    17  H    3.849826   2.636076   2.383847   2.155688   1.102751
    18  H    5.622976   4.538883   4.653806   3.324590   2.099715
    19  H    5.622908   5.065044   5.800609   3.666979   3.623828
    20  H    6.791497   5.980561   6.445440   4.553768   3.925802
    21  H    7.930437   7.429951   8.194048   5.961024   5.773796
    22  H    7.994376   7.347462   8.008153   5.821155   5.345198
    23  H    6.538637   6.351204   7.367012   5.004379   5.323440
    24  H    7.964360   7.669772   8.608393   6.242795   6.283653
    25  H    6.265583   6.096144   7.090294   4.857835   5.128909
    26  H    6.966180   6.483226   7.262616   5.086623   4.854605
    27  H    2.458175   2.682825   3.866031   2.174618   3.461778
                    6          7          8          9         10
     6  N    0.000000
     7  C    1.494818   0.000000
     8  H    2.091589   1.121080   0.000000
     9  C    2.567976   1.548725   2.148646   0.000000
    10  C    3.881431   2.522109   2.647189   1.540502   0.000000
    11  C    4.391268   2.931484   3.137520   2.538726   1.536879
    12  C    3.816154   2.464277   2.557444   2.948997   2.545772
    13  C    2.521507   1.536827   2.136546   2.544627   3.006618
    14  H    2.730344   2.202138   2.519463   3.523794   4.012731
    15  N    3.163088   2.510022   3.423471   2.978776   3.556766
    16  C    3.091473   3.056796   4.079142   3.606959   4.544798
    17  H    2.102163   3.504910   4.045222   4.558572   5.930805
    18  H    1.022932   2.058080   2.344212   2.743902   4.080483
    19  H    2.922579   2.194847   3.083335   1.110856   2.185137
    20  H    2.764335   2.195273   2.530277   1.110711   2.174127
    21  H    4.730356   3.493675   3.692483   2.186083   1.112013
    22  H    4.116583   2.795001   2.449057   2.176379   1.112966
    23  H    4.703257   3.387084   3.890686   2.838451   2.171497
    24  H    5.406015   3.918451   3.908890   3.500686   2.181720
    25  H    4.667660   3.443446   3.590244   3.959523   3.501313
    26  H    4.006236   2.697693   2.301572   3.345481   2.827777
    27  H    4.102495   4.092258   5.140218   4.416835   5.288574
                   11         12         13         14         15
    11  C    0.000000
    12  C    1.544124   0.000000
    13  C    2.563880   1.553401   0.000000
    14  H    3.507138   2.169022   1.115280   0.000000
    15  N    2.967781   2.448850   1.465264   2.124223   0.000000
    16  C    4.195764   3.667683   2.379318   2.694426   1.293757
    17  H    6.270101   5.490689   3.997183   3.758020   4.247054
    18  H    4.892346   4.500624   3.388350   3.653755   4.075882
    19  H    2.839797   3.367689   2.790074   3.819730   2.634464
    20  H    3.493017   3.946984   3.508247   4.371678   3.994199
    21  H    2.180761   3.506369   3.992904   5.047957   4.278781
    22  H    2.168353   2.839077   3.451347   4.278665   4.332760
    23  H    1.113473   2.180648   2.833989   3.831309   2.647167
    24  H    1.111828   2.186480   3.524337   4.337554   3.975057
    25  H    2.179424   1.112091   2.187713   2.491686   2.683949
    26  H    2.181147   1.110235   2.189809   2.479432   3.409884
    27  H    4.853869   4.492106   3.377179   3.696425   2.051864
                   16         17         18         19         20
    16  C    0.000000
    17  H    3.550472   0.000000
    18  H    4.015391   2.462846   0.000000
    19  H    3.083068   4.615938   3.232492   0.000000
    20  H    4.433474   4.688827   2.515604   1.797118   0.000000
    21  H    5.204161   6.740177   4.828547   2.496320   2.530666
    22  H    5.323329   6.214354   4.166236   3.097990   2.470716
    23  H    3.813734   6.417157   5.285098   2.688046   3.848135
    24  H    5.237631   7.313035   5.853808   3.862429   4.330193
    25  H    3.895332   6.108492   5.451494   4.198325   5.002914
    26  H    4.529046   5.728113   4.553244   4.037265   4.154408
    27  H    1.100757   4.314590   4.970875   3.687643   5.226604
                   21         22         23         24         25
    21  H    0.000000
    22  H    1.799299   0.000000
    23  H    2.467935   3.084187   0.000000
    24  H    2.541504   2.467810   1.794582   0.000000
    25  H    4.337008   3.841916   2.486959   2.518449   0.000000
    26  H    3.851981   2.668618   3.096973   2.498045   1.794911
    27  H    5.799501   6.171648   4.250156   5.846020   4.560296
                   26         27
    26  H    0.000000
    27  H    5.445297   0.000000
 Symmetry turned off by external request.
 Stoichiometry    C9H13N3O2
 Framework group  C1[X(C9H13N3O2)]
 Deg. of freedom    75
 Full point group                 C1      NOp   1
 Rotational constants (GHZ):           1.6820164           0.3994353           0.3553563
 Standard basis: 6-31G(d) (6D, 7F)
   236 basis functions,   444 primitive gaussians,   236 cartesian basis functions
    52 alpha electrons       52 beta electrons
       nuclear repulsion energy       917.6098511801 Hartrees.
 NAtoms=   27 NActive=   27 NUniq=   27 SFac= 1.00D+00 NAtFMM=   60 NAOKFM=F Big=F
 Integral buffers will be    131072 words long.
 Raffenetti 1 integral format.
 Two-electron integral symmetry is turned off.
 One-electron integrals computed using PRISM.
 NBasis=   236 RedAO= T EigKep=  1.31D-03  NBF=   236
 NBsUse=   236 1.00D-06 EigRej= -1.00D+00 NBFU=   236
 ExpMin= 1.61D-01 ExpMax= 5.48D+03 ExpMxC= 8.25D+02 IAcc=3 IRadAn=         5 AccDes= 0.00D+00
 Harris functional with IExCor=  205 and IRadAn=       5 diagonalized for initial guess.
 HarFok:  IExCor=  205 AccDes= 0.00D+00 IRadAn=         5 IDoV= 1 UseB2=F ITyADJ=14
 ICtDFT=  3500011 ScaDFX=  1.000000  1.000000  1.000000  1.000000
 FoFCou: FMM=F IPFlag=           0 FMFlag=      100000 FMFlg1=           0
         NFxFlg=           0 DoJE=T BraDBF=F KetDBF=T FulRan=T
         wScrn=  0.000000 ICntrl=       500 IOpCl=  0 I1Cent=   200000004 NGrid=           0
         NMat0=    1 NMatS0=      1 NMatT0=    0 NMatD0=    1 NMtDS0=    0 NMtDT0=    0
 Symmetry not used in FoFCou.
 Keep R1 ints in memory in canonical form, NReq=397720213.
 Requested convergence on RMS density matrix=1.00D-08 within 128 cycles.
 Requested convergence on MAX density matrix=1.00D-06.
 Requested convergence on             energy=1.00D-06.
 No special actions if energy rises.
 SCF Done:  E(RHF) =  -661.276521357     A.U. after   16 cycles
            NFock= 16  Conv=0.90D-08     -V/T= 2.0037
 ExpMin= 1.61D-01 ExpMax= 5.48D+03 ExpMxC= 8.25D+02 IAcc=3 IRadAn=         5 AccDes= 0.00D+00
 HarFok:  IExCor=  205 AccDes= 0.00D+00 IRadAn=         5 IDoV=-2 UseB2=F ITyADJ=14
 ICtDFT= 12500011 ScaDFX=  1.000000  1.000000  1.000000  1.000000
 Range of M.O.s used for correlation:    15   236
 NBasis=   236 NAE=    52 NBE=    52 NFC=    14 NFV=     0
 NROrb=    222 NOA=    38 NOB=    38 NVA=   184 NVB=   184
 Fully direct method using O(ONN) memory.
 JobTyp=1 Pass  1:  I=  15 to  52 NPSUse=  4 ParTrn=T ParDer=T DoDerP=T.
 Spin components of T(2) and E(2):
     alpha-alpha T2 =       0.9197426926D-01 E2=     -0.2717513793D+00
     alpha-beta  T2 =       0.5000953502D+00 E2=     -0.1494048927D+01
     beta-beta   T2 =       0.9197426926D-01 E2=     -0.2717513793D+00
 ANorm=    0.1297707166D+01
 E2 =    -0.2037551686D+01 EUMP2 =    -0.66331407304244D+03
          IDoAtm=111111111111111111111111111
          Differentiating once with respect to electric field.
                with respect to dipole field.
          Differentiating once with respect to nuclear coordinates.
 Keep R1 ints in memory in canonical form, NReq=397723379.
          There are     1 degrees of freedom in the 1st order CPHF.  IDoFFX=0 NUNeed=     1.
 LinEq1:  Iter=  0 NonCon=     1 RMS=4.60D-03 Max=1.09D-01 NDo=     1
 AX will form     1 AO Fock derivatives at one time.
 LinEq1:  Iter=  1 NonCon=     1 RMS=1.56D-03 Max=2.87D-02 NDo=     1
 LinEq1:  Iter=  2 NonCon=     1 RMS=6.41D-04 Max=1.75D-02 NDo=     1
 LinEq1:  Iter=  3 NonCon=     1 RMS=2.96D-04 Max=9.11D-03 NDo=     1
 LinEq1:  Iter=  4 NonCon=     1 RMS=9.17D-05 Max=2.23D-03 NDo=     1
 LinEq1:  Iter=  5 NonCon=     1 RMS=3.86D-05 Max=1.96D-03 NDo=     1
 LinEq1:  Iter=  6 NonCon=     1 RMS=1.59D-05 Max=6.01D-04 NDo=     1
 LinEq1:  Iter=  7 NonCon=     1 RMS=6.18D-06 Max=1.04D-04 NDo=     1
 LinEq1:  Iter=  8 NonCon=     1 RMS=2.47D-06 Max=6.07D-05 NDo=     1
 LinEq1:  Iter=  9 NonCon=     1 RMS=9.37D-07 Max=2.61D-05 NDo=     1
 LinEq1:  Iter= 10 NonCon=     1 RMS=4.56D-07 Max=1.46D-05 NDo=     1
 LinEq1:  Iter= 11 NonCon=     1 RMS=1.61D-07 Max=5.80D-06 NDo=     1
 LinEq1:  Iter= 12 NonCon=     1 RMS=5.66D-08 Max=8.91D-07 NDo=     1
 LinEq1:  Iter= 13 NonCon=     1 RMS=1.81D-08 Max=4.47D-07 NDo=     1
 LinEq1:  Iter= 14 NonCon=     1 RMS=6.06D-09 Max=1.81D-07 NDo=     1
 LinEq1:  Iter= 15 NonCon=     1 RMS=2.30D-09 Max=5.67D-08 NDo=     1
 LinEq1:  Iter= 16 NonCon=     1 RMS=8.60D-10 Max=1.38D-08 NDo=     1
 LinEq1:  Iter= 17 NonCon=     1 RMS=2.81D-10 Max=4.25D-09 NDo=     1
 LinEq1:  Iter= 18 NonCon=     1 RMS=9.42D-11 Max=1.21D-09 NDo=     1
 LinEq1:  Iter= 19 NonCon=     0 RMS=3.03D-11 Max=4.13D-10 NDo=     1
 Linear equations converged to 1.000D-10 1.000D-09 after    19 iterations.
 End of Minotr F.D. properties file   721 does not exist.
 End of Minotr F.D. properties file   722 does not exist.
 End of Minotr F.D. properties file   788 does not exist.

 **********************************************************************

            Population analysis using the SCF Density.

 **********************************************************************

 Alpha  occ. eigenvalues --  -20.59966 -20.59524 -15.85375 -15.62711 -15.57111
 Alpha  occ. eigenvalues --  -11.35767 -11.30578 -11.30284 -11.29957 -11.27763
 Alpha  occ. eigenvalues --  -11.24558 -11.23835 -11.23421 -11.22854  -1.58610
 Alpha  occ. eigenvalues --   -1.38116  -1.28362  -1.22749  -1.13249  -1.08385
 Alpha  occ. eigenvalues --   -1.01801  -1.00602  -0.93520  -0.88994  -0.84885
 Alpha  occ. eigenvalues --   -0.81539  -0.78117  -0.76895  -0.74282  -0.70942
 Alpha  occ. eigenvalues --   -0.70491  -0.69855  -0.67458  -0.64323  -0.63355
 Alpha  occ. eigenvalues --   -0.61511  -0.60685  -0.57468  -0.56323  -0.54899
 Alpha  occ. eigenvalues --   -0.53269  -0.50720  -0.49164  -0.48591  -0.47755
 Alpha  occ. eigenvalues --   -0.47497  -0.46119  -0.45653  -0.44082  -0.42170
 Alpha  occ. eigenvalues --   -0.40176  -0.33811
 Alpha virt. eigenvalues --    0.06860   0.11592   0.18602   0.21562   0.23564
 Alpha virt. eigenvalues --    0.24279   0.25996   0.27644   0.28589   0.28890
 Alpha virt. eigenvalues --    0.29790   0.31077   0.31875   0.32229   0.33362
 Alpha virt. eigenvalues --    0.33753   0.34180   0.35625   0.37600   0.38575
 Alpha virt. eigenvalues --    0.40752   0.41912   0.44663   0.45415   0.45692
 Alpha virt. eigenvalues --    0.45816   0.49521   0.53149   0.57669   0.59300
 Alpha virt. eigenvalues --    0.63415   0.69185   0.69620   0.72079   0.74052
 Alpha virt. eigenvalues --    0.74935   0.75615   0.75807   0.77527   0.79667
 Alpha virt. eigenvalues --    0.80489   0.83487   0.85175   0.85298   0.88170
 Alpha virt. eigenvalues --    0.89021   0.90279   0.91024   0.92068   0.93912
 Alpha virt. eigenvalues --    0.95481   0.97173   0.98712   1.00258   1.01897
 Alpha virt. eigenvalues --    1.02700   1.05112   1.05903   1.06991   1.08310
 Alpha virt. eigenvalues --    1.09488   1.10496   1.11108   1.11666   1.13298
 Alpha virt. eigenvalues --    1.13743   1.14461   1.15215   1.16184   1.17204
 Alpha virt. eigenvalues --    1.17935   1.19926   1.20966   1.22128   1.22901
 Alpha virt. eigenvalues --    1.23894   1.24834   1.25977   1.27225   1.27402
 Alpha virt. eigenvalues --    1.29276   1.30826   1.33197   1.35590   1.39567
 Alpha virt. eigenvalues --    1.43520   1.44667   1.47964   1.49418   1.51774
 Alpha virt. eigenvalues --    1.53965   1.54463   1.60846   1.61931   1.65657
 Alpha virt. eigenvalues --    1.68899   1.70268   1.71958   1.74074   1.76537
 Alpha virt. eigenvalues --    1.78914   1.79903   1.84308   1.87886   1.92614
 Alpha virt. eigenvalues --    1.93425   1.96221   1.97484   1.98867   2.00326
 Alpha virt. eigenvalues --    2.02922   2.04528   2.05642   2.08655   2.12019
 Alpha virt. eigenvalues --    2.12608   2.14735   2.17851   2.18207   2.19527
 Alpha virt. eigenvalues --    2.21154   2.21886   2.24107   2.24705   2.26692
 Alpha virt. eigenvalues --    2.28940   2.32445   2.34170   2.35854   2.36227
 Alpha virt. eigenvalues --    2.38237   2.39556   2.41079   2.43118   2.45403
 Alpha virt. eigenvalues --    2.48284   2.50175   2.52291   2.56598   2.57456
 Alpha virt. eigenvalues --    2.60935   2.62967   2.66311   2.68014   2.68784
 Alpha virt. eigenvalues --    2.70001   2.70224   2.75004   2.77103   2.80706
 Alpha virt. eigenvalues --    2.84008   2.86956   2.90392   2.91462   2.95582
 Alpha virt. eigenvalues --    2.98064   2.98549   3.02439   3.03142   3.06056
 Alpha virt. eigenvalues --    3.06554   3.12009   3.19852   3.22213   3.27104
 Alpha virt. eigenvalues --    3.29248   3.33278   3.36974   3.43358   3.59302
 Alpha virt. eigenvalues --    4.09253   4.22612   4.31750   4.35826   4.43005
 Alpha virt. eigenvalues --    4.52526   4.59501   4.59723   4.71010   4.77258
 Alpha virt. eigenvalues --    4.95794   4.99224   5.02517   5.09942
          Condensed to atoms (all electrons):
               1          2          3          4          5          6
     1  O    8.299783   0.311124  -0.089183  -0.078344   0.003273  -0.000017
     2  N    0.311124   5.693433   0.308071   0.258241  -0.043942   0.001078
     3  O   -0.089183   0.308071   8.327928  -0.085781   0.007311   0.000420
     4  C   -0.078344   0.258241  -0.085781   5.237386   0.567282  -0.053824
     5  C    0.003273  -0.043942   0.007311   0.567282   4.674196   0.310487
     6  N   -0.000017   0.001078   0.000420  -0.053824   0.310487   7.202747
     7  C    0.000003  -0.000095  -0.000000   0.003333  -0.030957   0.197677
     8  H   -0.000000   0.000002  -0.000000  -0.000110   0.001440  -0.052010
     9  C   -0.000000  -0.000003   0.000000   0.000440   0.002391  -0.054703
    10  C   -0.000000   0.000000  -0.000000  -0.000015  -0.000082   0.003281
    11  C   -0.000000  -0.000000  -0.000000  -0.000017   0.000015  -0.000154
    12  C   -0.000000   0.000002  -0.000000  -0.000048  -0.000100   0.003630
    13  C   -0.000018  -0.000033  -0.000002  -0.011304   0.000662  -0.043180
    14  H   -0.000004  -0.000040   0.000000   0.002949   0.005943  -0.005629
    15  N    0.000183   0.001611  -0.000014  -0.059432  -0.004946   0.002400
    16  C    0.003589  -0.027707   0.001921   0.321503  -0.041147  -0.002339
    17  H    0.000107  -0.003407   0.010751  -0.029956   0.379491  -0.033403
    18  H    0.000000  -0.000037   0.000010   0.000580  -0.023080   0.327415
    19  H    0.000000   0.000001   0.000000  -0.000588   0.000329   0.000932
    20  H    0.000000  -0.000000   0.000000  -0.000030   0.000032  -0.002103
    21  H   -0.000000  -0.000000   0.000000   0.000000   0.000001  -0.000056
    22  H   -0.000000   0.000000  -0.000000  -0.000000  -0.000003  -0.000099
    23  H    0.000000  -0.000000   0.000000   0.000023  -0.000000  -0.000024
    24  H    0.000000   0.000000   0.000000   0.000000  -0.000000   0.000004
    25  H    0.000000  -0.000000   0.000000   0.000019  -0.000001  -0.000071
    26  H    0.000000  -0.000000   0.000000   0.000006  -0.000002  -0.000064
    27  H    0.005143  -0.000019  -0.000004  -0.064721   0.002240   0.000058
               7          8          9         10         11         12
     1  O    0.000003  -0.000000  -0.000000  -0.000000  -0.000000  -0.000000
     2  N   -0.000095   0.000002  -0.000003   0.000000  -0.000000   0.000002
     3  O   -0.000000  -0.000000   0.000000  -0.000000  -0.000000  -0.000000
     4  C    0.003333  -0.000110   0.000440  -0.000015  -0.000017  -0.000048
     5  C   -0.030957   0.001440   0.002391  -0.000082   0.000015  -0.000100
     6  N    0.197677  -0.052010  -0.054703   0.003281  -0.000154   0.003630
     7  C    4.991389   0.418336   0.339298  -0.049212  -0.007588  -0.064068
     8  H    0.418336   0.551982  -0.061814   0.001627  -0.000350  -0.002790
     9  C    0.339298  -0.061814   5.182404   0.317601  -0.053029  -0.006421
    10  C   -0.049212   0.001627   0.317601   5.126814   0.332820  -0.059894
    11  C   -0.007588  -0.000350  -0.053029   0.332820   5.123118   0.331032
    12  C   -0.064068  -0.002790  -0.006421  -0.059894   0.331032   5.135856
    13  C    0.335991  -0.041669  -0.047943  -0.002167  -0.047830   0.367746
    14  H   -0.040200  -0.000889   0.003858  -0.000390   0.003934  -0.040616
    15  N   -0.058690   0.004167  -0.013073   0.001533  -0.007670  -0.073727
    16  C   -0.002377   0.000001  -0.000900  -0.000019   0.000003   0.002562
    17  H    0.001509  -0.000019  -0.000062   0.000001   0.000000   0.000001
    18  H   -0.027436  -0.002162   0.000849  -0.000128   0.000012  -0.000132
    19  H   -0.034846   0.004170   0.385390  -0.032590  -0.002307   0.000656
    20  H   -0.041290  -0.001882   0.397348  -0.037467   0.004147  -0.000355
    21  H    0.004026  -0.000081  -0.035871   0.400249  -0.035899   0.004202
    22  H   -0.004131   0.003517  -0.045602   0.395927  -0.045581  -0.001263
    23  H    0.000417   0.000033  -0.002008  -0.040137   0.396750  -0.036800
    24  H   -0.000140  -0.000095   0.004386  -0.038443   0.400329  -0.037822
    25  H    0.004956  -0.000002  -0.000367   0.004096  -0.033992   0.395515
    26  H   -0.004444   0.001651   0.001010  -0.002385  -0.042232   0.394738
    27  H   -0.000393   0.000009  -0.000056   0.000005   0.000005  -0.000019
              13         14         15         16         17         18
     1  O   -0.000018  -0.000004   0.000183   0.003589   0.000107   0.000000
     2  N   -0.000033  -0.000040   0.001611  -0.027707  -0.003407  -0.000037
     3  O   -0.000002   0.000000  -0.000014   0.001921   0.010751   0.000010
     4  C   -0.011304   0.002949  -0.059432   0.321503  -0.029956   0.000580
     5  C    0.000662   0.005943  -0.004946  -0.041147   0.379491  -0.023080
     6  N   -0.043180  -0.005629   0.002400  -0.002339  -0.033403   0.327415
     7  C    0.335991  -0.040200  -0.058690  -0.002377   0.001509  -0.027436
     8  H   -0.041669  -0.000889   0.004167   0.000001  -0.000019  -0.002162
     9  C   -0.047943   0.003858  -0.013073  -0.000900  -0.000062   0.000849
    10  C   -0.002167  -0.000390   0.001533  -0.000019   0.000001  -0.000128
    11  C   -0.047830   0.003934  -0.007670   0.000003   0.000000   0.000012
    12  C    0.367746  -0.040616  -0.073727   0.002562   0.000001  -0.000132
    13  C    5.030362   0.400825   0.238177  -0.069634  -0.000038   0.003550
    14  H    0.400825   0.521830  -0.036014  -0.005006   0.000074   0.000024
    15  N    0.238177  -0.036014   6.933607   0.584805  -0.000070  -0.000113
    16  C   -0.069634  -0.005006   0.584805   4.704857   0.001505  -0.000203
    17  H   -0.000038   0.000074  -0.000070   0.001505   0.388201  -0.001639
    18  H    0.003550   0.000024  -0.000113  -0.000203  -0.001639   0.321154
    19  H   -0.006519   0.000065   0.007103   0.002433   0.000008  -0.000122
    20  H    0.003832  -0.000048   0.000075  -0.000028  -0.000000   0.003059
    21  H   -0.000359   0.000009  -0.000026   0.000002  -0.000000  -0.000000
    22  H    0.000321  -0.000045   0.000002  -0.000001   0.000000   0.000002
    23  H   -0.005780   0.000006   0.006632   0.000063   0.000000   0.000000
    24  H    0.004131  -0.000058   0.000042   0.000005   0.000000  -0.000000
    25  H   -0.034676  -0.002638   0.000677  -0.000060  -0.000000   0.000002
    26  H   -0.044672  -0.000938   0.004174  -0.000059   0.000000  -0.000001
    27  H    0.004835  -0.000177  -0.039462   0.401486  -0.000059   0.000003
              19         20         21         22         23         24
     1  O    0.000000   0.000000  -0.000000  -0.000000   0.000000   0.000000
     2  N    0.000001  -0.000000  -0.000000   0.000000  -0.000000   0.000000
     3  O    0.000000   0.000000   0.000000  -0.000000   0.000000   0.000000
     4  C   -0.000588  -0.000030   0.000000  -0.000000   0.000023   0.000000
     5  C    0.000329   0.000032   0.000001  -0.000003  -0.000000  -0.000000
     6  N    0.000932  -0.002103  -0.000056  -0.000099  -0.000024   0.000004
     7  C   -0.034846  -0.041290   0.004026  -0.004131   0.000417  -0.000140
     8  H    0.004170  -0.001882  -0.000081   0.003517   0.000033  -0.000095
     9  C    0.385390   0.397348  -0.035871  -0.045602  -0.002008   0.004386
    10  C   -0.032590  -0.037467   0.400249   0.395927  -0.040137  -0.038443
    11  C   -0.002307   0.004147  -0.035899  -0.045581   0.396750   0.400329
    12  C    0.000656  -0.000355   0.004202  -0.001263  -0.036800  -0.037822
    13  C   -0.006519   0.003832  -0.000359   0.000321  -0.005780   0.004131
    14  H    0.000065  -0.000048   0.000009  -0.000045   0.000006  -0.000058
    15  N    0.007103   0.000075  -0.000026   0.000002   0.006632   0.000042
    16  C    0.002433  -0.000028   0.000002  -0.000001   0.000063   0.000005
    17  H    0.000008  -0.000000  -0.000000   0.000000   0.000000   0.000000
    18  H   -0.000122   0.003059  -0.000000   0.000002   0.000000  -0.000000
    19  H    0.507535  -0.024060  -0.002587   0.003761   0.001647  -0.000069
    20  H   -0.024060   0.550273  -0.002584  -0.002974  -0.000050  -0.000090
    21  H   -0.002587  -0.002584   0.526297  -0.024714  -0.002821  -0.002045
    22  H    0.003761  -0.002974  -0.024714   0.568459   0.004065  -0.003591
    23  H    0.001647  -0.000050  -0.002821   0.004065   0.510405  -0.025006
    24  H   -0.000069  -0.000090  -0.002045  -0.003591  -0.025006   0.540848
    25  H   -0.000027   0.000011  -0.000086  -0.000082  -0.002108  -0.002375
    26  H    0.000024  -0.000035  -0.000074   0.002465   0.003827  -0.002778
    27  H    0.000069  -0.000000  -0.000000   0.000000  -0.000020  -0.000000
              25         26         27
     1  O    0.000000   0.000000   0.005143
     2  N   -0.000000  -0.000000  -0.000019
     3  O    0.000000   0.000000  -0.000004
     4  C    0.000019   0.000006  -0.064721
     5  C   -0.000001  -0.000002   0.002240
     6  N   -0.000071  -0.000064   0.000058
     7  C    0.004956  -0.004444  -0.000393
     8  H   -0.000002   0.001651   0.000009
     9  C   -0.000367   0.001010  -0.000056
    10  C    0.004096  -0.002385   0.000005
    11  C   -0.033992  -0.042232   0.000005
    12  C    0.395515   0.394738  -0.000019
    13  C   -0.034676  -0.044672   0.004835
    14  H   -0.002638  -0.000938  -0.000177
    15  N    0.000677   0.004174  -0.039462
    16  C   -0.000060  -0.000059   0.401486
    17  H   -0.000000   0.000000  -0.000059
    18  H    0.000002  -0.000001   0.000003
    19  H   -0.000027   0.000024   0.000069
    20  H    0.000011  -0.000035  -0.000000
    21  H   -0.000086  -0.000074  -0.000000
    22  H   -0.000082   0.002465   0.000000
    23  H   -0.002108   0.003827  -0.000020
    24  H   -0.002375  -0.002778  -0.000000
    25  H    0.511238  -0.023135  -0.000009
    26  H   -0.023135   0.560158   0.000001
    27  H   -0.000009   0.000001   0.451280
 Mulliken charges:
               1
     1  O   -0.455640
     2  N    0.501721
     3  O   -0.481429
     4  C   -0.007593
     5  C    0.189169
     6  N   -0.802452
     7  C    0.068933
     8  H    0.176938
     9  C   -0.313122
    10  C   -0.321025
    11  C   -0.315517
    12  C   -0.311884
    13  C   -0.034610
    14  H    0.193175
    15  N   -0.491952
    16  C    0.124747
    17  H    0.287005
    18  H    0.398394
    19  H    0.189594
    20  H    0.154221
    21  H    0.172417
    22  H    0.149565
    23  H    0.190886
    24  H    0.162769
    25  H    0.183116
    26  H    0.152765
    27  H    0.239810
 Sum of Mulliken charges =  -0.00000
 Mulliken charges with hydrogens summed into heavy atoms:
               1
     1  O   -0.455640
     2  N    0.501721
     3  O   -0.481429
     4  C   -0.007593
     5  C    0.476174
     6  N   -0.404058
     7  C    0.245870
     9  C    0.030693
    10  C    0.000956
    11  C    0.038138
    12  C    0.023997
    13  C    0.158565
    15  N   -0.491952
    16  C    0.364557
 Electronic spatial extent (au):  <R**2>=           3126.2067
 Charge=              0.0000 electrons
 Dipole moment (field-independent basis, Debye):
    X=              5.2528    Y=              4.3123    Z=              0.6484  Tot=              6.8270
 Quadrupole moment (field-independent basis, Debye-Ang):
   XX=           -105.3311   YY=            -80.7192   ZZ=            -81.9673
   XY=             -1.7712   XZ=              0.2270   YZ=             -0.0141
 Traceless Quadrupole moment (field-independent basis, Debye-Ang):
   XX=            -15.9919   YY=              8.6200   ZZ=              7.3719
   XY=             -1.7712   XZ=              0.2270   YZ=             -0.0141
 Octapole moment (field-independent basis, Debye-Ang**2):
  XXX=            100.7013  YYY=             35.0118  ZZZ=             -4.4058  XYY=             -1.1421
  XXY=             10.9300  XXZ=              1.2139  XZZ=             -9.0450  YZZ=             -2.6440
  YYZ=              0.4313  XYZ=             -2.2198
 Hexadecapole moment (field-independent basis, Debye-Ang**3):
 XXXX=          -3561.1201 YYYY=           -617.9411 ZZZZ=           -301.5658 XXXY=            -39.6859
 XXXZ=             22.5356 YYYX=            -19.8869 YYYZ=              6.2488 ZZZX=             21.7505
 ZZZY=              7.8776 XXYY=           -657.8523 XXZZ=           -543.5108 YYZZ=           -163.3821
 XXYZ=              2.0754 YYXZ=              8.0138 ZZXY=              1.1167
 N-N= 9.176098511801D+02 E-N=-3.381230183415D+03  KE= 6.588600260636D+02
 Calling FoFJK, ICntrl=  10002127 FMM=F ISym2X=0 I1Cent= 0 IOpClX= 0 NMat=1 NMatS=1 NMatT=0.
 -------------------------------------------------------------------
 Center     Atomic                   Forces (Hartrees/Bohr)
 Number     Number              X              Y              Z
 -------------------------------------------------------------------
      1        8           0.001849566   -0.019564146   -0.003860867
      2        7           0.038504311    0.012432315    0.001881877
      3        8          -0.005145972    0.015371181    0.004056879
      4        6          -0.001507607    0.007547235    0.014124291
      5        6           0.000032734   -0.014400820   -0.016532248
      6        7           0.017910250   -0.012813777   -0.001417559
      7        6          -0.004563318    0.006096050    0.003036145
      8        1          -0.009076255   -0.002180930   -0.007611950
      9        6          -0.004159626   -0.000397793   -0.001972399
     10        6           0.002944217   -0.000700815    0.001013725
     11        6          -0.001318891   -0.004582753   -0.002480538
     12        6           0.001031887   -0.008751005   -0.002563929
     13        6           0.010420004   -0.001525585    0.004282700
     14        1           0.000419603    0.004682745   -0.009840969
     15        7          -0.001538450    0.002797993    0.000738601
     16        6          -0.021495019    0.007260802    0.002163658
     17        1           0.006034860   -0.004634293   -0.010045153
     18        1          -0.016913873   -0.001364602    0.009986628
     19        1           0.003085890    0.006030857    0.007622804
     20        1          -0.003295228   -0.007256617    0.002611524
     21        1          -0.004442134    0.002431972    0.009568459
     22        1          -0.003914141   -0.004064835   -0.007446308
     23        1           0.003976391    0.006165553    0.009232450
     24        1          -0.009380202    0.002600308   -0.002213147
     25        1          -0.000703007    0.010529979   -0.002455709
     26        1          -0.004813642   -0.004879788   -0.004419798
     27        1           0.006057653    0.003170768    0.002540831
 -------------------------------------------------------------------
 Cartesian Forces:  Max     0.038504311 RMS     0.008666553

 GradGradGradGradGradGradGradGradGradGradGradGradGradGradGradGradGradGrad
 Berny optimization.
 FormGI is forming the generalized inverse of G from B-inverse, IUseBI=4.
 Internal  Forces:  Max     0.036114454 RMS     0.006777775
 Search for a local minimum.
 Step number   1 out of a maximum of   20
 All quantities printed in internal units (Hartrees-Bohrs-Radians)
 Mixed Optimization -- RFO/linear search
 Second derivative matrix not updated -- first step.
 ITU=  0
     Eigenvalues ---    0.00234   0.00768   0.01087   0.01160   0.01197
     Eigenvalues ---    0.01524   0.01597   0.01760   0.01995   0.02087
     Eigenvalues ---    0.02681   0.03640   0.04500   0.04687   0.04839
     Eigenvalues ---    0.05086   0.05137   0.05304   0.05903   0.06266
     Eigenvalues ---    0.07206   0.07703   0.07732   0.07890   0.07992
     Eigenvalues ---    0.08052   0.08076   0.10461   0.11739   0.12254
     Eigenvalues ---    0.13461   0.15237   0.15711   0.15993   0.15999
     Eigenvalues ---    0.20113   0.21535   0.23185   0.24999   0.25000
     Eigenvalues ---    0.25000   0.25330   0.26153   0.26656   0.27984
     Eigenvalues ---    0.28090   0.28411   0.29766   0.31308   0.31455
     Eigenvalues ---    0.32047   0.32235   0.32288   0.32380   0.32388
     Eigenvalues ---    0.32407   0.32510   0.32525   0.32575   0.33201
     Eigenvalues ---    0.33380   0.33599   0.35210   0.43874   0.44265
     Eigenvalues ---    0.48933   0.66287   0.90442   0.911881000.00000
     Eigenvalues --- 1000.000001000.000001000.000001000.000001000.00000
     Eigenvalues --- 1000.000001000.000001000.000001000.000001000.00000
     Eigenvalues --- 1000.000001000.000001000.000001000.000001000.00000
     Eigenvalues --- 1000.000001000.000001000.000001000.000001000.00000
     Eigenvalues --- 1000.000001000.000001000.000001000.000001000.00000
     Eigenvalues --- 1000.000001000.000001000.000001000.000001000.00000
     Eigenvalues --- 1000.000001000.000001000.000001000.000001000.00000
     Eigenvalues --- 1000.000001000.000001000.000001000.000001000.00000
     Eigenvalues --- 1000.000001000.000001000.000001000.000001000.00000
     Eigenvalues --- 1000.000001000.000001000.000001000.000001000.00000
     Eigenvalues --- 1000.000001000.000001000.000001000.000001000.00000
     Eigenvalues --- 1000.000001000.000001000.000001000.000001000.00000
     Eigenvalues --- 1000.000001000.000001000.000001000.000001000.00000
     Eigenvalues --- 1000.000001000.000001000.000001000.000001000.00000
     Eigenvalues --- 1000.000001000.000001000.000001000.000001000.00000
     Eigenvalues --- 1000.000001000.000001000.000001000.000001000.00000
     Eigenvalues --- 1000.000001000.000001000.000001000.000001000.00000
     Eigenvalues --- 1000.000001000.000001000.000001000.000001000.00000
     Eigenvalues --- 1000.00000
 RFO step:  Lambda=-2.41124293D-02 EMin= 2.33585129D-03
 Linear search not attempted -- first point.
 Iteration  1 RMS(Cart)=  0.05507610 RMS(Int)=  0.00124921
 Iteration  2 RMS(Cart)=  0.00139207 RMS(Int)=  0.00025982
 Iteration  3 RMS(Cart)=  0.00000187 RMS(Int)=  0.00025981
 Iteration  4 RMS(Cart)=  0.00000000 RMS(Int)=  0.00025981
 Iteration  1 RMS(Cart)=  0.00002961 RMS(Int)=  0.00002177
 Iteration  2 RMS(Cart)=  0.00001571 RMS(Int)=  0.00002399
 Iteration  3 RMS(Cart)=  0.00000914 RMS(Int)=  0.00002676
 Iteration  4 RMS(Cart)=  0.00000584 RMS(Int)=  0.00002884
 Iteration  5 RMS(Cart)=  0.00000412 RMS(Int)=  0.00003038
 Iteration  6 RMS(Cart)=  0.00000316 RMS(Int)=  0.00003159
 Iteration  7 RMS(Cart)=  0.00000257 RMS(Int)=  0.00003258
 Iteration  8 RMS(Cart)=  0.00000216 RMS(Int)=  0.00003341
 Iteration  9 RMS(Cart)=  0.00000185 RMS(Int)=  0.00003412
 Iteration 10 RMS(Cart)=  0.00000159 RMS(Int)=  0.00003474
 Iteration 11 RMS(Cart)=  0.00000137 RMS(Int)=  0.00003527
 Iteration 12 RMS(Cart)=  0.00000118 RMS(Int)=  0.00003574
 Iteration 13 RMS(Cart)=  0.00000102 RMS(Int)=  0.00003615
 Iteration 14 RMS(Cart)=  0.00000088 RMS(Int)=  0.00003650
 Variable       Old X    -DE/DX   Delta X   Delta X   Delta X     New X
                                 (Linear)    (Quad)   (Total)
    R1        2.32390   0.01851   0.00000   0.01977   0.01977   2.34368
    R2        2.32730   0.01553   0.00000   0.01672   0.01672   2.34402
    R3        2.88432  -0.03611   0.00000  -0.11224  -0.11224   2.77208
    R4        2.64491  -0.03440   0.00000  -0.07393  -0.07366   2.57125
    R5        2.81245  -0.02209   0.00000  -0.06374  -0.06352   2.74893
    R6        2.59046  -0.02097   0.00000  -0.04039  -0.04029   2.55017
    R7        2.08390  -0.01027   0.00000  -0.02869  -0.02869   2.05521
    R8        2.82480  -0.01976   0.00000  -0.05404  -0.05413   2.77066
    R9        1.93306  -0.00716   0.00000  -0.01547  -0.01547   1.91759
   R10        2.11853  -0.01143   0.00000  -0.03375  -0.03375   2.08479
   R11        2.92667  -0.01314   0.00000  -0.04522  -0.04525   2.88142
   R12        2.90418  -0.00579   0.00000  -0.01271  -0.01278   2.89140
   R13        2.91113  -0.00482   0.00000  -0.01425  -0.01426   2.89686
   R14        2.09921  -0.00999   0.00000  -0.02861  -0.02861   2.07061
   R15        2.09894  -0.00796   0.00000  -0.02278  -0.02278   2.07616
   R16        2.90428  -0.00190   0.00000  -0.00695  -0.00701   2.89727
   R17        2.10140  -0.01058   0.00000  -0.03039  -0.03039   2.07101
   R18        2.10320  -0.00905   0.00000  -0.02609  -0.02609   2.07711
   R19        2.91797  -0.00908   0.00000  -0.02823  -0.02820   2.88977
   R20        2.10416  -0.01165   0.00000  -0.03362  -0.03362   2.07054
   R21        2.10105  -0.00996   0.00000  -0.02860  -0.02860   2.07245
   R22        2.93550  -0.01032   0.00000  -0.03627  -0.03626   2.89925
   R23        2.10155  -0.01068   0.00000  -0.03070  -0.03070   2.07085
   R24        2.09804  -0.00794   0.00000  -0.02269  -0.02269   2.07535
   R25        2.10757  -0.00888   0.00000  -0.02577  -0.02577   2.08181
   R26        2.76895  -0.00482   0.00000  -0.01097  -0.01125   2.75769
   R27        2.44485  -0.00617   0.00000  -0.00903  -0.00907   2.43578
   R28        2.08013  -0.00636   0.00000  -0.01766  -0.01766   2.06247
    A1        2.15982   0.01055   0.00000   0.03911   0.03837   2.19819
    A2        2.05389  -0.00723   0.00000  -0.02572  -0.02646   2.02742
    A3        2.06901  -0.00330   0.00000  -0.01138  -0.01213   2.05689
    A4        2.03263  -0.00628   0.00000  -0.02127  -0.02157   2.01107
    A5        2.03627  -0.00375   0.00000  -0.01203  -0.01232   2.02395
    A6        2.21424   0.01004   0.00000   0.03310   0.03345   2.24769
    A7        2.19080   0.00642   0.00000   0.02386   0.02397   2.21477
    A8        2.06786  -0.00371   0.00000  -0.01514  -0.01548   2.05238
    A9        2.02405  -0.00269   0.00000  -0.00978  -0.01011   2.01394
   A10        2.23983  -0.00506   0.00000  -0.01585  -0.01598   2.22385
   A11        2.12809  -0.01243   0.00000  -0.07118  -0.07159   2.05651
   A12        1.88832   0.01758   0.00000   0.09467   0.09472   1.98304
   A13        1.83754  -0.00057   0.00000  -0.01291  -0.01274   1.82479
   A14        2.00825  -0.00191   0.00000  -0.00948  -0.00951   1.99873
   A15        1.96430   0.00088   0.00000  -0.00193  -0.00234   1.96196
   A16        1.85130   0.00261   0.00000   0.02403   0.02390   1.87520
   A17        1.84896   0.00034   0.00000   0.01227   0.01211   1.86106
   A18        1.93930  -0.00098   0.00000  -0.00815  -0.00786   1.93145
   A19        1.91037   0.00013   0.00000  -0.00496  -0.00510   1.90526
   A20        1.92233  -0.00076   0.00000  -0.01199  -0.01196   1.91037
   A21        1.92306  -0.00158   0.00000  -0.00747  -0.00745   1.91561
   A22        1.91896  -0.00035   0.00000   0.00632   0.00630   1.92526
   A23        1.90423   0.00301   0.00000   0.02381   0.02382   1.92804
   A24        1.88470  -0.00042   0.00000  -0.00529  -0.00555   1.87915
   A25        1.94027  -0.00093   0.00000   0.00525   0.00512   1.94540
   A26        1.91907  -0.00065   0.00000  -0.00635  -0.00636   1.91270
   A27        1.90500   0.00033   0.00000  -0.00286  -0.00290   1.90210
   A28        1.91616   0.00089   0.00000   0.00712   0.00717   1.92333
   A29        1.89848   0.00160   0.00000   0.01082   0.01085   1.90934
   A30        1.88381  -0.00123   0.00000  -0.01445  -0.01454   1.86928
   A31        1.94494   0.00028   0.00000   0.00440   0.00454   1.94948
   A32        1.90219   0.00086   0.00000   0.00600   0.00593   1.90812
   A33        1.91765   0.00036   0.00000   0.00543   0.00541   1.92306
   A34        1.90597  -0.00096   0.00000  -0.01320  -0.01325   1.89272
   A35        1.91548  -0.00041   0.00000  -0.00018  -0.00027   1.91521
   A36        1.87623  -0.00014   0.00000  -0.00280  -0.00282   1.87340
   A37        1.95005  -0.00272   0.00000  -0.01769  -0.01775   1.93231
   A38        1.90570   0.00261   0.00000   0.01749   0.01734   1.92304
   A39        1.90988   0.00118   0.00000   0.01248   0.01248   1.92236
   A40        1.90591  -0.00002   0.00000  -0.00244  -0.00226   1.90365
   A41        1.91058  -0.00014   0.00000  -0.00532  -0.00527   1.90531
   A42        1.88039  -0.00084   0.00000  -0.00405  -0.00423   1.87616
   A43        1.84607   0.00412   0.00000   0.02336   0.02344   1.86950
   A44        1.94208  -0.00439   0.00000  -0.03416  -0.03456   1.90752
   A45        1.97986   0.00162   0.00000   0.01601   0.01620   1.99606
   A46        1.87799   0.00246   0.00000   0.03179   0.03212   1.91011
   A47        1.89191  -0.00351   0.00000  -0.02861  -0.02874   1.86318
   A48        1.92104  -0.00007   0.00000  -0.00599  -0.00579   1.91525
   A49        2.07762  -0.00533   0.00000  -0.00798  -0.00859   2.06903
   A50        2.24899  -0.00529   0.00000  -0.01933  -0.01959   2.22940
   A51        1.97956   0.00612   0.00000   0.02874   0.02832   2.00788
   A52        2.05453  -0.00081   0.00000  -0.00873  -0.00914   2.04539
    D1       -2.98841  -0.00096   0.00000   0.02201   0.02145  -2.96696
    D2        0.14414  -0.00007   0.00000   0.00000   0.00000   0.14414
    D3        0.18469  -0.00198   0.00000  -0.04711  -0.04737   0.13731
    D4       -2.96595  -0.00109   0.00000  -0.06911  -0.06882  -3.03477
    D5       -3.06699  -0.00297   0.00000  -0.02489  -0.02506  -3.09206
    D6        0.04002  -0.00232   0.00000  -0.06347  -0.06365  -0.02363
    D7        0.08470  -0.00387   0.00000   0.00000   0.00000   0.08471
    D8       -3.09147  -0.00321   0.00000  -0.03858  -0.03858  -3.13005
    D9       -2.69113  -0.00014   0.00000  -0.01745  -0.01740  -2.70853
   D10        0.43413   0.00142   0.00000   0.03433   0.03463   0.46876
   D11        0.44034   0.00074   0.00000  -0.04243  -0.04266   0.39768
   D12       -2.71758   0.00231   0.00000   0.00934   0.00936  -2.70822
   D13       -0.37160   0.00312   0.00000   0.03516   0.03574  -0.33586
   D14        2.49247   0.00602   0.00000   0.08713   0.08606   2.57853
   D15        2.80380   0.00250   0.00000   0.07299   0.07371   2.87751
   D16       -0.61531   0.00541   0.00000   0.12497   0.12403  -0.49129
   D17       -2.35182  -0.00146   0.00000  -0.03259  -0.03213  -2.38395
   D18        1.89983  -0.00326   0.00000  -0.04850  -0.04799   1.85184
   D19       -0.34576  -0.00095   0.00000  -0.02648  -0.02631  -0.37207
   D20        1.03703  -0.00062   0.00000  -0.05959  -0.06022   0.97681
   D21       -0.99450  -0.00242   0.00000  -0.07551  -0.07609  -1.07059
   D22        3.04309  -0.00011   0.00000  -0.05349  -0.05441   2.98869
   D23        2.94604   0.00270   0.00000   0.02622   0.02613   2.97217
   D24       -1.22538   0.00186   0.00000   0.02330   0.02322  -1.20216
   D25        0.85203  -0.00011   0.00000   0.00462   0.00462   0.85666
   D26        0.92236   0.00272   0.00000   0.03146   0.03143   0.95380
   D27        3.03412   0.00188   0.00000   0.02853   0.02852   3.06265
   D28       -1.17165  -0.00009   0.00000   0.00986   0.00992  -1.16172
   D29       -1.07920   0.00135   0.00000   0.00761   0.00758  -1.07161
   D30        1.03256   0.00051   0.00000   0.00468   0.00467   1.03724
   D31        3.10998  -0.00146   0.00000  -0.01399  -0.01392   3.09605
   D32       -2.90245  -0.00187   0.00000  -0.01095  -0.01067  -2.91312
   D33       -0.86807   0.00118   0.00000   0.02286   0.02272  -0.84534
   D34        1.30939  -0.00116   0.00000   0.00000  -0.00001   1.30938
   D35       -0.90331  -0.00191   0.00000  -0.02013  -0.02000  -0.92331
   D36        1.13107   0.00115   0.00000   0.01368   0.01340   1.14447
   D37       -2.97466  -0.00119   0.00000  -0.00918  -0.00934  -2.98400
   D38        1.09971   0.00087   0.00000   0.01104   0.01116   1.11087
   D39        3.13409   0.00393   0.00000   0.04485   0.04455  -3.10454
   D40       -0.97164   0.00159   0.00000   0.02199   0.02182  -0.94983
   D41        0.95665   0.00045   0.00000   0.00000   0.00000   0.95666
   D42        3.08231   0.00051   0.00000   0.00817   0.00813   3.09045
   D43       -1.13755  -0.00117   0.00000  -0.01485  -0.01482  -1.15237
   D44       -1.15715   0.00154   0.00000   0.01400   0.01407  -1.14308
   D45        0.96851   0.00160   0.00000   0.02217   0.02220   0.99071
   D46        3.03184  -0.00009   0.00000  -0.00085  -0.00076   3.03108
   D47        3.06216   0.00045   0.00000   0.00248   0.00243   3.06459
   D48       -1.09536   0.00051   0.00000   0.01065   0.01056  -1.08480
   D49        0.96796  -0.00117   0.00000  -0.01238  -0.01239   0.95557
   D50       -0.92192  -0.00085   0.00000   0.00000   0.00000  -0.92192
   D51        1.18268  -0.00130   0.00000  -0.00972  -0.00973   1.17294
   D52       -3.04887  -0.00076   0.00000  -0.00645  -0.00649  -3.05536
   D53       -3.04928  -0.00001   0.00000  -0.00032  -0.00030  -3.04957
   D54       -0.94468  -0.00047   0.00000  -0.01004  -0.01004  -0.95471
   D55        1.10696   0.00007   0.00000  -0.00677  -0.00679   1.10017
   D56        1.17614   0.00003   0.00000   0.00670   0.00673   1.18287
   D57       -3.00245  -0.00043   0.00000  -0.00302  -0.00301  -3.00546
   D58       -0.95081   0.00011   0.00000   0.00025   0.00024  -0.95058
   D59        0.98678  -0.00051   0.00000  -0.01199  -0.01205   0.97473
   D60        3.09691  -0.00053   0.00000  -0.01468  -0.01485   3.08207
   D61       -1.13205   0.00066   0.00000  -0.00219  -0.00218  -1.13423
   D62       -1.11560  -0.00112   0.00000  -0.01355  -0.01355  -1.12915
   D63        0.99453  -0.00114   0.00000  -0.01624  -0.01635   0.97818
   D64        3.04875   0.00004   0.00000  -0.00375  -0.00368   3.04507
   D65        3.11499  -0.00015   0.00000  -0.00231  -0.00232   3.11267
   D66       -1.05806  -0.00017   0.00000  -0.00501  -0.00512  -1.06318
   D67        0.99616   0.00101   0.00000   0.00749   0.00755   1.00371
   D68       -1.04838  -0.00013   0.00000   0.00024   0.00032  -1.04806
   D69       -3.12568   0.00160   0.00000   0.01192   0.01153  -3.11415
   D70        1.08046   0.00224   0.00000   0.01701   0.01687   1.09734
   D71        3.12480  -0.00164   0.00000  -0.00866  -0.00848   3.11632
   D72        1.04750   0.00009   0.00000   0.00303   0.00273   1.05023
   D73       -1.02955   0.00073   0.00000   0.00811   0.00807  -1.02147
   D74        1.07005  -0.00053   0.00000   0.00073   0.00094   1.07098
   D75       -1.00725   0.00120   0.00000   0.01241   0.01215  -0.99511
   D76       -3.08430   0.00184   0.00000   0.01750   0.01749  -3.06681
   D77       -1.17218   0.00263   0.00000   0.00000  -0.00001  -1.17219
   D78        3.06626  -0.00115   0.00000  -0.01974  -0.01955   3.04671
   D79        1.01658  -0.00202   0.00000  -0.03795  -0.03821   0.97837
   D80        0.10017   0.00285   0.00000   0.03533   0.03497   0.13514
   D81       -3.02450   0.00118   0.00000  -0.01863  -0.01831  -3.04281
         Item               Value     Threshold  Converged?
 Maximum Force            0.036114     0.000450     NO 
 RMS     Force            0.006868     0.000300     NO 
 Maximum Displacement     0.276832     0.001800     NO 
 RMS     Displacement     0.055412     0.001200     NO 
 Predicted change in Energy=-1.381928D-02
 GradGradGradGradGradGradGradGradGradGradGradGradGradGradGradGradGradGrad

                          Input orientation:                          
 ---------------------------------------------------------------------
 Center     Atomic      Atomic             Coordinates (Angstroms)
 Number     Number       Type             X           Y           Z
 ---------------------------------------------------------------------
      1          8           0       -3.480313   -1.432737   -0.206537
      2          7           0       -3.133411   -0.253362   -0.042588
      3          8           0       -3.890657    0.705149    0.172900
      4          6           0       -1.689453    0.004571   -0.060484
      5          6           0       -1.318748    1.254294    0.329563
      6          7           0       -0.067138    1.758408    0.351136
      7          6           0        1.194414    1.011345    0.344454
      8          1           0        1.822210    1.520731    1.095118
      9          6           0        1.945727    1.050064   -0.981814
     10          6           0        3.341665    0.447219   -0.787168
     11          6           0        3.265503   -0.962934   -0.190279
     12          6           0        2.424694   -0.991661    1.086696
     13          6           0        1.020830   -0.430970    0.824762
     14          1           0        0.443388   -0.435175    1.762933
     15          7           0        0.388529   -1.317183   -0.147042
     16          6           0       -0.847338   -1.114987   -0.452266
     17          1           0       -2.107880    1.953816    0.595537
     18          1           0        0.047030    2.750730    0.172340
     19          1           0        1.387570    0.481747   -1.734193
     20          1           0        2.021158    2.087408   -1.335751
     21          1           0        3.868908    0.423601   -1.747645
     22          1           0        3.921258    1.096822   -0.116167
     23          1           0        2.810508   -1.641618   -0.920269
     24          1           0        4.273646   -1.339082    0.021620
     25          1           0        2.336441   -2.018817    1.458232
     26          1           0        2.909685   -0.396922    1.872298
     27          1           0       -1.325223   -1.845457   -1.107414
 ---------------------------------------------------------------------
                    Distance matrix (angstroms):
                    1          2          3          4          5
     1  O    0.000000
     2  N    1.240220   0.000000
     3  O    2.209731   1.240402   0.000000
     4  C    2.300949   1.466924   2.321761   0.000000
     5  C    3.489972   2.388415   2.634543   1.360649   0.000000
     6  N    4.705760   3.688397   3.969940   2.424310   1.349490
     7  C    5.303791   4.525412   5.097169   3.081275   2.524921
     8  H    6.207578   5.385161   5.844014   3.995739   3.243867
     9  C    6.017248   5.327167   5.959506   3.893127   3.523949
    10  C    7.100053   6.555289   7.300324   5.102563   4.859825
    11  C    6.762175   6.439829   7.356970   5.050197   5.118758
    12  C    6.061032   5.719519   6.602866   4.385738   4.430679
    13  C    4.725188   4.247536   5.083148   2.884266   2.925570
    14  H    4.502151   4.010792   4.755258   2.840287   2.830897
    15  N    3.871024   3.680583   4.743798   2.464251   3.123210
    16  C    2.663439   2.477169   3.600766   1.454669   2.539089
    17  H    3.741075   2.516059   2.217225   2.098809   1.087568
    18  H    5.485170   4.380178   4.437316   3.257448   2.032089
    19  H    5.449336   4.882743   5.616634   3.535119   3.489995
    20  H    6.628177   5.806983   6.255895   4.442201   3.823914
    21  H    7.735118   7.238644   7.998663   5.823871   5.649479
    22  H    7.822409   7.183089   7.827067   5.716309   5.261286
    23  H    6.334625   6.166664   7.183866   4.868143   5.196069
    24  H    7.757880   7.486481   8.417696   6.113157   6.172138
    25  H    6.078616   5.940419   6.917284   4.754831   5.034635
    26  H    6.799010   6.340852   7.095573   5.004888   4.794391
    27  H    2.371989   2.634040   3.837479   2.156694   3.416635
                    6          7          8          9         10
     6  N    0.000000
     7  C    1.466172   0.000000
     8  H    2.044415   1.103221   0.000000
     9  C    2.515976   1.524781   2.133173   0.000000
    10  C    3.825557   2.491886   2.646539   1.532955   0.000000
    11  C    4.336511   2.910863   3.147051   2.533869   1.533169
    12  C    3.783272   2.465064   2.583635   2.945637   2.534280
    13  C    2.490255   1.530065   2.127073   2.512491   2.959021
    14  H    2.658122   2.160680   2.484491   3.463609   3.960005
    15  N    3.148821   2.512581   3.413526   2.953907   3.499127
    16  C    3.083921   3.053654   4.058065   3.573385   4.483346
    17  H    2.064593   3.443318   3.985317   4.442582   5.820588
    18  H    1.014744   2.090831   2.348548   2.798105   4.132970
    19  H    2.845107   2.153731   3.045225   1.095718   2.171759
    20  H    2.704590   2.159747   2.503962   1.098656   2.175984
    21  H    4.656077   3.446047   3.670691   2.162771   1.095929
    22  H    4.069812   2.766796   2.460267   2.157371   1.099161
    23  H    4.632223   3.354027   3.878011   2.827858   2.159417
    24  H    5.342792   3.887210   3.916691   3.483403   2.171082
    25  H    4.611972   3.424413   3.595092   3.940115   3.483335
    26  H    3.977544   2.694379   2.337521   3.341995   2.823462
    27  H    4.086318   4.076495   5.107710   4.370233   5.209488
                   11         12         13         14         15
    11  C    0.000000
    12  C    1.529199   0.000000
    13  C    2.520288   1.534215   0.000000
    14  H    3.472448   2.166229   1.101645   0.000000
    15  N    2.899024   2.402924   1.459309   2.104507   0.000000
    16  C    4.123981   3.617984   2.364050   2.652400   1.288958
    17  H    6.164266   5.427826   3.940631   3.684977   4.181258
    18  H    4.927612   4.527121   3.390746   3.582886   4.094697
    19  H    2.827968   3.347233   2.741496   3.736591   2.598707
    20  H    3.487848   3.938497   3.465646   4.295885   3.958503
    21  H    2.170706   3.481696   3.931809   4.979542   4.207766
    22  H    2.162892   2.836960   3.410568   4.239529   4.278849
    23  H    1.095681   2.144576   2.777364   3.776021   2.563029
    24  H    1.096696   2.161877   3.471385   4.303498   3.888838
    25  H    2.166941   1.095845   2.157168   2.486848   2.619839
    26  H    2.168225   1.098227   2.160154   2.469017   3.358697
    27  H    4.763900   4.427749   3.352319   3.654555   2.034289
                   16         17         18         19         20
    16  C    0.000000
    17  H    3.479140   0.000000
    18  H    4.016690   2.336194   0.000000
    19  H    3.031123   4.451157   3.252721   0.000000
    20  H    4.389094   4.560337   2.571287   1.771535   0.000000
    21  H    5.127205   6.599550   4.869151   2.482056   2.520336
    22  H    5.267311   6.131188   4.222356   3.068534   2.465568
    23  H    3.725077   6.278165   5.303143   2.682518   3.834232
    24  H    5.147743   7.203918   5.883329   3.837673   4.319374
    25  H    3.821435   6.023126   5.444584   4.164704   4.976628
    26  H    4.475985   5.686127   4.581742   4.011941   4.153668
    27  H    1.091411   4.236398   4.964452   3.628771   5.168930
                   21         22         23         24         25
    21  H    0.000000
    22  H    1.765698   0.000000
    23  H    2.463715   3.062580   0.000000
    24  H    2.530052   2.465115   1.766198   0.000000
    25  H    4.311787   3.833742   2.454442   2.505724   0.000000
    26  H    3.833713   2.684873   3.059009   2.484565   1.769351
    27  H    5.704167   6.096322   4.144978   5.733975   4.474414
                   26         27
    26  H    0.000000
    27  H    5.376931   0.000000
 Symmetry turned off by external request.
 Stoichiometry    C9H13N3O2
 Framework group  C1[X(C9H13N3O2)]
 Deg. of freedom    75
 Full point group                 C1      NOp   1
 Rotational constants (GHZ):           1.6927525           0.4205468           0.3717142
 Standard basis: 6-31G(d) (6D, 7F)
   236 basis functions,   444 primitive gaussians,   236 cartesian basis functions
    52 alpha electrons       52 beta electrons
       nuclear repulsion energy       931.8363487425 Hartrees.
 NAtoms=   27 NActive=   27 NUniq=   27 SFac= 1.00D+00 NAtFMM=   60 NAOKFM=F Big=F
 Integral buffers will be    131072 words long.
 Raffenetti 1 integral format.
 Two-electron integral symmetry is turned off.
 One-electron integrals computed using PRISM.
 NBasis=   236 RedAO= T EigKep=  1.03D-03  NBF=   236
 NBsUse=   236 1.00D-06 EigRej= -1.00D+00 NBFU=   236
 Initial guess from the checkpoint file:  "/home/alexey/tmp/Gau-1556469.chk"
 B after Tr=     0.053823    0.003067    0.003597
         Rot=    1.000000    0.000150   -0.000532    0.000596 Ang=   0.09 deg.
 ExpMin= 1.61D-01 ExpMax= 5.48D+03 ExpMxC= 8.25D+02 IAcc=3 IRadAn=         5 AccDes= 0.00D+00
 Harris functional with IExCor=  205 and IRadAn=       5 diagonalized for initial guess.
 HarFok:  IExCor=  205 AccDes= 0.00D+00 IRadAn=         5 IDoV= 1 UseB2=F ITyADJ=14
 ICtDFT=  3500011 ScaDFX=  1.000000  1.000000  1.000000  1.000000
 FoFCou: FMM=F IPFlag=           0 FMFlag=      100000 FMFlg1=           0
         NFxFlg=           0 DoJE=T BraDBF=F KetDBF=T FulRan=T
         wScrn=  0.000000 ICntrl=       500 IOpCl=  0 I1Cent=   200000004 NGrid=           0
         NMat0=    1 NMatS0=      1 NMatT0=    0 NMatD0=    1 NMtDS0=    0 NMtDT0=    0
 Symmetry not used in FoFCou.
 Keep R1 ints in memory in canonical form, NReq=397720213.
 Requested convergence on RMS density matrix=1.00D-08 within 128 cycles.
 Requested convergence on MAX density matrix=1.00D-06.
 Requested convergence on             energy=1.00D-06.
 No special actions if energy rises.
 SCF Done:  E(RHF) =  -661.294332640     A.U. after   15 cycles
            NFock= 15  Conv=0.40D-08     -V/T= 2.0025
 ExpMin= 1.61D-01 ExpMax= 5.48D+03 ExpMxC= 8.25D+02 IAcc=3 IRadAn=         5 AccDes= 0.00D+00
 HarFok:  IExCor=  205 AccDes= 0.00D+00 IRadAn=         5 IDoV=-2 UseB2=F ITyADJ=14
 ICtDFT= 12500011 ScaDFX=  1.000000  1.000000  1.000000  1.000000
 Range of M.O.s used for correlation:    15   236
 NBasis=   236 NAE=    52 NBE=    52 NFC=    14 NFV=     0
 NROrb=    222 NOA=    38 NOB=    38 NVA=   184 NVB=   184
 Fully direct method using O(ONN) memory.
 JobTyp=1 Pass  1:  I=  15 to  52 NPSUse=  4 ParTrn=T ParDer=T DoDerP=T.
 Spin components of T(2) and E(2):
     alpha-alpha T2 =       0.9126658094D-01 E2=     -0.2723042562D+00
     alpha-beta  T2 =       0.4918156980D+00 E2=     -0.1488445138D+01
     beta-beta   T2 =       0.9126658094D-01 E2=     -0.2723042562D+00
 ANorm=    0.1293966329D+01
 E2 =    -0.2033053650D+01 EUMP2 =    -0.66332738628985D+03
          IDoAtm=111111111111111111111111111
          Differentiating once with respect to electric field.
                with respect to dipole field.
          Differentiating once with respect to nuclear coordinates.
 Keep R1 ints in memory in canonical form, NReq=397723379.
          There are     1 degrees of freedom in the 1st order CPHF.  IDoFFX=0 NUNeed=     1.
 LinEq1:  Iter=  0 NonCon=     1 RMS=4.57D-03 Max=1.01D-01 NDo=     1
 AX will form     1 AO Fock derivatives at one time.
 LinEq1:  Iter=  1 NonCon=     1 RMS=1.53D-03 Max=2.79D-02 NDo=     1
 LinEq1:  Iter=  2 NonCon=     1 RMS=6.43D-04 Max=1.67D-02 NDo=     1
 LinEq1:  Iter=  3 NonCon=     1 RMS=2.82D-04 Max=8.18D-03 NDo=     1
 LinEq1:  Iter=  4 NonCon=     1 RMS=8.82D-05 Max=2.06D-03 NDo=     1
[...]
                   16         17         18         19         20
    16  C    0.000000
    17  H    3.467083   0.000000
    18  H    4.095116   2.230066   0.000000
    19  H    2.991566   4.336372   3.564969   0.000000
    20  H    4.379987   4.487998   2.954440   1.768348   0.000000
    21  H    5.094950   6.535555   5.131603   2.499349   2.522094
    22  H    5.251234   6.108309   4.334179   3.070290   2.462225
    23  H    3.688992   6.235272   5.432464   2.704841   3.843728
    24  H    5.130696   7.193282   5.937312   3.849999   4.317950
    25  H    3.820668   6.053564   5.333851   4.172679   4.986280
    26  H    4.497897   5.748171   4.445111   4.036118   4.182710
    27  H    1.089745   4.235559   5.099214   3.589491   5.157519
                   21         22         23         24         25
    21  H    0.000000
    22  H    1.758774   0.000000
    23  H    2.469368   3.062403   0.000000
    24  H    2.517007   2.459994   1.764491   0.000000
    25  H    4.312103   3.840004   2.444135   2.519620   0.000000
    26  H    3.846809   2.704806   3.060437   2.492345   1.768178
    27  H    5.651134   6.061725   4.080076   5.685800   4.445838
                   26         27
    26  H    0.000000
    27  H    5.375950   0.000000
 Symmetry turned off by external request.
 Stoichiometry    C9H13N3O2
 Framework group  C1[X(C9H13N3O2)]
 Deg. of freedom    75
 Full point group                 C1      NOp   1
 Rotational constants (GHZ):           1.6762708           0.4197160           0.3725170

 **********************************************************************

            Population analysis using the SCF Density.

 **********************************************************************

 Alpha  occ. eigenvalues --  -20.59326 -20.59005 -15.84772 -15.64039 -15.56139
 Alpha  occ. eigenvalues --  -11.34968 -11.29603 -11.29597 -11.28710 -11.27175
 Alpha  occ. eigenvalues --  -11.23650 -11.23171 -11.22696 -11.22081  -1.57186
 Alpha  occ. eigenvalues --   -1.36791  -1.30877  -1.23066  -1.14702  -1.09817
 Alpha  occ. eigenvalues --   -1.02780  -1.01269  -0.94495  -0.89721  -0.85474
 Alpha  occ. eigenvalues --   -0.82480  -0.78584  -0.77434  -0.75184  -0.71999
 Alpha  occ. eigenvalues --   -0.69889  -0.69402  -0.67766  -0.64889  -0.63811
 Alpha  occ. eigenvalues --   -0.62239  -0.60327  -0.57662  -0.56969  -0.55089
 Alpha  occ. eigenvalues --   -0.54539  -0.50711  -0.50154  -0.48732  -0.48116
 Alpha  occ. eigenvalues --   -0.47419  -0.46122  -0.46046  -0.43715  -0.41786
 Alpha  occ. eigenvalues --   -0.39741  -0.33880
 Alpha virt. eigenvalues --    0.07330   0.11659   0.17269   0.21835   0.24221
 Alpha virt. eigenvalues --    0.25912   0.26898   0.28713   0.29141   0.29710
 Alpha virt. eigenvalues --    0.30597   0.31831   0.31999   0.32750   0.34054
 Alpha virt. eigenvalues --    0.34419   0.35825   0.37338   0.38647   0.40353
 Alpha virt. eigenvalues --    0.41241   0.42361   0.44915   0.46161   0.46737
 Alpha virt. eigenvalues --    0.47032   0.48950   0.53936   0.57823   0.59788
 Alpha virt. eigenvalues --    0.63811   0.69709   0.69976   0.72853   0.74294
 Alpha virt. eigenvalues --    0.74781   0.75786   0.76572   0.78591   0.79600
 Alpha virt. eigenvalues --    0.81433   0.84456   0.85636   0.86041   0.88634
 Alpha virt. eigenvalues --    0.89597   0.91019   0.92165   0.92985   0.94461
 Alpha virt. eigenvalues --    0.95342   0.97943   1.00003   1.01981   1.02368
 Alpha virt. eigenvalues --    1.03169   1.05815   1.06831   1.07934   1.09273
 Alpha virt. eigenvalues --    1.10327   1.10763   1.11922   1.12349   1.13984
 Alpha virt. eigenvalues --    1.14464   1.15057   1.15454   1.17001   1.18819
 Alpha virt. eigenvalues --    1.19210   1.21346   1.22465   1.23564   1.24285
 Alpha virt. eigenvalues --    1.25127   1.26482   1.27112   1.27656   1.29540
 Alpha virt. eigenvalues --    1.30012   1.33639   1.35101   1.36792   1.40720
 Alpha virt. eigenvalues --    1.42759   1.48347   1.49286   1.51953   1.54180
 Alpha virt. eigenvalues --    1.55778   1.58120   1.60138   1.63424   1.64453
 Alpha virt. eigenvalues --    1.67471   1.67952   1.73139   1.75174   1.77453
 Alpha virt. eigenvalues --    1.81567   1.84452   1.87935   1.90462   1.93139
 Alpha virt. eigenvalues --    1.95418   1.96235   1.99645   2.01029   2.03111
 Alpha virt. eigenvalues --    2.04801   2.06189   2.08352   2.09445   2.12457
 Alpha virt. eigenvalues --    2.12599   2.15732   2.17581   2.20066   2.22066
 Alpha virt. eigenvalues --    2.22996   2.24252   2.25232   2.28276   2.29419
 Alpha virt. eigenvalues --    2.31888   2.33934   2.35249   2.36892   2.38176
 Alpha virt. eigenvalues --    2.39774   2.42100   2.44303   2.45043   2.47429
 Alpha virt. eigenvalues --    2.50813   2.52103   2.53835   2.55839   2.61038
 Alpha virt. eigenvalues --    2.62433   2.65427   2.67808   2.69548   2.70510
 Alpha virt. eigenvalues --    2.72599   2.72685   2.77714   2.78173   2.83288
 Alpha virt. eigenvalues --    2.88082   2.88672   2.92880   2.93227   2.96131
 Alpha virt. eigenvalues --    2.99656   3.01329   3.04252   3.05606   3.07636
 Alpha virt. eigenvalues --    3.09488   3.14684   3.21466   3.24624   3.27387
 Alpha virt. eigenvalues --    3.32246   3.37159   3.38434   3.52184   3.66001
 Alpha virt. eigenvalues --    4.12810   4.27441   4.34374   4.38961   4.45915
 Alpha virt. eigenvalues --    4.55758   4.61505   4.62070   4.73724   4.79085
 Alpha virt. eigenvalues --    4.99505   5.00950   5.05437   5.10592
          Condensed to atoms (all electrons):
               1          2          3          4          5          6
     1  O    8.315957   0.306495  -0.082782  -0.085041   0.004398  -0.000017
     2  N    0.306495   5.724878   0.301472   0.261945  -0.053782   0.000970
     3  O   -0.082782   0.301472   8.351610  -0.092312   0.003590   0.000730
     4  C   -0.085041   0.261945  -0.092312   5.215330   0.562876  -0.050324
     5  C    0.004398  -0.053782   0.003590   0.562876   4.719681   0.320784
     6  N   -0.000017   0.000970   0.000730  -0.050324   0.320784   7.182636
     7  C    0.000004  -0.000150  -0.000000   0.003663  -0.031622   0.171147
     8  H   -0.000000   0.000003  -0.000000  -0.000193   0.002626  -0.049967
     9  C   -0.000000  -0.000004   0.000000   0.000899   0.001060  -0.060784
    10  C    0.000000   0.000000   0.000000  -0.000035  -0.000065   0.003659
    11  C   -0.000000  -0.000000  -0.000000  -0.000034   0.000028  -0.000202
    12  C   -0.000000   0.000002  -0.000000  -0.000127  -0.000172   0.004087
    13  C   -0.000023  -0.000034  -0.000003  -0.011501  -0.000642  -0.048408
    14  H   -0.000004  -0.000081   0.000001   0.002660   0.006824  -0.007147
    15  N    0.000379   0.002469  -0.000017  -0.061414  -0.008139   0.001775
    16  C    0.001537  -0.027651   0.002509   0.331392  -0.050729  -0.001042
    17  H    0.000222  -0.006952   0.017133  -0.023411   0.374670  -0.033364
    18  H    0.000001  -0.000052   0.000011   0.001734  -0.031569   0.338747
    19  H    0.000001  -0.000002   0.000000  -0.001044   0.000958  -0.000355
    20  H    0.000000  -0.000000   0.000000  -0.000102   0.000178  -0.000374
    21  H   -0.000000   0.000000   0.000000   0.000001   0.000001  -0.000074
    22  H   -0.000000   0.000000  -0.000000  -0.000000  -0.000004  -0.000117
    23  H    0.000000  -0.000000   0.000000   0.000041   0.000001  -0.000031
    24  H    0.000000   0.000000   0.000000   0.000000  -0.000000   0.000006
    25  H    0.000000  -0.000000   0.000000   0.000027  -0.000001  -0.000093
    26  H    0.000000  -0.000000   0.000000   0.000005  -0.000002  -0.000056
    27  H    0.005567  -0.000852   0.000002  -0.062813   0.002463   0.000010
               7          8          9         10         11         12
     1  O    0.000004  -0.000000  -0.000000   0.000000  -0.000000  -0.000000
     2  N   -0.000150   0.000003  -0.000004   0.000000  -0.000000   0.000002
     3  O   -0.000000  -0.000000   0.000000   0.000000  -0.000000  -0.000000
     4  C    0.003663  -0.000193   0.000899  -0.000035  -0.000034  -0.000127
     5  C   -0.031622   0.002626   0.001060  -0.000065   0.000028  -0.000172
     6  N    0.171147  -0.049967  -0.060784   0.003659  -0.000202   0.004087
     7  C    5.023474   0.418013   0.348664  -0.054907  -0.008924  -0.061718
     8  H    0.418013   0.538399  -0.054277   0.000640  -0.000321  -0.002230
     9  C    0.348664  -0.054277   5.155491   0.324955  -0.050353  -0.005133
    10  C   -0.054907   0.000640   0.324955   5.120389   0.336771  -0.061041
    11  C   -0.008924  -0.000321  -0.050353   0.336771   5.120255   0.336166
    12  C   -0.061718  -0.002230  -0.005133  -0.061041   0.336166   5.119999
    13  C    0.339489  -0.037991  -0.060515  -0.000198  -0.050695   0.371931
    14  H   -0.047111  -0.000641   0.004415  -0.000397   0.004191  -0.036423
    15  N   -0.058950   0.003938  -0.014534   0.001608  -0.013315  -0.082840
    16  C   -0.001008  -0.000066  -0.001042  -0.000043   0.000052   0.002428
    17  H    0.001665  -0.000062  -0.000061   0.000001   0.000000   0.000000
    18  H   -0.021957  -0.004754   0.001668  -0.000087   0.000003  -0.000121
    19  H   -0.036759   0.004357   0.390702  -0.032392  -0.002208   0.000686
    20  H   -0.041671  -0.002005   0.399416  -0.035288   0.003910  -0.000417
    21  H    0.004609  -0.000073  -0.036384   0.402543  -0.034894   0.004343
    22  H   -0.004881   0.003567  -0.046868   0.397591  -0.045460  -0.001015
    23  H    0.000600   0.000037  -0.001962  -0.038999   0.399160  -0.037929
    24  H   -0.000130  -0.000103   0.004368  -0.038363   0.402309  -0.038690
    25  H    0.005138  -0.000023  -0.000433   0.004188  -0.033332   0.397976
    26  H   -0.003903   0.001685   0.000959  -0.002228  -0.041449   0.396518
    27  H   -0.000392   0.000008  -0.000051   0.000006   0.000013  -0.000036
              13         14         15         16         17         18
     1  O   -0.000023  -0.000004   0.000379   0.001537   0.000222   0.000001
     2  N   -0.000034  -0.000081   0.002469  -0.027651  -0.006952  -0.000052
     3  O   -0.000003   0.000001  -0.000017   0.002509   0.017133   0.000011
     4  C   -0.011501   0.002660  -0.061414   0.331392  -0.023411   0.001734
     5  C   -0.000642   0.006824  -0.008139  -0.050729   0.374670  -0.031569
     6  N   -0.048408  -0.007147   0.001775  -0.001042  -0.033364   0.338747
     7  C    0.339489  -0.047111  -0.058950  -0.001008   0.001665  -0.021957
     8  H   -0.037991  -0.000641   0.003938  -0.000066  -0.000062  -0.004754
     9  C   -0.060515   0.004415  -0.014534  -0.001042  -0.000061   0.001668
    10  C   -0.000198  -0.000397   0.001608  -0.000043   0.000001  -0.000087
    11  C   -0.050695   0.004191  -0.013315   0.000052   0.000000   0.000003
    12  C    0.371931  -0.036423  -0.082840   0.002428   0.000000  -0.000121
    13  C    5.040740   0.402737   0.245558  -0.069818   0.000007   0.002823
    14  H    0.402737   0.530341  -0.037330  -0.005107   0.000078  -0.000104
    15  N    0.245558  -0.037330   6.967047   0.584077  -0.000089  -0.000121
    16  C   -0.069818  -0.005107   0.584077   4.703289   0.001827  -0.000170
    17  H    0.000007   0.000078  -0.000089   0.001827   0.376232  -0.002948
    18  H    0.002823  -0.000104  -0.000121  -0.000170  -0.002948   0.313193
    19  H   -0.007686   0.000111   0.007794   0.002681   0.000011  -0.000141
    20  H    0.004308  -0.000067   0.000135  -0.000033   0.000003   0.000529
    21  H   -0.000428   0.000010  -0.000040   0.000004  -0.000000   0.000002
    22  H    0.000034  -0.000055   0.000021  -0.000002   0.000000   0.000000
    23  H   -0.007632   0.000002   0.008652   0.000138   0.000000   0.000000
    24  H    0.004706  -0.000057   0.000134   0.000006   0.000000  -0.000000
    25  H   -0.035418  -0.002800   0.000502  -0.000020  -0.000000   0.000002
    26  H   -0.047477  -0.001041   0.004945  -0.000053   0.000000   0.000000
    27  H    0.005016  -0.000171  -0.040704   0.403621  -0.000079   0.000001
              19         20         21         22         23         24
     1  O    0.000001   0.000000  -0.000000  -0.000000   0.000000   0.000000
     2  N   -0.000002  -0.000000   0.000000   0.000000  -0.000000   0.000000
     3  O    0.000000   0.000000   0.000000  -0.000000   0.000000   0.000000
     4  C   -0.001044  -0.000102   0.000001  -0.000000   0.000041   0.000000
     5  C    0.000958   0.000178   0.000001  -0.000004   0.000001  -0.000000
     6  N   -0.000355  -0.000374  -0.000074  -0.000117  -0.000031   0.000006
     7  C   -0.036759  -0.041671   0.004609  -0.004881   0.000600  -0.000130
     8  H    0.004357  -0.002005  -0.000073   0.003567   0.000037  -0.000103
     9  C    0.390702   0.399416  -0.036384  -0.046868  -0.001962   0.004368
    10  C   -0.032392  -0.035288   0.402543   0.397591  -0.038999  -0.038363
    11  C   -0.002208   0.003910  -0.034894  -0.045460   0.399160   0.402309
    12  C    0.000686  -0.000417   0.004343  -0.001015  -0.037929  -0.038690
    13  C   -0.007686   0.004308  -0.000428   0.000034  -0.007632   0.004706
    14  H    0.000111  -0.000067   0.000010  -0.000055   0.000002  -0.000057
    15  N    0.007794   0.000135  -0.000040   0.000021   0.008652   0.000134
    16  C    0.002681  -0.000033   0.000004  -0.000002   0.000138   0.000006
    17  H    0.000011   0.000003  -0.000000   0.000000   0.000000   0.000000
    18  H   -0.000141   0.000529   0.000002   0.000000   0.000000  -0.000000
    19  H    0.504826  -0.024437  -0.002768   0.003958   0.001519  -0.000067
    20  H   -0.024437   0.537992  -0.002668  -0.002979  -0.000046  -0.000082
    21  H   -0.002768  -0.002668   0.523831  -0.027397  -0.002905  -0.002243
    22  H    0.003958  -0.002979  -0.027397   0.571706   0.004140  -0.003653
    23  H    0.001519  -0.000046  -0.002905   0.004140   0.498979  -0.025447
    24  H   -0.000067  -0.000082  -0.002243  -0.003653  -0.025447   0.538091
    25  H   -0.000028   0.000012  -0.000087  -0.000080  -0.002309  -0.002287
    26  H    0.000019  -0.000030  -0.000081   0.002379   0.004073  -0.003027
    27  H    0.000070   0.000000  -0.000000   0.000000  -0.000036  -0.000000
              25         26         27
     1  O    0.000000   0.000000   0.005567
     2  N   -0.000000  -0.000000  -0.000852
     3  O    0.000000   0.000000   0.000002
     4  C    0.000027   0.000005  -0.062813
     5  C   -0.000001  -0.000002   0.002463
     6  N   -0.000093  -0.000056   0.000010
     7  C    0.005138  -0.003903  -0.000392
     8  H   -0.000023   0.001685   0.000008
     9  C   -0.000433   0.000959  -0.000051
    10  C    0.004188  -0.002228   0.000006
    11  C   -0.033332  -0.041449   0.000013
    12  C    0.397976   0.396518  -0.000036
    13  C   -0.035418  -0.047477   0.005016
    14  H   -0.002800  -0.001041  -0.000171
    15  N    0.000502   0.004945  -0.040704
    16  C   -0.000020  -0.000053   0.403621
    17  H   -0.000000   0.000000  -0.000079
    18  H    0.000002   0.000000   0.000001
    19  H   -0.000028   0.000019   0.000070
    20  H    0.000012  -0.000030   0.000000
    21  H   -0.000087  -0.000081  -0.000000
    22  H   -0.000080   0.002379   0.000000
    23  H   -0.002309   0.004073  -0.000036
    24  H   -0.002287  -0.003027  -0.000000
    25  H    0.506150  -0.024102  -0.000014
    26  H   -0.024102   0.563000   0.000001
    27  H   -0.000014   0.000001   0.441367
 Mulliken charges:
               1
     1  O   -0.466694
     2  N    0.491327
     3  O   -0.501943
     4  C    0.007779
     5  C    0.176589
     6  N   -0.772195
     7  C    0.057616
     8  H    0.179434
     9  C   -0.300196
    10  C   -0.328304
    11  C   -0.321670
    12  C   -0.306244
    13  C   -0.038882
    14  H    0.187166
    15  N   -0.511539
    16  C    0.123225
    17  H    0.295118
    18  H    0.403310
    19  H    0.190195
    20  H    0.163717
    21  H    0.174698
    22  H    0.149115
    23  H    0.199953
    24  H    0.164528
    25  H    0.187032
    26  H    0.149863
    27  H    0.247002
 Sum of Mulliken charges =  -0.00000
 Mulliken charges with hydrogens summed into heavy atoms:
               1
     1  O   -0.466694
     2  N    0.491327
     3  O   -0.501943
     4  C    0.007779
     5  C    0.471707
     6  N   -0.368885
     7  C    0.237050
     9  C    0.053716
    10  C   -0.004492
    11  C    0.042811
    12  C    0.030651
    13  C    0.148284
    15  N   -0.511539
    16  C    0.370227
 Electronic spatial extent (au):  <R**2>=           3003.5845
 Charge=             -0.0000 electrons
 Dipole moment (field-independent basis, Debye):
    X=              5.3576    Y=              4.6659    Z=              1.5893  Tot=              7.2802
 Quadrupole moment (field-independent basis, Debye-Ang):
   XX=           -105.9157   YY=            -79.7235   ZZ=            -81.1288
   XY=             -1.5864   XZ=             -0.7288   YZ=              2.7627
 Traceless Quadrupole moment (field-independent basis, Debye-Ang):
   XX=            -16.9931   YY=              9.1992   ZZ=              7.7939
   XY=             -1.5864   XZ=             -0.7288   YZ=              2.7627
 Octapole moment (field-independent basis, Debye-Ang**2):
  XXX=             91.0199  YYY=             34.0143  ZZZ=              0.7383  XYY=             -4.1790
  XXY=              9.0122  XXZ=              7.1430  XZZ=            -10.2656  YZZ=              0.0659
  YYZ=              9.9061  XYZ=             -0.9807
 Hexadecapole moment (field-independent basis, Debye-Ang**3):
 XXXX=          -3373.5659 YYYY=           -605.9864 ZZZZ=           -305.3177 XXXY=            -18.6931
 XXXZ=            -25.3750 YYYX=             -6.9384 YYYZ=             29.4646 ZZZX=             -3.9485
 ZZZY=              8.6038 XXYY=           -628.3276 XXZZ=           -522.3285 YYZZ=           -155.7410
 XXYZ=             -0.4161 YYXZ=             -1.0115 ZZXY=              4.8724
 N-N= 9.312173787653D+02 E-N=-3.409144651555D+03  KE= 6.596274626019D+02
 Unable to Open any file for archive entry.
 1\1\GINC-LOTUS\FOpt\RMP2-FC\6-31G(d)\C9H13N3O2\ALEXEY\02-Jul-2023\0\\#
 MP2/6-31G* SCF=Tight Opt=(ModRedun, MaxCycle=20 ) NoSymm\\MolName:\\0,
 1\O,-3.5067180435,-1.3922945816,-0.3477180432\N,-3.1184063309,-0.22421
 52874,-0.1516121748\O,-3.8889833325,0.7480186614,-0.0326998782\C,-1.68
 26279196,-0.0130022769,-0.0585573272\C,-1.2990224908,1.2493384497,0.31
 23511133\N,-0.0564068847,1.7576551539,0.373701785\C,1.2086260514,1.031
 2359313,0.3503847427\H,1.8581590078,1.5635601373,1.0612963423\C,1.9092
 50044,1.0320553842,-1.0063267623\C,3.3064314926,0.4230417801,-0.839730
 7713\C,3.256544791,-0.9688145871,-0.2037225256\C,2.4633434556,-0.96966
 84391,1.1049945251\C,1.0544224753,-0.4150984884,0.8645687628\H,0.47644
 99082,-0.385685425,1.8019547521\N,0.4079958538,-1.315501609,-0.0831497
 655\C,-0.8393482964,-1.1439315824,-0.3854169623\H,-2.0959168989,1.9653
 999649,0.4942162532\H,-0.0059970485,2.7161047084,0.6988432879\H,1.3126
 651319,0.4509396693,-1.7175929238\H,1.9760487728,2.0572078043,-1.39066
 94281\H,3.8091166049,0.3770854155,-1.8125801545\H,3.9086486164,1.09231
 9492,-0.2088904701\H,2.7764190383,-1.6693381405,-0.8941770346\H,4.2752
 232732,-1.3333073807,-0.0257887529\H,2.3769475389,-1.9888236315,1.4958
 332061\H,2.9749145691,-0.3670310769,1.8682259272\H,-1.2947793795,-1.91
 22500458,-1.0097677233\\Version=ES64L-G16RevC.02\HF=-661.2991699\MP2=-
 663.3339617\RMSD=6.615e-09\RMSF=1.381e-03\Dipole=1.9574903,1.6488279,0
 .5631655\PG=C01 [X(C9H13N3O2)]\\@
 The archive entry for this job was punched.


 THE MOST BEAUTIFUL EXPERIENCE WE CAN HAVE IS THE MYSTERIOUS.
 IT IS THE FUNDAMENTAL EMOTION WHICH STANDS AT AT THE CRADLE 
 OF TRUE ART AND TRUE SCIENCE.

                                    -- ALBERT EINSTEIN
 Job cpu time:       0 days  1 hours 10 minutes 32.9 seconds.
 Elapsed time:       0 days  0 hours 21 minutes 22.8 seconds.
 File lengths (MBytes):  RWF=     36 Int=      0 D2E=      0 Chk=      7 Scr=      1
 Normal termination of Gaussian 16 at Sun Jul  2 18:22:39 2023.
