 Entering Gaussian System, Link 0=g16
 Initial command:
 /home/alexey/programs//g16/l1.exe "/home/alexey/tmp/Gau-1559414.inp" -scrdir="/home/alexey/tmp/"
 Entering Link 1 = /home/alexey/programs//g16/l1.exe PID=   1559416.
  
 Copyright (c) 1988-2021, Gaussian, Inc.  All Rights Reserved.
  
 This is part of the Gaussian(R) 16 program.  It is based on
 the Gaussian(R) 09 system (copyright 2009, Gaussian, Inc.),
 the Gaussian(R) 03 system (copyright 2003, Gaussian, Inc.),
 the Gaussian(R) 98 system (copyright 1998, Gaussian, Inc.),
 the Gaussian(R) 94 system (copyright 1995, Gaussian, Inc.),
 the Gaussian 92(TM) system (copyright 1992, Gaussian, Inc.),
 the Gaussian 90(TM) system (copyright 1990, Gaussian, Inc.),
 the Gaussian 88(TM) system (copyright 1988, Gaussian, Inc.),
 the Gaussian 86(TM) system (copyright 1986, Carnegie Mellon
 University), and the Gaussian 82(TM) system (copyright 1983,
 Carnegie Mellon University). Gaussian is a federally registered
 trademark of Gaussian, Inc.
  
 This software contains proprietary and confidential information,
 including trade secrets, belonging to Gaussian, Inc.
  
 This software is provided under written license and may be
 used, copied, transmitted, or stored only in accord with that
 written license.
  
 The following legend is applicable only to US Government
 contracts under FAR:
  
                    RESTRICTED RIGHTS LEGEND
  
 Use, reproduction and disclosure by the US Government is
 subject to restrictions as set forth in subparagraphs (a)
 and (c) of the Commercial Computer Software - Restricted
 Rights clause in FAR 52.227-19.
  
 Gaussian, Inc.
 340 Quinnipiac St., Bldg. 40, Wallingford CT 06492
  
  
 ---------------------------------------------------------------
 Warning -- This program may not be used in any manner that
 competes with the business of Gaussian, Inc. or will provide
 assistance to any competitor of Gaussian, Inc.  The licensee
 of this program is prohibited from giving any competitor of
 Gaussian, Inc. access to this program.  By using this program,
 the user acknowledges that Gaussian, Inc. is engaged in the
 business of creating and licensing software in the field of
 computational chemistry and represents and warrants to the
 licensee that it is not a competitor of Gaussian, Inc. and that
 it will not use this program in any manner prohibited above.
 ---------------------------------------------------------------
  

 Cite this work as:
 Gaussian 16, Revision C.02,
 M. J. Frisch, G. W. Trucks, H. B. Schlegel, G. E. Scuseria, 
 M. A. Robb, J. R. Cheeseman, G. Scalmani, V. Barone, 
 G. A. Petersson, H. Nakatsuji, X. Li, M. Caricato, A. V. Marenich, 
 J. Bloino, B. G. Janesko, R. Gomperts, B. Mennucci, H. P. Hratchian, 
 J. V. Ortiz, A. F. Izmaylov, J. L. Sonnenberg, D. Williams-Young, 
 F. Ding, F. Lipparini, F. Egidi, J. Goings, B. Peng, A. Petrone, 
 T. Henderson, D. Ranasinghe, V. G. Zakrzewski, J. Gao, N. Rega, 
 G. Zheng, W. Liang, M. Hada, M. Ehara, K. Toyota, R. Fukuda, 
 J. Hasegawa, M. Ishida, T. Nakajima, Y. Honda, O. Kitao, H. Nakai, 
 T. Vreven, K. Throssell, J. A. Montgomery, Jr., J. E. Peralta, 
 F. Ogliaro, M. J. Bearpark, J. J. Heyd, E. N. Brothers, K. N. Kudin, 
 V. N. Staroverov, T. A. Keith, R. Kobayashi, J. Normand, 
 K. Raghavachari, A. P. Rendell, J. C. Burant, S. S. Iyengar, 
 J. Tomasi, M. Cossi, J. M. Millam, M. Klene, C. Adamo, R. Cammi, 
 J. W. Ochterski, R. L. Martin, K. Morokuma, O. Farkas, 
 J. B. Foresman, and D. J. Fox, Gaussian, Inc., Wallingford CT, 2019.
 
 ******************************************
 Gaussian 16:  ES64L-G16RevC.02  7-Dec-2021
                 2-Jul-2023 
 ******************************************
 %mem=8GB
 %NPROCS=4
 Will use up to    4 processors via shared memory.
 %NoSave
 ---------------------------------------------------------
 #MP2/6-31G* SCF=Tight Opt=(ModRedun, MaxCycle=20 ) NoSymm
 ---------------------------------------------------------
 1/6=20,18=120,19=15,38=1/1,3;
 2/9=110,12=2,15=1,17=6,18=5,40=1/2;
 3/5=1,6=6,7=1,11=9,25=1,30=1,71=1/1,2,3;
 4//1;
 5/5=2,32=2,38=5/2;
 8/6=4,10=2/1;
 9/15=2,16=-3/6;
 10/5=1,31=1/2;
 6/7=2,8=2,9=2,10=2/1;
 7/12=2,30=1/1,2,3,16;
 1/6=20,18=20,19=15/3(2);
 2/9=110,15=1/2;
 99//99;
 2/9=110,15=1/2;
 3/5=1,6=6,7=1,11=9,25=1,30=1,71=1/1,2,3;
 4/5=5,16=3,69=1/1;
 5/5=2,32=2,38=5/2;
 8/6=4,10=2/1;
 9/15=2,16=-3/6;
 10/5=1,31=1/2;
 7/12=2,30=1/1,2,3,16;
 1/6=20,18=20,19=15/3(-8);
 2/9=110,15=1/2;
 6/7=2,8=2,9=2,10=2/1;
 99/9=10/99;
 --------
 MolName:
 --------
 Symbolic Z-matrix:
 Charge =  0 Multiplicity = 1
 8                    0    -3.63806  -1.39857  -0.29804 
 7                    0    -3.26163  -0.24733  -0.08569 
 8                    0    -4.02497   0.71059   0.04263 
 6                    0    -1.75913   0.01055  -0.03929 
 6                    0    -1.35817   1.25878   0.44933 
 7                    0    -0.08901   1.76413   0.34476 
 6                    0     1.19549   1.00057   0.33289 
 1                    0     1.85091   1.51197   1.085 
 6                    0     1.97119   1.03667  -1.00665 
 6                    0     3.3821    0.45473  -0.79799 
 6                    0     3.3164   -0.95407  -0.1872 
 6                    0     2.45674  -0.97397   1.09551 
 6                    0     1.02048  -0.44199   0.83567 
 1                    0     0.47136  -0.47106   1.80588 
 7                    0     0.37006  -1.32408  -0.13774 
 6                    0    -0.87116  -1.11627  -0.44246 
 1                    0    -2.12429   1.94162   0.8525 
 1                    0     0.09671   2.72712   0.05373 
 1                    0     1.42933   0.44898  -1.7781 
 1                    0     2.05924   2.08235  -1.37063 
 1                    0     3.92546   0.41973  -1.76758 
 1                    0     3.95225   1.11755  -0.1093 
 1                    0     2.87547  -1.65241  -0.93403 
 1                    0     4.3427   -1.31463   0.04269 
 1                    0     2.39689  -2.01609   1.4791 
 1                    0     2.94499  -0.35378   1.87632 
 1                    0    -1.36937  -1.85713  -1.08631 
 
 The following ModRedundant input section has been read:
 D      16       4       5       6 F                                           
 D       1       2       4      16 F                                           
 D       7      13      15      16 F                                           
 D       7       9      10      11 F                                           
 D       9      10      11      12 F                                           
 D       6       7      13      15 F                                           
 

 GradGradGradGradGradGradGradGradGradGradGradGradGradGradGradGradGradGrad
 Berny optimization.
 Initialization pass.
                           ----------------------------
                           !    Initial Parameters    !
                           ! (Angstroms and Degrees)  !
 --------------------------                            --------------------------
 ! Name  Definition              Value          Derivative Info.                !
 --------------------------------------------------------------------------------
 ! R1    R(1,2)                  1.2297         estimate D2E/DX2                !
 ! R2    R(2,3)                  1.2316         estimate D2E/DX2                !
 ! R3    R(2,4)                  1.5252         estimate D2E/DX2                !
 ! R4    R(4,5)                  1.3991         estimate D2E/DX2                !
 ! R5    R(4,16)                 1.4902         estimate D2E/DX2                !
 ! R6    R(5,6)                  1.3701         estimate D2E/DX2                !
 ! R7    R(5,17)                 1.1026         estimate D2E/DX2                !
 ! R8    R(6,7)                  1.4944         estimate D2E/DX2                !
 ! R9    R(6,18)                 1.023          estimate D2E/DX2                !
 ! R10   R(7,8)                  1.1211         estimate D2E/DX2                !
 ! R11   R(7,9)                  1.5483         estimate D2E/DX2                !
 ! R12   R(7,13)                 1.5377         estimate D2E/DX2                !
 ! R13   R(9,10)                 1.5404         estimate D2E/DX2                !
 ! R14   R(9,19)                 1.1109         estimate D2E/DX2                !
 ! R15   R(9,20)                 1.1107         estimate D2E/DX2                !
 ! R16   R(10,11)                1.5369         estimate D2E/DX2                !
 ! R17   R(10,21)                1.112          estimate D2E/DX2                !
 ! R18   R(10,22)                1.113          estimate D2E/DX2                !
 ! R19   R(11,12)                1.5443         estimate D2E/DX2                !
 ! R20   R(11,23)                1.1135         estimate D2E/DX2                !
 ! R21   R(11,24)                1.1118         estimate D2E/DX2                !
 ! R22   R(12,13)                1.5535         estimate D2E/DX2                !
 ! R23   R(12,25)                1.1121         estimate D2E/DX2                !
 ! R24   R(12,26)                1.1103         estimate D2E/DX2                !
 ! R25   R(13,14)                1.1152         estimate D2E/DX2                !
 ! R26   R(13,15)                1.4658         estimate D2E/DX2                !
 ! R27   R(15,16)                1.2949         estimate D2E/DX2                !
 ! R28   R(16,27)                1.1007         estimate D2E/DX2                !
 ! A1    A(1,2,3)              123.8099         estimate D2E/DX2                !
 ! A2    A(1,2,4)              117.7176         estimate D2E/DX2                !
 ! A3    A(3,2,4)              118.4188         estimate D2E/DX2                !
 ! A4    A(2,4,5)              116.3456         estimate D2E/DX2                !
 ! A5    A(2,4,16)             116.803          estimate D2E/DX2                !
 ! A6    A(5,4,16)             126.7487         estimate D2E/DX2                !
 ! A7    A(4,5,6)              124.6026         estimate D2E/DX2                !
 ! A8    A(4,5,17)             118.7554         estimate D2E/DX2                !
 ! A9    A(6,5,17)             116.3037         estimate D2E/DX2                !
 ! A10   A(5,6,7)              127.4737         estimate D2E/DX2                !
 ! A11   A(5,6,18)             122.4863         estimate D2E/DX2                !
 ! A12   A(7,6,18)             108.8249         estimate D2E/DX2                !
 ! A13   A(6,7,8)              105.3148         estimate D2E/DX2                !
 ! A14   A(6,7,9)              115.188          estimate D2E/DX2                !
 ! A15   A(6,7,13)             112.2675         estimate D2E/DX2                !
 ! A16   A(8,7,9)              106.0743         estimate D2E/DX2                !
 ! A17   A(8,7,13)             105.9702         estimate D2E/DX2                !
 ! A18   A(9,7,13)             111.2093         estimate D2E/DX2                !
 ! A19   A(7,9,10)             109.4431         estimate D2E/DX2                !
 ! A20   A(7,9,19)             110.1259         estimate D2E/DX2                !
 ! A21   A(7,9,20)             110.1923         estimate D2E/DX2                !
 ! A22   A(10,9,19)            109.9359         estimate D2E/DX2                !
 ! A23   A(10,9,20)            109.1137         estimate D2E/DX2                !
 ! A24   A(19,9,20)            108.0077         estimate D2E/DX2                !
 ! A25   A(9,10,11)            111.1598         estimate D2E/DX2                !
 ! A26   A(9,10,21)            109.958          estimate D2E/DX2                !
 ! A27   A(9,10,22)            109.1502         estimate D2E/DX2                !
 ! A28   A(11,10,21)           109.7887         estimate D2E/DX2                !
 ! A29   A(11,10,22)           108.777          estimate D2E/DX2                !
 ! A30   A(21,10,22)           107.9367         estimate D2E/DX2                !
 ! A31   A(10,11,12)           111.4514         estimate D2E/DX2                !
 ! A32   A(10,11,23)           108.9816         estimate D2E/DX2                !
 ! A33   A(10,11,24)           109.8755         estimate D2E/DX2                !
 ! A34   A(12,11,23)           109.1833         estimate D2E/DX2                !
 ! A35   A(12,11,24)           109.751          estimate D2E/DX2                !
 ! A36   A(23,11,24)           107.5072         estimate D2E/DX2                !
 ! A37   A(11,12,13)           111.7972         estimate D2E/DX2                !
 ! A38   A(11,12,25)           109.1803         estimate D2E/DX2                !
 ! A39   A(11,12,26)           109.3992         estimate D2E/DX2                !
 ! A40   A(13,12,25)           109.1979         estimate D2E/DX2                !
 ! A41   A(13,12,26)           109.4458         estimate D2E/DX2                !
 ! A42   A(25,12,26)           107.7307         estimate D2E/DX2                !
 ! A43   A(7,13,12)            105.7074         estimate D2E/DX2                !
 ! A44   A(7,13,14)            111.4052         estimate D2E/DX2                !
 ! A45   A(7,13,15)            113.4481         estimate D2E/DX2                !
 ! A46   A(12,13,14)           107.5052         estimate D2E/DX2                !
 ! A47   A(12,13,15)           108.3752         estimate D2E/DX2                !
 ! A48   A(14,13,15)           110.0936         estimate D2E/DX2                !
 ! A49   A(13,15,16)           119.015          estimate D2E/DX2                !
 ! A50   A(4,16,15)            128.9664         estimate D2E/DX2                !
 ! A51   A(4,16,27)            113.4206         estimate D2E/DX2                !
 ! A52   A(15,16,27)           117.6129         estimate D2E/DX2                !
 ! D1    D(1,2,4,5)           -168.3085         estimate D2E/DX2                !
 ! D2    D(1,2,4,16)             8.2586         Frozen                          !
 ! D3    D(3,2,4,5)             14.2545         estimate D2E/DX2                !
 ! D4    D(3,2,4,16)          -169.1784         estimate D2E/DX2                !
 ! D5    D(2,4,5,6)           -167.6704         estimate D2E/DX2                !
 ! D6    D(2,4,5,17)             5.3912         estimate D2E/DX2                !
 ! D7    D(16,4,5,6)            16.1542         Frozen                          !
 ! D8    D(16,4,5,17)         -170.7842         estimate D2E/DX2                !
 ! D9    D(2,4,16,15)         -157.4184         estimate D2E/DX2                !
 ! D10   D(2,4,16,27)           22.4941         estimate D2E/DX2                !
 ! D11   D(5,4,16,15)           18.7417         estimate D2E/DX2                !
 ! D12   D(5,4,16,27)         -161.3458         estimate D2E/DX2                !
 ! D13   D(4,5,6,7)            -31.3647         estimate D2E/DX2                !
 ! D14   D(4,5,6,18)           134.5951         estimate D2E/DX2                !
 ! D15   D(17,5,6,7)           155.4199         estimate D2E/DX2                !
 ! D16   D(17,5,6,18)          -38.6203         estimate D2E/DX2                !
 ! D17   D(5,6,7,8)           -130.5815         estimate D2E/DX2                !
 ! D18   D(5,6,7,9)            112.929          estimate D2E/DX2                !
 ! D19   D(5,6,7,13)           -15.7225         estimate D2E/DX2                !
 ! D20   D(18,6,7,8)            61.9047         estimate D2E/DX2                !
 ! D21   D(18,6,7,9)           -54.5848         estimate D2E/DX2                !
 ! D22   D(18,6,7,13)          176.7638         estimate D2E/DX2                !
 ! D23   D(6,7,9,10)           168.9864         estimate D2E/DX2                !
 ! D24   D(6,7,9,19)           -70.0518         estimate D2E/DX2                !
 ! D25   D(6,7,9,20)            48.9989         estimate D2E/DX2                !
 ! D26   D(8,7,9,10)            52.9292         estimate D2E/DX2                !
 ! D27   D(8,7,9,19)           173.8909         estimate D2E/DX2                !
 ! D28   D(8,7,9,20)           -67.0583         estimate D2E/DX2                !
 ! D29   D(13,7,9,10)          -61.8394         estimate D2E/DX2                !
 ! D30   D(13,7,9,19)           59.1223         estimate D2E/DX2                !
 ! D31   D(13,7,9,20)          178.1731         estimate D2E/DX2                !
 ! D32   D(6,7,13,12)         -166.3639         estimate D2E/DX2                !
 ! D33   D(6,7,13,14)          -49.8861         estimate D2E/DX2                !
 ! D34   D(6,7,13,15)           75.0211         Frozen                          !
 ! D35   D(8,7,13,12)          -51.9046         estimate D2E/DX2                !
 ! D36   D(8,7,13,14)           64.5732         estimate D2E/DX2                !
 ! D37   D(8,7,13,15)         -170.5196         estimate D2E/DX2                !
 ! D38   D(9,7,13,12)           62.9286         estimate D2E/DX2                !
 ! D39   D(9,7,13,14)          179.4065         estimate D2E/DX2                !
 ! D40   D(9,7,13,15)          -55.6863         estimate D2E/DX2                !
 ! D41   D(7,9,10,11)           54.8118         Frozen                          !
 ! D42   D(7,9,10,21)          176.6002         estimate D2E/DX2                !
 ! D43   D(7,9,10,22)          -65.1743         estimate D2E/DX2                !
 ! D44   D(19,9,10,11)         -66.2651         estimate D2E/DX2                !
 ! D45   D(19,9,10,21)          55.5233         estimate D2E/DX2                !
 ! D46   D(19,9,10,22)         173.7488         estimate D2E/DX2                !
 ! D47   D(20,9,10,11)         175.458          estimate D2E/DX2                !
 ! D48   D(20,9,10,21)         -62.7536         estimate D2E/DX2                !
 ! D49   D(20,9,10,22)          55.4719         estimate D2E/DX2                !
 ! D50   D(9,10,11,12)         -52.8223         Frozen                          !
 ! D51   D(9,10,11,23)          67.742          estimate D2E/DX2                !
 ! D52   D(9,10,11,24)        -174.7015         estimate D2E/DX2                !
 ! D53   D(21,10,11,12)       -174.7093         estimate D2E/DX2                !
 ! D54   D(21,10,11,23)        -54.145          estimate D2E/DX2                !
 ! D55   D(21,10,11,24)         63.4115         estimate D2E/DX2                !
 ! D56   D(22,10,11,12)         67.3851         estimate D2E/DX2                !
 ! D57   D(22,10,11,23)       -172.0506         estimate D2E/DX2                !
 ! D58   D(22,10,11,24)        -54.4941         estimate D2E/DX2                !
 ! D59   D(10,11,12,13)         56.5265         estimate D2E/DX2                !
 ! D60   D(10,11,12,25)        177.4623         estimate D2E/DX2                !
 ! D61   D(10,11,12,26)        -64.87           estimate D2E/DX2                !
 ! D62   D(23,11,12,13)        -63.9193         estimate D2E/DX2                !
 ! D63   D(23,11,12,25)         57.0165         estimate D2E/DX2                !
 ! D64   D(23,11,12,26)        174.6842         estimate D2E/DX2                !
 ! D65   D(24,11,12,13)        178.4778         estimate D2E/DX2                !
 ! D66   D(24,11,12,25)        -60.5864         estimate D2E/DX2                !
 ! D67   D(24,11,12,26)         57.0813         estimate D2E/DX2                !
 ! D68   D(11,12,13,7)         -59.9514         estimate D2E/DX2                !
 ! D69   D(11,12,13,14)       -179.0444         estimate D2E/DX2                !
 ! D70   D(11,12,13,15)         61.9851         estimate D2E/DX2                !
 ! D71   D(25,12,13,7)         179.123          estimate D2E/DX2                !
 ! D72   D(25,12,13,14)         60.03           estimate D2E/DX2                !
 ! D73   D(25,12,13,15)        -58.9405         estimate D2E/DX2                !
 ! D74   D(26,12,13,7)          61.4181         estimate D2E/DX2                !
 ! D75   D(26,12,13,14)        -57.6748         estimate D2E/DX2                !
 ! D76   D(26,12,13,15)       -176.6454         estimate D2E/DX2                !
 ! D77   D(7,13,15,16)         -67.1597         Frozen                          !
 ! D78   D(12,13,15,16)        175.7738         estimate D2E/DX2                !
 ! D79   D(14,13,15,16)         58.4504         estimate D2E/DX2                !
 ! D80   D(13,15,16,4)           6.6856         estimate D2E/DX2                !
 ! D81   D(13,15,16,27)       -173.2238         estimate D2E/DX2                !
 --------------------------------------------------------------------------------
 Trust Radius=3.00D-01 FncErr=1.00D-07 GrdErr=1.00D-07 EigMax=2.50D+02 EigMin=1.00D-04
 Number of steps in this run=     20 maximum allowed number of steps=    162.
 GradGradGradGradGradGradGradGradGradGradGradGradGradGradGradGradGradGrad

                          Input orientation:                          
 ---------------------------------------------------------------------
 Center     Atomic      Atomic             Coordinates (Angstroms)
 Number     Number       Type             X           Y           Z
 ---------------------------------------------------------------------
      1          8           0       -3.638060   -1.398570   -0.298040
      2          7           0       -3.261630   -0.247330   -0.085690
      3          8           0       -4.024970    0.710590    0.042630
      4          6           0       -1.759130    0.010550   -0.039290
      5          6           0       -1.358170    1.258780    0.449330
      6          7           0       -0.089010    1.764130    0.344760
      7          6           0        1.195490    1.000570    0.332890
      8          1           0        1.850910    1.511970    1.085000
      9          6           0        1.971190    1.036670   -1.006650
     10          6           0        3.382100    0.454730   -0.797990
     11          6           0        3.316400   -0.954070   -0.187200
     12          6           0        2.456740   -0.973970    1.095510
     13          6           0        1.020480   -0.441990    0.835670
     14          1           0        0.471360   -0.471060    1.805880
     15          7           0        0.370060   -1.324080   -0.137740
     16          6           0       -0.871160   -1.116270   -0.442460
     17          1           0       -2.124290    1.941620    0.852500
     18          1           0        0.096710    2.727120    0.053730
     19          1           0        1.429330    0.448980   -1.778100
     20          1           0        2.059240    2.082350   -1.370630
     21          1           0        3.925460    0.419730   -1.767580
     22          1           0        3.952250    1.117550   -0.109300
     23          1           0        2.875470   -1.652410   -0.934030
     24          1           0        4.342700   -1.314630    0.042690
     25          1           0        2.396890   -2.016090    1.479100
     26          1           0        2.944990   -0.353780    1.876320
     27          1           0       -1.369370   -1.857130   -1.086310
 ---------------------------------------------------------------------
                    Distance matrix (angstroms):
                    1          2          3          4          5
     1  O    0.000000
     2  N    1.229693   0.000000
     3  O    2.171246   1.231570   0.000000
     4  C    2.362826   1.525176   2.372930   0.000000
     5  C    3.580219   2.485513   2.752769   1.399141   0.000000
     6  N    4.797043   3.781108   4.085708   2.451905   1.370066
     7  C    5.432969   4.647406   5.236558   3.138222   2.569321
     8  H    6.364969   5.532063   6.021188   4.068253   3.281216
     9  C    6.155990   5.466190   6.096003   3.987981   3.640584
    10  C    7.277865   6.718587   7.459007   5.215857   4.967138
    11  C    6.969532   6.616666   7.531243   5.168498   5.210900
    12  C    6.266487   5.884131   6.779297   4.475557   4.467243
    13  C    4.889002   4.384434   5.235830   2.948996   2.949551
    14  H    4.708937   4.190860   4.972156   2.934567   2.860027
    15  N    4.012016   3.788307   4.846515   2.514832   3.162688
    16  C    2.785011   2.568402   3.676853   1.490221   2.583279
    17  H    3.843450   2.639175   2.404976   2.158162   1.102613
    18  H    5.576161   4.488345   4.588547   3.291284   2.104566
    19  H    5.593073   5.035296   5.756117   3.658136   3.658876
    20  H    6.762136   5.948961   6.395048   4.543652   3.958436
    21  H    7.916603   7.411342   8.159093   5.955584   5.790979
    22  H    7.998705   7.341902   7.989039   5.818093   5.341589
    23  H    6.549427   6.352789   7.358920   5.004549   5.320942
    24  H    7.988471   7.679938   8.609263   6.244610   6.267991
    25  H    6.321406   6.131552   7.123097   4.866753   5.087797
    26  H    7.011132   6.510219   7.285303   5.092253   4.811843
    27  H    2.445118   2.678310   3.862629   2.176325   3.473789
                    6          7          8          9         10
     6  N    0.000000
     7  C    1.494358   0.000000
     8  H    2.091609   1.121060   0.000000
     9  C    2.569033   1.548348   2.148343   0.000000
    10  C    3.881882   2.521526   2.647253   1.540409   0.000000
    11  C    4.389580   2.930763   3.138074   2.538530   1.536912
    12  C    3.813353   2.463970   2.558718   2.949154   2.546138
    13  C    2.517722   1.537659   2.137695   2.546454   3.008355
    14  H    2.728545   2.204486   2.520959   3.526055   4.013681
    15  N    3.159208   2.511339   3.425082   2.981906   3.559843
    16  C    3.086775   3.058304   4.080496   3.610044   4.548039
    17  H    2.105153   3.489485   4.005106   4.587846   5.937617
    18  H    1.023005   2.065484   2.370090   2.737828   4.084479
    19  H    2.922586   2.194359   3.083021   1.110913   2.184939
    20  H    2.767455   2.195061   2.529596   1.110712   2.174172
    21  H    4.731317   3.493148   3.692419   2.186047   1.112012
    22  H    4.117769   2.794448   2.448989   2.176322   1.112967
    23  H    4.700659   3.386107   3.890952   2.837983   2.171456
    24  H    5.404633   3.917818   3.909616   3.500541   2.181772
    25  H    4.664385   3.443457   3.591743   3.959737   3.501532
    26  H    4.004544   2.697627   2.303090   3.345617   2.827841
    27  H    4.098879   4.093786   5.141559   4.420381   5.291908
                   11         12         13         14         15
    11  C    0.000000
    12  C    1.544266   0.000000
    13  C    2.565100   1.553500   0.000000
    14  H    3.507124   2.167782   1.115206   0.000000
    15  N    2.969894   2.449023   1.465829   2.124986   0.000000
    16  C    4.198467   3.668858   2.380456   2.696978   1.294862
    17  H    6.250368   5.435582   3.946069   3.669790   4.226956
    18  H    4.896490   4.511443   3.392350   3.665890   4.064923
    19  H    2.839110   3.367194   2.791555   3.822184   2.637532
    20  H    3.492965   3.947271   3.509854   4.373955   3.997138
    21  H    2.180798   3.506683   3.994794   5.049151   4.282303
    22  H    2.168406   2.839467   3.452594   4.278807   4.335257
    23  H    1.113487   2.180516   2.835127   3.831767   2.649332
    24  H    1.111820   2.186624   3.525261   4.336787   3.976747
    25  H    2.179436   1.112087   2.187761   2.490295   2.683485
    26  H    2.180919   1.110265   2.189628   2.477410   3.410012
    27  H    4.855961   4.492152   3.377575   3.697870   2.051717
                   16         17         18         19         20
    16  C    0.000000
    17  H    3.549359   0.000000
    18  H    3.994324   2.487546   0.000000
    19  H    3.086454   4.666503   3.212693   0.000000
    20  H    4.436205   4.739624   2.509194   1.797419   0.000000
    21  H    5.207956   6.766125   4.827064   2.496324   2.530741
    22  H    5.325996   6.207132   4.181206   3.097903   2.470886
    23  H    3.816585   6.411423   5.279911   2.686934   3.847763
    24  H    5.240139   7.285665   5.862107   3.861777   4.330258
    25  H    3.896437   6.041288   5.460819   4.197868   5.003217
    26  H    4.530026   5.658151   4.574547   4.036884   4.154752
    27  H    1.100740   4.331211   4.946153   3.691807   5.230268
                   21         22         23         24         25
    21  H    0.000000
    22  H    1.799323   0.000000
    23  H    2.468005   3.084204   0.000000
    24  H    2.541490   2.468006   1.794670   0.000000
    25  H    4.337128   3.842116   2.486865   2.518233   0.000000
    26  H    3.851967   2.668721   3.096666   2.497804   1.794846
    27  H    5.803744   6.174375   4.252501   5.847794   4.559749
                   26         27
    26  H    0.000000
    27  H    5.445268   0.000000
 Symmetry turned off by external request.
 Stoichiometry    C9H13N3O2
 Framework group  C1[X(C9H13N3O2)]
 Deg. of freedom    75
 Full point group                 C1      NOp   1
 Rotational constants (GHZ):           1.6839289           0.3987570           0.3559498
 Standard basis: 6-31G(d) (6D, 7F)
   236 basis functions,   444 primitive gaussians,   236 cartesian basis functions
    52 alpha electrons       52 beta electrons
       nuclear repulsion energy       917.7501925042 Hartrees.
 NAtoms=   27 NActive=   27 NUniq=   27 SFac= 1.00D+00 NAtFMM=   60 NAOKFM=F Big=F
 Integral buffers will be    131072 words long.
 Raffenetti 1 integral format.
 Two-electron integral symmetry is turned off.
 One-electron integrals computed using PRISM.
 NBasis=   236 RedAO= T EigKep=  1.35D-03  NBF=   236
 NBsUse=   236 1.00D-06 EigRej= -1.00D+00 NBFU=   236
 ExpMin= 1.61D-01 ExpMax= 5.48D+03 ExpMxC= 8.25D+02 IAcc=3 IRadAn=         5 AccDes= 0.00D+00
 Harris functional with IExCor=  205 and IRadAn=       5 diagonalized for initial guess.
 HarFok:  IExCor=  205 AccDes= 0.00D+00 IRadAn=         5 IDoV= 1 UseB2=F ITyADJ=14
 ICtDFT=  3500011 ScaDFX=  1.000000  1.000000  1.000000  1.000000
 FoFCou: FMM=F IPFlag=           0 FMFlag=      100000 FMFlg1=           0
         NFxFlg=           0 DoJE=T BraDBF=F KetDBF=T FulRan=T
         wScrn=  0.000000 ICntrl=       500 IOpCl=  0 I1Cent=   200000004 NGrid=           0
         NMat0=    1 NMatS0=      1 NMatT0=    0 NMatD0=    1 NMtDS0=    0 NMtDT0=    0
 Symmetry not used in FoFCou.
 Keep R1 ints in memory in canonical form, NReq=397720213.
 Requested convergence on RMS density matrix=1.00D-08 within 128 cycles.
 Requested convergence on MAX density matrix=1.00D-06.
 Requested convergence on             energy=1.00D-06.
 No special actions if energy rises.
 SCF Done:  E(RHF) =  -661.270025997     A.U. after   16 cycles
            NFock= 16  Conv=0.95D-08     -V/T= 2.0036
 ExpMin= 1.61D-01 ExpMax= 5.48D+03 ExpMxC= 8.25D+02 IAcc=3 IRadAn=         5 AccDes= 0.00D+00
 HarFok:  IExCor=  205 AccDes= 0.00D+00 IRadAn=         5 IDoV=-2 UseB2=F ITyADJ=14
 ICtDFT= 12500011 ScaDFX=  1.000000  1.000000  1.000000  1.000000
 Range of M.O.s used for correlation:    15   236
 NBasis=   236 NAE=    52 NBE=    52 NFC=    14 NFV=     0
 NROrb=    222 NOA=    38 NOB=    38 NVA=   184 NVB=   184
 Fully direct method using O(ONN) memory.
 JobTyp=1 Pass  1:  I=  15 to  52 NPSUse=  4 ParTrn=T ParDer=T DoDerP=T.
 Spin components of T(2) and E(2):
     alpha-alpha T2 =       0.9202891546D-01 E2=     -0.2718095577D+00
     alpha-beta  T2 =       0.5005823566D+00 E2=     -0.1494394699D+01
     beta-beta   T2 =       0.9202891546D-01 E2=     -0.2718095577D+00
 ANorm=    0.1297936897D+01
 E2 =    -0.2038013815D+01 EUMP2 =    -0.66330803981116D+03
          IDoAtm=111111111111111111111111111
          Differentiating once with respect to electric field.
                with respect to dipole field.
          Differentiating once with respect to nuclear coordinates.
 Keep R1 ints in memory in canonical form, NReq=397723379.
          There are     1 degrees of freedom in the 1st order CPHF.  IDoFFX=0 NUNeed=     1.
 LinEq1:  Iter=  0 NonCon=     1 RMS=4.60D-03 Max=1.11D-01 NDo=     1
 AX will form     1 AO Fock derivatives at one time.
 LinEq1:  Iter=  1 NonCon=     1 RMS=1.56D-03 Max=3.14D-02 NDo=     1
 LinEq1:  Iter=  2 NonCon=     1 RMS=6.44D-04 Max=1.80D-02 NDo=     1
 LinEq1:  Iter=  3 NonCon=     1 RMS=3.00D-04 Max=9.42D-03 NDo=     1
 LinEq1:  Iter=  4 NonCon=     1 RMS=9.42D-05 Max=2.50D-03 NDo=     1
 LinEq1:  Iter=  5 NonCon=     1 RMS=4.03D-05 Max=2.08D-03 NDo=     1
 LinEq1:  Iter=  6 NonCon=     1 RMS=1.67D-05 Max=6.13D-04 NDo=     1
 LinEq1:  Iter=  7 NonCon=     1 RMS=6.50D-06 Max=1.05D-04 NDo=     1
 LinEq1:  Iter=  8 NonCon=     1 RMS=2.60D-06 Max=6.00D-05 NDo=     1
 LinEq1:  Iter=  9 NonCon=     1 RMS=9.90D-07 Max=2.84D-05 NDo=     1
 LinEq1:  Iter= 10 NonCon=     1 RMS=4.73D-07 Max=1.40D-05 NDo=     1
 LinEq1:  Iter= 11 NonCon=     1 RMS=1.66D-07 Max=5.87D-06 NDo=     1
 LinEq1:  Iter= 12 NonCon=     1 RMS=5.77D-08 Max=9.14D-07 NDo=     1
 LinEq1:  Iter= 13 NonCon=     1 RMS=1.81D-08 Max=4.16D-07 NDo=     1
 LinEq1:  Iter= 14 NonCon=     1 RMS=6.14D-09 Max=1.85D-07 NDo=     1
 LinEq1:  Iter= 15 NonCon=     1 RMS=2.40D-09 Max=6.43D-08 NDo=     1
 LinEq1:  Iter= 16 NonCon=     1 RMS=9.17D-10 Max=1.71D-08 NDo=     1
 LinEq1:  Iter= 17 NonCon=     1 RMS=2.93D-10 Max=4.78D-09 NDo=     1
 LinEq1:  Iter= 18 NonCon=     1 RMS=9.55D-11 Max=1.43D-09 NDo=     1
 LinEq1:  Iter= 19 NonCon=     0 RMS=2.94D-11 Max=4.13D-10 NDo=     1
 Linear equations converged to 1.000D-10 1.000D-09 after    19 iterations.
 End of Minotr F.D. properties file   721 does not exist.
 End of Minotr F.D. properties file   722 does not exist.
 End of Minotr F.D. properties file   788 does not exist.

 **********************************************************************

            Population analysis using the SCF Density.

 **********************************************************************

 Alpha  occ. eigenvalues --  -20.60052 -20.59641 -15.85427 -15.62163 -15.57245
 Alpha  occ. eigenvalues --  -11.35732 -11.30678 -11.30451 -11.29830 -11.27818
 Alpha  occ. eigenvalues --  -11.24498 -11.23795 -11.23425 -11.22853  -1.58704
 Alpha  occ. eigenvalues --   -1.38212  -1.28224  -1.22704  -1.13239  -1.08405
 Alpha  occ. eigenvalues --   -1.01784  -1.00538  -0.93479  -0.89016  -0.84831
 Alpha  occ. eigenvalues --   -0.81526  -0.78181  -0.76860  -0.74271  -0.70827
 Alpha  occ. eigenvalues --   -0.70623  -0.69893  -0.67493  -0.64213  -0.63447
 Alpha  occ. eigenvalues --   -0.61528  -0.60830  -0.57484  -0.56205  -0.54890
 Alpha  occ. eigenvalues --   -0.53057  -0.50683  -0.49075  -0.48710  -0.47782
 Alpha  occ. eigenvalues --   -0.47261  -0.46134  -0.45529  -0.44131  -0.42204
 Alpha  occ. eigenvalues --   -0.40248  -0.33745
 Alpha virt. eigenvalues --    0.06258   0.11413   0.18801   0.21730   0.23730
 Alpha virt. eigenvalues --    0.24371   0.25645   0.27589   0.28596   0.28931
 Alpha virt. eigenvalues --    0.29657   0.31124   0.31903   0.32227   0.33368
 Alpha virt. eigenvalues --    0.33756   0.34183   0.35833   0.37639   0.38617
 Alpha virt. eigenvalues --    0.40830   0.41947   0.44597   0.45423   0.45736
 Alpha virt. eigenvalues --    0.45985   0.49318   0.53083   0.57454   0.59769
 Alpha virt. eigenvalues --    0.63615   0.69254   0.69901   0.71931   0.74089
 Alpha virt. eigenvalues --    0.74888   0.75474   0.75737   0.77361   0.79922
 Alpha virt. eigenvalues --    0.80517   0.83223   0.84981   0.85341   0.88195
 Alpha virt. eigenvalues --    0.89047   0.90444   0.90854   0.92359   0.94068
 Alpha virt. eigenvalues --    0.95682   0.97104   0.98595   1.00194   1.01875
 Alpha virt. eigenvalues --    1.02619   1.05049   1.05144   1.07071   1.07748
 Alpha virt. eigenvalues --    1.09589   1.10523   1.10696   1.11716   1.13319
 Alpha virt. eigenvalues --    1.13570   1.14691   1.15075   1.16004   1.16963
 Alpha virt. eigenvalues --    1.17945   1.19942   1.20788   1.21950   1.22724
 Alpha virt. eigenvalues --    1.23979   1.25603   1.25986   1.26861   1.27374
 Alpha virt. eigenvalues --    1.28669   1.31139   1.33619   1.35773   1.39233
 Alpha virt. eigenvalues --    1.42935   1.44436   1.48192   1.49462   1.50993
 Alpha virt. eigenvalues --    1.53634   1.55194   1.60645   1.62529   1.65843
 Alpha virt. eigenvalues --    1.68675   1.70448   1.71133   1.74500   1.75672
 Alpha virt. eigenvalues --    1.78828   1.80722   1.84351   1.86926   1.91930
 Alpha virt. eigenvalues --    1.93514   1.96242   1.97585   1.98763   1.99898
 Alpha virt. eigenvalues --    2.02628   2.04984   2.05593   2.08613   2.12092
 Alpha virt. eigenvalues --    2.12462   2.15192   2.17683   2.17949   2.19926
 Alpha virt. eigenvalues --    2.21390   2.21677   2.23960   2.24446   2.26874
 Alpha virt. eigenvalues --    2.29127   2.32505   2.34372   2.36206   2.36845
 Alpha virt. eigenvalues --    2.38126   2.39164   2.40995   2.43242   2.44546
 Alpha virt. eigenvalues --    2.47765   2.49977   2.53344   2.56655   2.58180
 Alpha virt. eigenvalues --    2.61107   2.63356   2.66011   2.67704   2.68776
 Alpha virt. eigenvalues --    2.69930   2.70676   2.75160   2.76770   2.80531
 Alpha virt. eigenvalues --    2.83265   2.87451   2.90664   2.91320   2.95650
 Alpha virt. eigenvalues --    2.97949   2.99110   3.02307   3.03183   3.06197
 Alpha virt. eigenvalues --    3.06744   3.11681   3.20064   3.21749   3.26818
 Alpha virt. eigenvalues --    3.28444   3.33008   3.36757   3.43146   3.58594
 Alpha virt. eigenvalues --    4.08717   4.21870   4.30789   4.35374   4.42850
 Alpha virt. eigenvalues --    4.52393   4.59209   4.59641   4.71147   4.77113
 Alpha virt. eigenvalues --    4.95019   4.99228   5.02334   5.09996
          Condensed to atoms (all electrons):
               1          2          3          4          5          6
     1  O    8.301354   0.307375  -0.088653  -0.076920   0.002971  -0.000021
     2  N    0.307375   5.707481   0.307482   0.249889  -0.041917   0.001418
     3  O   -0.088653   0.307482   8.324538  -0.083821   0.005955   0.000332
     4  C   -0.076920   0.249889  -0.083821   5.229405   0.567032  -0.064656
     5  C    0.002971  -0.041917   0.005955   0.567032   4.684950   0.315147
     6  N   -0.000021   0.001418   0.000332  -0.064656   0.315147   7.207593
     7  C    0.000003  -0.000100  -0.000003   0.002833  -0.032901   0.199344
     8  H   -0.000000   0.000003  -0.000000  -0.000069   0.000709  -0.052963
     9  C   -0.000000  -0.000004   0.000000   0.000469   0.002875  -0.053925
    10  C   -0.000000   0.000000  -0.000000  -0.000015  -0.000097   0.003254
    11  C   -0.000000  -0.000000  -0.000000  -0.000017   0.000015  -0.000154
    12  C   -0.000000   0.000002  -0.000000  -0.000027  -0.000090   0.003696
    13  C   -0.000015  -0.000033  -0.000000  -0.011501   0.001002  -0.043518
    14  H   -0.000004  -0.000027   0.000000   0.002601   0.006941  -0.005570
    15  N    0.000246   0.001582  -0.000014  -0.057323  -0.006468   0.002942
    16  C    0.003513  -0.028321   0.001969   0.325061  -0.041355  -0.003076
    17  H    0.000095  -0.002981   0.009757  -0.032119   0.381224  -0.032646
    18  H    0.000000  -0.000041   0.000014   0.000355  -0.022001   0.326590
    19  H    0.000000   0.000002   0.000000  -0.000485   0.000118   0.001093
    20  H    0.000000  -0.000000   0.000000  -0.000036   0.000038  -0.002293
    21  H   -0.000000  -0.000000  -0.000000   0.000000   0.000001  -0.000054
    22  H   -0.000000   0.000000  -0.000000   0.000000  -0.000003  -0.000099
    23  H    0.000000  -0.000000   0.000000   0.000022   0.000000  -0.000024
    24  H    0.000000   0.000000   0.000000   0.000000  -0.000000   0.000004
    25  H    0.000000  -0.000000   0.000000   0.000018  -0.000002  -0.000071
    26  H    0.000000  -0.000000   0.000000   0.000006  -0.000003  -0.000061
    27  H    0.005272   0.000206  -0.000001  -0.063878   0.002262   0.000057
               7          8          9         10         11         12
     1  O    0.000003  -0.000000  -0.000000  -0.000000  -0.000000  -0.000000
     2  N   -0.000100   0.000003  -0.000004   0.000000  -0.000000   0.000002
     3  O   -0.000003  -0.000000   0.000000  -0.000000  -0.000000  -0.000000
     4  C    0.002833  -0.000069   0.000469  -0.000015  -0.000017  -0.000027
     5  C   -0.032901   0.000709   0.002875  -0.000097   0.000015  -0.000090
     6  N    0.199344  -0.052963  -0.053925   0.003254  -0.000154   0.003696
     7  C    4.987071   0.418879   0.338252  -0.049112  -0.007507  -0.064443
     8  H    0.418879   0.555477  -0.062444   0.001649  -0.000339  -0.002771
     9  C    0.338252  -0.062444   5.182522   0.317472  -0.053110  -0.006503
    10  C   -0.049112   0.001649   0.317472   5.126919   0.332895  -0.059727
    11  C   -0.007507  -0.000339  -0.053110   0.332895   5.122426   0.331400
    12  C   -0.064443  -0.002771  -0.006503  -0.059727   0.331400   5.135195
    13  C    0.337075  -0.042297  -0.046389  -0.002447  -0.047707   0.367479
    14  H   -0.040470  -0.000837   0.003846  -0.000388   0.003915  -0.040507
    15  N   -0.059762   0.004249  -0.013060   0.001568  -0.007629  -0.073480
    16  C   -0.002075  -0.000044  -0.000787  -0.000021   0.000002   0.002499
    17  H    0.001590  -0.000026  -0.000061   0.000001   0.000000   0.000001
    18  H   -0.026793  -0.001877   0.000869  -0.000132   0.000012  -0.000131
    19  H   -0.034849   0.004211   0.385267  -0.032732  -0.002319   0.000669
    20  H   -0.041025  -0.001901   0.397455  -0.037488   0.004150  -0.000353
    21  H    0.004019  -0.000081  -0.035914   0.400311  -0.035946   0.004198
    22  H   -0.004096   0.003529  -0.045501   0.395860  -0.045526  -0.001293
    23  H    0.000419   0.000034  -0.002009  -0.040190   0.396781  -0.036954
    24  H   -0.000139  -0.000094   0.004379  -0.038412   0.400365  -0.037782
    25  H    0.004965  -0.000001  -0.000368   0.004094  -0.033989   0.395447
    26  H   -0.004432   0.001670   0.000994  -0.002382  -0.042150   0.394730
    27  H   -0.000383   0.000008  -0.000051   0.000004   0.000005  -0.000020
              13         14         15         16         17         18
     1  O   -0.000015  -0.000004   0.000246   0.003513   0.000095   0.000000
     2  N   -0.000033  -0.000027   0.001582  -0.028321  -0.002981  -0.000041
     3  O   -0.000000   0.000000  -0.000014   0.001969   0.009757   0.000014
     4  C   -0.011501   0.002601  -0.057323   0.325061  -0.032119   0.000355
     5  C    0.001002   0.006941  -0.006468  -0.041355   0.381224  -0.022001
     6  N   -0.043518  -0.005570   0.002942  -0.003076  -0.032646   0.326590
     7  C    0.337075  -0.040470  -0.059762  -0.002075   0.001590  -0.026793
     8  H   -0.042297  -0.000837   0.004249  -0.000044  -0.000026  -0.001877
     9  C   -0.046389   0.003846  -0.013060  -0.000787  -0.000061   0.000869
    10  C   -0.002447  -0.000388   0.001568  -0.000021   0.000001  -0.000132
    11  C   -0.047707   0.003915  -0.007629   0.000002   0.000000   0.000012
    12  C    0.367479  -0.040507  -0.073480   0.002499   0.000001  -0.000131
    13  C    5.035186   0.400121   0.237791  -0.068818  -0.000027   0.003488
    14  H    0.400121   0.523944  -0.036113  -0.005214   0.000064   0.000038
    15  N    0.237791  -0.036113   6.935943   0.581209  -0.000078  -0.000104
    16  C   -0.068818  -0.005214   0.581209   4.709597   0.001390  -0.000179
    17  H   -0.000027   0.000064  -0.000078   0.001390   0.390276  -0.001539
    18  H    0.003488   0.000038  -0.000104  -0.000179  -0.001539   0.318332
    19  H   -0.006658   0.000064   0.007190   0.002261   0.000006  -0.000115
    20  H    0.003812  -0.000048   0.000073  -0.000026  -0.000000   0.003108
    21  H   -0.000348   0.000009  -0.000023   0.000002  -0.000000   0.000000
    22  H    0.000319  -0.000044   0.000003  -0.000001  -0.000000   0.000001
    23  H   -0.005746   0.000004   0.006548   0.000070   0.000000   0.000000
    24  H    0.004129  -0.000059   0.000037   0.000005   0.000000  -0.000000
    25  H   -0.034826  -0.002628   0.000699  -0.000057  -0.000000   0.000002
    26  H   -0.044616  -0.000958   0.004172  -0.000057   0.000000  -0.000001
    27  H    0.004762  -0.000174  -0.039246   0.400992  -0.000061   0.000003
              19         20         21         22         23         24
     1  O    0.000000   0.000000  -0.000000  -0.000000   0.000000   0.000000
     2  N    0.000002  -0.000000  -0.000000   0.000000  -0.000000   0.000000
     3  O    0.000000   0.000000  -0.000000  -0.000000   0.000000   0.000000
     4  C   -0.000485  -0.000036   0.000000   0.000000   0.000022   0.000000
     5  C    0.000118   0.000038   0.000001  -0.000003   0.000000  -0.000000
     6  N    0.001093  -0.002293  -0.000054  -0.000099  -0.000024   0.000004
     7  C   -0.034849  -0.041025   0.004019  -0.004096   0.000419  -0.000139
     8  H    0.004211  -0.001901  -0.000081   0.003529   0.000034  -0.000094
     9  C    0.385267   0.397455  -0.035914  -0.045501  -0.002009   0.004379
    10  C   -0.032732  -0.037488   0.400311   0.395860  -0.040190  -0.038412
    11  C   -0.002319   0.004150  -0.035946  -0.045526   0.396781   0.400365
    12  C    0.000669  -0.000353   0.004198  -0.001293  -0.036954  -0.037782
    13  C   -0.006658   0.003812  -0.000348   0.000319  -0.005746   0.004129
    14  H    0.000064  -0.000048   0.000009  -0.000044   0.000004  -0.000059
    15  N    0.007190   0.000073  -0.000023   0.000003   0.006548   0.000037
    16  C    0.002261  -0.000026   0.000002  -0.000001   0.000070   0.000005
    17  H    0.000006  -0.000000  -0.000000  -0.000000   0.000000   0.000000
    18  H   -0.000115   0.003108   0.000000   0.000001   0.000000  -0.000000
    19  H    0.508188  -0.024057  -0.002581   0.003767   0.001657  -0.000070
    20  H   -0.024057   0.549873  -0.002561  -0.002974  -0.000051  -0.000090
    21  H   -0.002581  -0.002561   0.526477  -0.024730  -0.002827  -0.002034
    22  H    0.003767  -0.002974  -0.024730   0.568188   0.004069  -0.003585
    23  H    0.001657  -0.000051  -0.002827   0.004069   0.511047  -0.025013
    24  H   -0.000070  -0.000090  -0.002034  -0.003585  -0.025013   0.540687
    25  H   -0.000027   0.000011  -0.000086  -0.000082  -0.002115  -0.002379
    26  H    0.000025  -0.000035  -0.000075   0.002464   0.003832  -0.002783
    27  H    0.000060  -0.000000  -0.000000   0.000000  -0.000020  -0.000000
              25         26         27
     1  O    0.000000   0.000000   0.005272
     2  N   -0.000000  -0.000000   0.000206
     3  O    0.000000   0.000000  -0.000001
     4  C    0.000018   0.000006  -0.063878
     5  C   -0.000002  -0.000003   0.002262
     6  N   -0.000071  -0.000061   0.000057
     7  C    0.004965  -0.004432  -0.000383
     8  H   -0.000001   0.001670   0.000008
     9  C   -0.000368   0.000994  -0.000051
    10  C    0.004094  -0.002382   0.000004
    11  C   -0.033989  -0.042150   0.000005
    12  C    0.395447   0.394730  -0.000020
    13  C   -0.034826  -0.044616   0.004762
    14  H   -0.002628  -0.000958  -0.000174
    15  N    0.000699   0.004172  -0.039246
    16  C   -0.000057  -0.000057   0.400992
    17  H   -0.000000   0.000000  -0.000061
    18  H    0.000002  -0.000001   0.000003
    19  H   -0.000027   0.000025   0.000060
    20  H    0.000011  -0.000035  -0.000000
    21  H   -0.000086  -0.000075  -0.000000
    22  H   -0.000082   0.002464   0.000000
    23  H   -0.002115   0.003832  -0.000020
    24  H   -0.002379  -0.002783  -0.000000
    25  H    0.511951  -0.023194  -0.000010
    26  H   -0.023194   0.559862   0.000001
    27  H   -0.000010   0.000001   0.448548
 Mulliken charges:
               1
     1  O   -0.455217
     2  N    0.497987
     3  O   -0.477554
     4  C    0.013177
     5  C    0.173597
     6  N   -0.802338
     7  C    0.073641
     8  H    0.175328
     9  C   -0.314272
    10  C   -0.320884
    11  C   -0.315571
    12  C   -0.311234
    13  C   -0.040218
    14  H    0.191495
    15  N   -0.490949
    16  C    0.121462
    17  H    0.285134
    18  H    0.400100
    19  H    0.189317
    20  H    0.154418
    21  H    0.172244
    22  H    0.149734
    23  H    0.190466
    24  H    0.162834
    25  H    0.182648
    26  H    0.152992
    27  H    0.241663
 Sum of Mulliken charges =  -0.00000
 Mulliken charges with hydrogens summed into heavy atoms:
               1
     1  O   -0.455217
     2  N    0.497987
     3  O   -0.477554
     4  C    0.013177
     5  C    0.458731
     6  N   -0.402238
     7  C    0.248969
     9  C    0.029463
    10  C    0.001094
    11  C    0.037730
    12  C    0.024405
    13  C    0.151277
    15  N   -0.490949
    16  C    0.363125
 Electronic spatial extent (au):  <R**2>=           3125.4416
 Charge=              0.0000 electrons
 Dipole moment (field-independent basis, Debye):
    X=              5.1635    Y=              4.0986    Z=              0.9146  Tot=              6.6555
 Quadrupole moment (field-independent basis, Debye-Ang):
   XX=           -105.2576   YY=            -81.1137   ZZ=            -81.7182
   XY=             -1.3823   XZ=             -0.9558   YZ=              0.0427
 Traceless Quadrupole moment (field-independent basis, Debye-Ang):
   XX=            -15.8944   YY=              8.2495   ZZ=              7.6450
   XY=             -1.3823   XZ=             -0.9558   YZ=              0.0427
 Octapole moment (field-independent basis, Debye-Ang**2):
  XXX=            100.0753  YYY=             32.3487  ZZZ=             -2.4911  XYY=             -1.1162
  XXY=              8.9946  XXZ=              5.7341  XZZ=             -9.5421  YZZ=             -2.3687
  YYZ=              0.8300  XYZ=             -2.6531
 Hexadecapole moment (field-independent basis, Debye-Ang**3):
 XXXX=          -3558.6182 YYYY=           -614.6229 ZZZZ=           -306.2200 XXXY=            -29.2274
 XXXZ=             -4.3194 YYYX=            -11.7561 YYYZ=              3.0553 ZZZX=             10.3277
 ZZZY=              6.6556 XXYY=           -658.3539 XXZZ=           -543.8386 YYZZ=           -162.5619
 XXYZ=              1.8083 YYXZ=              2.1181 ZZXY=              1.1432
 N-N= 9.177501925042D+02 E-N=-3.381522321750D+03  KE= 6.588734044474D+02
 Calling FoFJK, ICntrl=  10002127 FMM=F ISym2X=0 I1Cent= 0 IOpClX= 0 NMat=1 NMatS=1 NMatT=0.
 -------------------------------------------------------------------
 Center     Atomic                   Forces (Hartrees/Bohr)
 Number     Number              X              Y              Z
 -------------------------------------------------------------------
      1        8           0.000835208   -0.019907368   -0.004335425
      2        7           0.037745039    0.009611561    0.006758454
      3        8          -0.004823156    0.015307590    0.003911075
      4        6          -0.000766234    0.003144848    0.018540168
      5        6          -0.003809509   -0.010139577   -0.026849825
      6        7           0.023021821   -0.013745706    0.002820190
      7        6          -0.004764502    0.006867560    0.003518768
      8        1          -0.008376176   -0.002627991   -0.007460921
      9        6          -0.004293966   -0.000762458   -0.001761858
     10        6           0.003016835   -0.000595488    0.000969135
     11        6          -0.001500914   -0.004498864   -0.002447405
     12        6           0.001156493   -0.008911973   -0.002317935
     13        6           0.012194222   -0.000601497    0.002688682
     14        1          -0.000126886    0.004762780   -0.009905932
     15        7          -0.003230578    0.002794012    0.002845253
     16        6          -0.021431129    0.009210051   -0.002066654
     17        1           0.004873218   -0.003488836   -0.012266834
     18        1          -0.016277536   -0.001203130    0.012509571
     19        1           0.003112159    0.006137913    0.007485268
     20        1          -0.003279246   -0.007242703    0.002669695
     21        1          -0.004389667    0.002456259    0.009572217
     22        1          -0.003936378   -0.004159591   -0.007421648
     23        1           0.004025360    0.006192943    0.009111246
     24        1          -0.009422958    0.002531119   -0.002185932
     25        1          -0.000700291    0.010463869   -0.002531099
     26        1          -0.004871719   -0.004952919   -0.004401506
     27        1           0.006020490    0.003357599    0.002553252
 -------------------------------------------------------------------
 Cartesian Forces:  Max     0.037745039 RMS     0.009194856

 GradGradGradGradGradGradGradGradGradGradGradGradGradGradGradGradGradGrad
 Berny optimization.
 FormGI is forming the generalized inverse of G from B-inverse, IUseBI=4.
 Internal  Forces:  Max     0.034295305 RMS     0.006690895
 Search for a local minimum.
 Step number   1 out of a maximum of   20
 All quantities printed in internal units (Hartrees-Bohrs-Radians)
 Mixed Optimization -- RFO/linear search
 Second derivative matrix not updated -- first step.
 ITU=  0
     Eigenvalues ---    0.00237   0.00767   0.01089   0.01160   0.01196
     Eigenvalues ---    0.01527   0.01645   0.01741   0.01992   0.02109
     Eigenvalues ---    0.02677   0.03627   0.04494   0.04682   0.04839
     Eigenvalues ---    0.05092   0.05136   0.05304   0.05910   0.06263
     Eigenvalues ---    0.07207   0.07701   0.07737   0.07900   0.07990
     Eigenvalues ---    0.08054   0.08087   0.10460   0.11741   0.12240
     Eigenvalues ---    0.13371   0.15233   0.15773   0.15922   0.16000
     Eigenvalues ---    0.20126   0.21001   0.23300   0.24950   0.25000
     Eigenvalues ---    0.25000   0.25300   0.26097   0.26662   0.27989
     Eigenvalues ---    0.28094   0.28368   0.29873   0.31110   0.31457
     Eigenvalues ---    0.32055   0.32234   0.32288   0.32380   0.32388
     Eigenvalues ---    0.32408   0.32504   0.32525   0.32572   0.33105
     Eigenvalues ---    0.33395   0.33600   0.35190   0.43862   0.44379
     Eigenvalues ---    0.48960   0.65900   0.90435   0.912141000.00000
     Eigenvalues --- 1000.000001000.000001000.000001000.000001000.00000
     Eigenvalues --- 1000.000001000.000001000.000001000.000001000.00000
     Eigenvalues --- 1000.000001000.000001000.000001000.000001000.00000
     Eigenvalues --- 1000.000001000.000001000.000001000.000001000.00000
     Eigenvalues --- 1000.000001000.000001000.000001000.000001000.00000
     Eigenvalues --- 1000.000001000.000001000.000001000.000001000.00000
     Eigenvalues --- 1000.000001000.000001000.000001000.000001000.00000
     Eigenvalues --- 1000.000001000.000001000.000001000.000001000.00000
     Eigenvalues --- 1000.000001000.000001000.000001000.000001000.00000
     Eigenvalues --- 1000.000001000.000001000.000001000.000001000.00000
     Eigenvalues --- 1000.000001000.000001000.000001000.000001000.00000
     Eigenvalues --- 1000.000001000.000001000.000001000.000001000.00000
     Eigenvalues --- 1000.000001000.000001000.000001000.000001000.00000
     Eigenvalues --- 1000.000001000.000001000.000001000.000001000.00000
     Eigenvalues --- 1000.000001000.000001000.000001000.000001000.00000
     Eigenvalues --- 1000.000001000.000001000.000001000.000001000.00000
     Eigenvalues --- 1000.000001000.000001000.000001000.000001000.00000
     Eigenvalues --- 1000.000001000.000001000.000001000.000001000.00000
     Eigenvalues --- 1000.00000
 RFO step:  Lambda=-2.49359741D-02 EMin= 2.37252701D-03
 Linear search not attempted -- first point.
 Iteration  1 RMS(Cart)=  0.05812231 RMS(Int)=  0.00162231
 Iteration  2 RMS(Cart)=  0.00207146 RMS(Int)=  0.00034161
 Iteration  3 RMS(Cart)=  0.00000385 RMS(Int)=  0.00034159
 Iteration  4 RMS(Cart)=  0.00000000 RMS(Int)=  0.00034159
 Iteration  1 RMS(Cart)=  0.00005605 RMS(Int)=  0.00004476
 Iteration  2 RMS(Cart)=  0.00002661 RMS(Int)=  0.00004968
 Iteration  3 RMS(Cart)=  0.00001384 RMS(Int)=  0.00005522
 Iteration  4 RMS(Cart)=  0.00000785 RMS(Int)=  0.00005886
 Iteration  5 RMS(Cart)=  0.00000481 RMS(Int)=  0.00006119
 Iteration  6 RMS(Cart)=  0.00000321 RMS(Int)=  0.00006275
 Iteration  7 RMS(Cart)=  0.00000237 RMS(Int)=  0.00006385
 Iteration  8 RMS(Cart)=  0.00000191 RMS(Int)=  0.00006466
 Iteration  9 RMS(Cart)=  0.00000164 RMS(Int)=  0.00006528
 Iteration 10 RMS(Cart)=  0.00000144 RMS(Int)=  0.00006576
 Iteration 11 RMS(Cart)=  0.00000127 RMS(Int)=  0.00006615
 Iteration 12 RMS(Cart)=  0.00000112 RMS(Int)=  0.00006648
 Iteration 13 RMS(Cart)=  0.00000098 RMS(Int)=  0.00006675
 Variable       Old X    -DE/DX   Delta X   Delta X   Delta X     New X
                                 (Linear)    (Quad)   (Total)
    R1        2.32378   0.01913   0.00000   0.02041   0.02041   2.34420
    R2        2.32733   0.01530   0.00000   0.01647   0.01647   2.34380
    R3        2.88216  -0.03430   0.00000  -0.10596  -0.10596   2.77621
    R4        2.64399  -0.03211   0.00000  -0.06861  -0.06826   2.57573
    R5        2.81611  -0.02319   0.00000  -0.06814  -0.06787   2.74824
    R6        2.58905  -0.01673   0.00000  -0.03162  -0.03147   2.55758
    R7        2.08364  -0.01003   0.00000  -0.02795  -0.02795   2.05568
    R8        2.82393  -0.02014   0.00000  -0.05332  -0.05344   2.77048
    R9        1.93320  -0.00765   0.00000  -0.01650  -0.01650   1.91670
   R10        2.11850  -0.01110   0.00000  -0.03270  -0.03270   2.08580
   R11        2.92595  -0.01320   0.00000  -0.04575  -0.04579   2.88017
   R12        2.90575  -0.00658   0.00000  -0.01471  -0.01490   2.89086
   R13        2.91095  -0.00498   0.00000  -0.01412  -0.01413   2.89682
   R14        2.09932  -0.00996   0.00000  -0.02847  -0.02847   2.07085
   R15        2.09894  -0.00795   0.00000  -0.02271  -0.02271   2.07623
   R16        2.90434  -0.00193   0.00000  -0.00673  -0.00678   2.89756
   R17        2.10140  -0.01057   0.00000  -0.03030  -0.03030   2.07110
   R18        2.10320  -0.00909   0.00000  -0.02612  -0.02612   2.07708
   R19        2.91824  -0.00912   0.00000  -0.02789  -0.02785   2.89039
   R20        2.10419  -0.01159   0.00000  -0.03337  -0.03337   2.07081
   R21        2.10104  -0.00997   0.00000  -0.02857  -0.02857   2.07247
   R22        2.93569  -0.01009   0.00000  -0.03606  -0.03606   2.89963
   R23        2.10154  -0.01064   0.00000  -0.03051  -0.03051   2.07103
   R24        2.09810  -0.00800   0.00000  -0.02283  -0.02283   2.07527
   R25        2.10743  -0.00868   0.00000  -0.02512  -0.02512   2.08231
   R26        2.77002  -0.00428   0.00000  -0.01044  -0.01077   2.75925
   R27        2.44693  -0.00587   0.00000  -0.00952  -0.00955   2.43738
   R28        2.08010  -0.00648   0.00000  -0.01795  -0.01795   2.06215
    A1        2.16089   0.01008   0.00000   0.03788   0.03663   2.19752
    A2        2.05456  -0.00627   0.00000  -0.02157  -0.02283   2.03173
    A3        2.06680  -0.00379   0.00000  -0.01258  -0.01384   2.05296
    A4        2.03061  -0.00526   0.00000  -0.01912  -0.01999   2.01062
    A5        2.03860  -0.00419   0.00000  -0.01528  -0.01613   2.02247
    A6        2.21218   0.00947   0.00000   0.03065   0.03043   2.24261
    A7        2.17473   0.00788   0.00000   0.03341   0.03369   2.20842
    A8        2.07267  -0.00462   0.00000  -0.02245  -0.02281   2.04986
    A9        2.02988  -0.00297   0.00000  -0.01432  -0.01464   2.01524
   A10        2.22484  -0.00517   0.00000  -0.01658  -0.01679   2.20804
   A11        2.13779  -0.01222   0.00000  -0.06972  -0.07009   2.06769
   A12        1.89935   0.01734   0.00000   0.09342   0.09344   1.99279
   A13        1.83809   0.00029   0.00000  -0.00850  -0.00836   1.82974
   A14        2.01041  -0.00262   0.00000  -0.00700  -0.00695   2.00346
   A15        1.95944   0.00087   0.00000  -0.00545  -0.00601   1.95342
   A16        1.85134   0.00261   0.00000   0.02417   0.02402   1.87537
   A17        1.84953  -0.00002   0.00000   0.00831   0.00821   1.85774
   A18        1.94097  -0.00070   0.00000  -0.00787  -0.00756   1.93341
   A19        1.91014   0.00018   0.00000  -0.00509  -0.00525   1.90489
   A20        1.92206  -0.00080   0.00000  -0.01129  -0.01124   1.91082
   A21        1.92322  -0.00153   0.00000  -0.00762  -0.00759   1.91563
   A22        1.91874  -0.00036   0.00000   0.00656   0.00653   1.92528
   A23        1.90439   0.00298   0.00000   0.02339   0.02342   1.92781
   A24        1.88509  -0.00043   0.00000  -0.00555  -0.00580   1.87929
   A25        1.94010  -0.00093   0.00000   0.00504   0.00486   1.94497
   A26        1.91913  -0.00060   0.00000  -0.00595  -0.00595   1.91318
   A27        1.90503   0.00032   0.00000  -0.00282  -0.00284   1.90219
   A28        1.91617   0.00094   0.00000   0.00698   0.00704   1.92322
   A29        1.89852   0.00152   0.00000   0.01056   0.01061   1.90913
   A30        1.88385  -0.00123   0.00000  -0.01429  -0.01437   1.86948
   A31        1.94519  -0.00002   0.00000   0.00389   0.00407   1.94926
   A32        1.90209   0.00110   0.00000   0.00624   0.00614   1.90822
   A33        1.91769   0.00031   0.00000   0.00546   0.00545   1.92314
   A34        1.90561  -0.00086   0.00000  -0.01259  -0.01264   1.89297
   A35        1.91552  -0.00032   0.00000  -0.00037  -0.00047   1.91504
   A36        1.87635  -0.00021   0.00000  -0.00296  -0.00298   1.87337
   A37        1.95123  -0.00253   0.00000  -0.01779  -0.01786   1.93336
   A38        1.90556   0.00269   0.00000   0.01790   0.01775   1.92330
   A39        1.90938   0.00097   0.00000   0.01184   0.01185   1.92123
   A40        1.90586  -0.00021   0.00000  -0.00190  -0.00169   1.90418
   A41        1.91019  -0.00006   0.00000  -0.00554  -0.00552   1.90467
   A42        1.88026  -0.00081   0.00000  -0.00402  -0.00421   1.87605
   A43        1.84494   0.00376   0.00000   0.02293   0.02303   1.86798
   A44        1.94439  -0.00455   0.00000  -0.03668  -0.03701   1.90737
   A45        1.98004   0.00272   0.00000   0.02303   0.02314   2.00319
   A46        1.87632   0.00271   0.00000   0.03280   0.03312   1.90944
   A47        1.89150  -0.00343   0.00000  -0.03030  -0.03047   1.86103
   A48        1.92150  -0.00096   0.00000  -0.00946  -0.00912   1.91237
   A49        2.07720  -0.00413   0.00000  -0.00301  -0.00362   2.07358
   A50        2.25089  -0.00587   0.00000  -0.02276  -0.02282   2.22807
   A51        1.97956   0.00626   0.00000   0.02938   0.02904   2.00861
   A52        2.05273  -0.00039   0.00000  -0.00657  -0.00689   2.04584
    D1       -2.93754  -0.00127   0.00000   0.06139   0.05990  -2.87764
    D2        0.14414  -0.00048   0.00000   0.00000   0.00000   0.14414
    D3        0.24879  -0.00201   0.00000  -0.02863  -0.02935   0.21944
    D4       -2.95272  -0.00123   0.00000  -0.09002  -0.08924  -3.04196
    D5       -2.92640  -0.00647   0.00000  -0.07046  -0.07107  -2.99747
    D6        0.09409  -0.00369   0.00000  -0.10600  -0.10643  -0.01234
    D7        0.28194  -0.00672   0.00000   0.00000   0.00001   0.28195
    D8       -2.98075  -0.00395   0.00000  -0.03555  -0.03535  -3.01610
    D9       -2.74747   0.00234   0.00000   0.02385   0.02412  -2.72335
   D10        0.39260   0.00239   0.00000   0.06595   0.06645   0.45904
   D11        0.32710   0.00257   0.00000  -0.04701  -0.04748   0.27962
   D12       -2.81602   0.00262   0.00000  -0.00491  -0.00515  -2.82117
   D13       -0.54742   0.00618   0.00000   0.05055   0.05129  -0.49613
   D14        2.34913   0.00807   0.00000   0.10280   0.10182   2.45095
   D15        2.71259   0.00359   0.00000   0.08592   0.08664   2.79923
   D16       -0.67405   0.00548   0.00000   0.13818   0.13717  -0.53688
   D17       -2.27908  -0.00219   0.00000  -0.04165  -0.04110  -2.32017
   D18        1.97098  -0.00418   0.00000  -0.06197  -0.06133   1.90965
   D19       -0.27441  -0.00162   0.00000  -0.03938  -0.03908  -0.31349
   D20        1.08044  -0.00083   0.00000  -0.07104  -0.07168   1.00876
   D21       -0.95268  -0.00281   0.00000  -0.09136  -0.09191  -1.04460
   D22        3.08511  -0.00026   0.00000  -0.06877  -0.06966   3.01545
   D23        2.94937   0.00305   0.00000   0.02804   0.02805   2.97742
   D24       -1.22264   0.00221   0.00000   0.02578   0.02579  -1.19685
   D25        0.85519   0.00021   0.00000   0.00713   0.00722   0.86241
   D26        0.92379   0.00240   0.00000   0.02633   0.02631   0.95010
   D27        3.03497   0.00156   0.00000   0.02407   0.02404   3.05901
   D28       -1.17039  -0.00044   0.00000   0.00542   0.00547  -1.16491
   D29       -1.07930   0.00131   0.00000   0.00687   0.00681  -1.07249
   D30        1.03188   0.00047   0.00000   0.00462   0.00455   1.03643
   D31        3.10971  -0.00152   0.00000  -0.01403  -0.01402   3.09569
   D32       -2.90360  -0.00265   0.00000  -0.00942  -0.00905  -2.91264
   D33       -0.87068   0.00043   0.00000   0.02413   0.02407  -0.84661
   D34        1.30937  -0.00240   0.00000   0.00000  -0.00001   1.30935
   D35       -0.90591  -0.00188   0.00000  -0.01745  -0.01727  -0.92318
   D36        1.12701   0.00120   0.00000   0.01610   0.01584   1.14285
   D37       -2.97613  -0.00163   0.00000  -0.00803  -0.00824  -2.98437
   D38        1.09831   0.00084   0.00000   0.01185   0.01201   1.11032
   D39        3.13123   0.00392   0.00000   0.04541   0.04512  -3.10683
   D40       -0.97191   0.00109   0.00000   0.02127   0.02104  -0.95087
   D41        0.95665   0.00029   0.00000   0.00000   0.00001   0.95665
   D42        3.08225   0.00044   0.00000   0.00813   0.00809   3.09034
   D43       -1.13751  -0.00122   0.00000  -0.01443  -0.01440  -1.15191
   D44       -1.15654   0.00140   0.00000   0.01306   0.01314  -1.14341
   D45        0.96906   0.00156   0.00000   0.02119   0.02122   0.99028
   D46        3.03249  -0.00011   0.00000  -0.00137  -0.00127   3.03122
   D47        3.06232   0.00036   0.00000   0.00195   0.00191   3.06423
   D48       -1.09526   0.00051   0.00000   0.01008   0.00999  -1.08527
   D49        0.96817  -0.00116   0.00000  -0.01248  -0.01250   0.95567
   D50       -0.92192  -0.00084   0.00000   0.00000   0.00001  -0.92192
   D51        1.18232  -0.00121   0.00000  -0.00912  -0.00914   1.17318
   D52       -3.04912  -0.00064   0.00000  -0.00589  -0.00594  -3.05505
   D53       -3.04925  -0.00010   0.00000  -0.00059  -0.00056  -3.04981
   D54       -0.94501  -0.00047   0.00000  -0.00971  -0.00970  -0.95471
   D55        1.10674   0.00011   0.00000  -0.00648  -0.00650   1.10024
   D56        1.17609  -0.00004   0.00000   0.00645   0.00648   1.18258
   D57       -3.00285  -0.00041   0.00000  -0.00266  -0.00266  -3.00551
   D58       -0.95110   0.00016   0.00000   0.00057   0.00054  -0.95056
   D59        0.98657  -0.00020   0.00000  -0.01160  -0.01170   0.97487
   D60        3.09730  -0.00028   0.00000  -0.01339  -0.01358   3.08372
   D61       -1.13219   0.00087   0.00000  -0.00103  -0.00104  -1.13324
   D62       -1.11560  -0.00099   0.00000  -0.01354  -0.01357  -1.12917
   D63        0.99513  -0.00106   0.00000  -0.01533  -0.01544   0.97968
   D64        3.04881   0.00008   0.00000  -0.00297  -0.00291   3.04591
   D65        3.11502  -0.00005   0.00000  -0.00235  -0.00238   3.11265
   D66       -1.05743  -0.00012   0.00000  -0.00414  -0.00425  -1.06168
   D67        0.99626   0.00102   0.00000   0.00822   0.00828   1.00454
   D68       -1.04635  -0.00039   0.00000  -0.00050  -0.00038  -1.04673
   D69       -3.12491   0.00160   0.00000   0.01390   0.01349  -3.11142
   D70        1.08184   0.00310   0.00000   0.02343   0.02321   1.10505
   D71        3.12629  -0.00201   0.00000  -0.01021  -0.00998   3.11631
   D72        1.04772  -0.00002   0.00000   0.00419   0.00389   1.05161
   D73       -1.02871   0.00149   0.00000   0.01373   0.01361  -1.01510
   D74        1.07195  -0.00087   0.00000  -0.00104  -0.00078   1.07117
   D75       -1.00662   0.00112   0.00000   0.01336   0.01309  -0.99352
   D76       -3.08304   0.00263   0.00000   0.02290   0.02281  -3.06023
   D77       -1.17216   0.00177   0.00000   0.00000  -0.00001  -1.17217
   D78        3.06783  -0.00227   0.00000  -0.02226  -0.02192   3.04591
   D79        1.02015  -0.00299   0.00000  -0.03876  -0.03903   0.98112
   D80        0.11668   0.00238   0.00000   0.03438   0.03416   0.15085
   D81       -3.02333   0.00233   0.00000  -0.00924  -0.00897  -3.03230
         Item               Value     Threshold  Converged?
 Maximum Force            0.034295     0.000450     NO 
 RMS     Force            0.006740     0.000300     NO 
 Maximum Displacement     0.270868     0.001800     NO 
 RMS     Displacement     0.058805     0.001200     NO 
 Predicted change in Energy=-1.475991D-02
 GradGradGradGradGradGradGradGradGradGradGradGradGradGradGradGradGradGrad

                          Input orientation:                          
 ---------------------------------------------------------------------
 Center     Atomic      Atomic             Coordinates (Angstroms)
 Number     Number       Type             X           Y           Z
 ---------------------------------------------------------------------
      1          8           0       -3.494723   -1.420740   -0.224732
      2          7           0       -3.138289   -0.241480   -0.079364
      3          8           0       -3.888593    0.726112    0.118409
      4          6           0       -1.690764    0.009294   -0.086814
      5          6           0       -1.310644    1.229120    0.387901
      6          7           0       -0.066294    1.759429    0.342093
      7          6           0        1.198307    1.017729    0.335536
      8          1           0        1.827745    1.525639    1.086610
      9          6           0        1.951333    1.050184   -0.989166
     10          6           0        3.345788    0.445561   -0.789641
     11          6           0        3.265295   -0.962233   -0.187381
     12          6           0        2.421651   -0.983823    1.088257
     13          6           0        1.018989   -0.421287    0.822667
     14          1           0        0.441926   -0.418472    1.761390
     15          7           0        0.384271   -1.318167   -0.138957
     16          6           0       -0.852332   -1.122458   -0.448986
     17          1           0       -2.096121    1.906819    0.715170
     18          1           0        0.030765    2.747890    0.136472
     19          1           0        1.393547    0.480129   -1.740694
     20          1           0        2.029567    2.086153   -1.346621
     21          1           0        3.875139    0.416959   -1.748880
     22          1           0        3.925253    1.096371   -0.119730
     23          1           0        2.810420   -1.642961   -0.915760
     24          1           0        4.272131   -1.339743    0.028313
     25          1           0        2.331486   -2.009032    1.464956
     26          1           0        2.906844   -0.385964    1.871305
     27          1           0       -1.330718   -1.867069   -1.087353
 ---------------------------------------------------------------------
                    Distance matrix (angstroms):
                    1          2          3          4          5
     1  O    0.000000
     2  N    1.240496   0.000000
     3  O    2.209492   1.240284   0.000000
     4  C    2.306141   1.469106   2.320861   0.000000
     5  C    3.488163   2.391922   2.640354   1.363019   0.000000
     6  N    4.710508   3.690313   3.965822   2.426074   1.353414
     7  C    5.318324   4.534735   5.099877   3.089022   2.518385
     8  H    6.223298   5.398491   5.852622   4.007010   3.228870
     9  C    6.029043   5.329202   5.952855   3.893914   3.545254
    10  C    7.113001   6.558946   7.296543   5.104033   4.866511
    11  C    6.775652   6.444923   7.356775   5.051386   5.106094
    12  C    6.076044   5.729515   6.609362   4.390789   4.395184
    13  C    4.740205   4.257811   5.088896   2.890557   2.887915
    14  H    4.521773   4.029596   4.771044   2.854331   2.769934
    15  N    3.881297   3.683915   4.743699   2.463867   3.104672
    16  C    2.668612   2.477568   3.599727   1.454304   2.537785
    17  H    3.729900   2.516463   2.227813   2.099546   1.087821
    18  H    5.471473   4.361860   4.410134   3.242442   2.041876
    19  H    5.459544   4.880397   5.605156   3.531286   3.522010
    20  H    6.638879   5.807801   6.246651   4.443121   3.860062
    21  H    7.746937   7.239406   7.991112   5.823052   5.667255
    22  H    7.836002   7.189235   7.826238   5.720356   5.262122
    23  H    6.346789   6.168537   7.180445   4.865980   5.189562
    24  H    7.771397   7.492136   8.418628   6.114677   6.155951
    25  H    6.094739   5.952109   6.927018   4.760265   4.991070
    26  H    6.814997   6.353709   7.105443   5.012829   4.753545
    27  H    2.371970   2.631709   3.836818   2.156722   3.429747
                    6          7          8          9         10
     6  N    0.000000
     7  C    1.466076   0.000000
     8  H    2.048499   1.103756   0.000000
     9  C    2.519147   1.524118   2.133115   0.000000
    10  C    3.827450   2.490998   2.644115   1.532933   0.000000
    11  C    4.334429   2.909661   3.143105   2.533610   1.533324
    12  C    3.777838   2.463609   2.578784   2.945178   2.534496
    13  C    2.482803   1.529777   2.124682   2.513410   2.960567
    14  H    2.648763   2.160520   2.481006   3.464220   3.960647
    15  N    3.147383   2.518772   3.416558   2.964394   3.507808
    16  C    3.090135   3.066105   4.068573   3.587856   4.494323
    17  H    2.069083   3.433346   3.959797   4.474424   5.832161
    18  H    1.014277   2.096721   2.371876   2.799616   4.140988
    19  H    2.847059   2.153570   3.045533   1.095848   2.171852
    20  H    2.711299   2.159207   2.505100   1.098693   2.175823
    21  H    4.659323   3.445452   3.668923   2.163138   1.095979
    22  H    4.072515   2.765807   2.457452   2.157409   1.099143
    23  H    4.629680   3.353196   3.874941   2.827800   2.159734
    24  H    5.340904   3.885930   3.912215   3.483262   2.171283
    25  H    4.605591   3.423589   3.590376   3.940309   3.483826
    26  H    3.972499   2.692218   2.331186   3.340332   2.822187
    27  H    4.097996   4.091777   5.119812   4.392251   5.225572
                   11         12         13         14         15
    11  C    0.000000
    12  C    1.529527   0.000000
    13  C    2.521648   1.534420   0.000000
    14  H    3.473441   2.166111   1.101912   0.000000
    15  N    2.903332   2.401824   1.460131   2.103353   0.000000
    16  C    4.129039   3.619572   2.368667   2.656400   1.289808
    17  H    6.147425   5.376362   3.890442   3.597671   4.157212
    18  H    4.932755   4.532981   3.389857   3.582634   4.090679
    19  H    2.827831   3.347105   2.742929   3.738670   2.611143
    20  H    3.487624   3.937908   3.466170   4.295752   3.969238
    21  H    2.170797   3.481977   3.933586   4.980651   4.217662
    22  H    2.162862   2.836769   3.411417   4.238741   4.285898
    23  H    1.095827   2.145155   2.779180   3.778395   2.568096
    24  H    1.096702   2.162045   3.472390   4.303808   3.891517
    25  H    2.167488   1.095940   2.157804   2.487607   2.615622
    26  H    2.167662   1.098185   2.159835   2.467581   3.357608
    27  H    4.769907   4.426475   3.355531   3.654591   2.035174
                   16         17         18         19         20
    16  C    0.000000
    17  H    3.475456   0.000000
    18  H    4.012757   2.359224   0.000000
    19  H    3.046435   4.499388   3.244020   0.000000
    20  H    4.405256   4.615674   2.575397   1.771759   0.000000
    21  H    5.138921   6.629266   4.875141   2.482409   2.520745
    22  H    5.277967   6.132767   4.237947   3.068683   2.465473
    23  H    3.728881   6.271764   5.302193   2.682453   3.834275
    24  H    5.151228   7.180987   5.891487   3.837650   4.319294
    25  H    3.819147   5.958168   5.448531   4.165554   4.976612
    26  H    4.478569   5.623447   4.593748   4.010825   4.151630
    27  H    1.091243   4.251724   4.964799   3.654834   5.194872
                   21         22         23         24         25
    21  H    0.000000
    22  H    1.765854   0.000000
    23  H    2.463937   3.062753   0.000000
    24  H    2.530221   2.465135   1.766299   0.000000
    25  H    4.312428   3.833386   2.455849   2.505593   0.000000
    26  H    3.832495   2.683038   3.058932   2.484013   1.769323
    27  H    5.723229   6.110933   4.150746   5.737134   4.466114
                   26         27
    26  H    0.000000
    27  H    5.376268   0.000000
 Symmetry turned off by external request.
 Stoichiometry    C9H13N3O2
 Framework group  C1[X(C9H13N3O2)]
 Deg. of freedom    75
 Full point group                 C1      NOp   1
 Rotational constants (GHZ):           1.6936109           0.4195895           0.3714233
 Standard basis: 6-31G(d) (6D, 7F)
   236 basis functions,   444 primitive gaussians,   236 cartesian basis functions
    52 alpha electrons       52 beta electrons
       nuclear repulsion energy       931.4566959824 Hartrees.
 NAtoms=   27 NActive=   27 NUniq=   27 SFac= 1.00D+00 NAtFMM=   60 NAOKFM=F Big=F
 Integral buffers will be    131072 words long.
 Raffenetti 1 integral format.
 Two-electron integral symmetry is turned off.
 One-electron integrals computed using PRISM.
 NBasis=   236 RedAO= T EigKep=  1.10D-03  NBF=   236
 NBsUse=   236 1.00D-06 EigRej= -1.00D+00 NBFU=   236
 Initial guess from the checkpoint file:  "/home/alexey/tmp/Gau-1559416.chk"
 B after Tr=     0.052446   -0.001229    0.009221
         Rot=    0.999996    0.001548   -0.002170   -0.000362 Ang=   0.31 deg.
 ExpMin= 1.61D-01 ExpMax= 5.48D+03 ExpMxC= 8.25D+02 IAcc=3 IRadAn=         5 AccDes= 0.00D+00
 Harris functional with IExCor=  205 and IRadAn=       5 diagonalized for initial guess.
 HarFok:  IExCor=  205 AccDes= 0.00D+00 IRadAn=         5 IDoV= 1 UseB2=F ITyADJ=14
 ICtDFT=  3500011 ScaDFX=  1.000000  1.000000  1.000000  1.000000
 FoFCou: FMM=F IPFlag=           0 FMFlag=      100000 FMFlg1=           0
         NFxFlg=           0 DoJE=T BraDBF=F KetDBF=T FulRan=T
         wScrn=  0.000000 ICntrl=       500 IOpCl=  0 I1Cent=   200000004 NGrid=           0
         NMat0=    1 NMatS0=      1 NMatT0=    0 NMatD0=    1 NMtDS0=    0 NMtDT0=    0
 Symmetry not used in FoFCou.
 Keep R1 ints in memory in canonical form, NReq=397720213.
 Requested convergence on RMS density matrix=1.00D-08 within 128 cycles.
 Requested convergence on MAX density matrix=1.00D-06.
 Requested convergence on             energy=1.00D-06.
 No special actions if energy rises.
 SCF Done:  E(RHF) =  -661.288531214     A.U. after   15 cycles
            NFock= 15  Conv=0.57D-08     -V/T= 2.0025
 ExpMin= 1.61D-01 ExpMax= 5.48D+03 ExpMxC= 8.25D+02 IAcc=3 IRadAn=         5 AccDes= 0.00D+00
 HarFok:  IExCor=  205 AccDes= 0.00D+00 IRadAn=         5 IDoV=-2 UseB2=F ITyADJ=14
 ICtDFT= 12500011 ScaDFX=  1.000000  1.000000  1.000000  1.000000
 Range of M.O.s used for correlation:    15   236
 NBasis=   236 NAE=    52 NBE=    52 NFC=    14 NFV=     0
 NROrb=    222 NOA=    38 NOB=    38 NVA=   184 NVB=   184
 Fully direct method using O(ONN) memory.
 JobTyp=1 Pass  1:  I=  15 to  52 NPSUse=  4 ParTrn=T ParDer=T DoDerP=T.
 Spin components of T(2) and E(2):
     alpha-alpha T2 =       0.9136681289D-01 E2=     -0.2723734536D+00
     alpha-beta  T2 =       0.4926491356D+00 E2=     -0.1489122797D+01
     beta-beta   T2 =       0.9136681289D-01 E2=     -0.2723734536D+00
 ANorm=    0.1294365776D+01
 E2 =    -0.2033869704D+01 EUMP2 =    -0.66332240091733D+03
          IDoAtm=111111111111111111111111111
          Differentiating once with respect to electric field.
                with respect to dipole field.
          Differentiating once with respect to nuclear coordinates.
 Keep R1 ints in memory in canonical form, NReq=397723379.
          There are     1 degrees of freedom in the 1st order CPHF.  IDoFFX=0 NUNeed=     1.
 LinEq1:  Iter=  0 NonCon=     1 RMS=4.57D-03 Max=9.70D-02 NDo=     1
 AX will form     1 AO Fock derivatives at one time.
 LinEq1:  Iter=  1 NonCon=     1 RMS=1.53D-03 Max=3.03D-02 NDo=     1
 LinEq1:  Iter=  2 NonCon=     1 RMS=6.47D-04 Max=1.58D-02 NDo=     1
 LinEq1:  Iter=  3 NonCon=     1 RMS=2.86D-04 Max=8.45D-03 NDo=     1
 LinEq1:  Iter=  4 NonCon=     1 RMS=9.02D-05 Max=2.27D-03 NDo=     1
 LinEq1:  Iter=  5 NonCon=     1 RMS=3.82D-05 Max=1.91D-03 NDo=     1
[...]
                   16         17         18         19         20
    16  C    0.000000
    17  H    3.464633   0.000000
    18  H    4.100333   2.224921   0.000000
    19  H    2.994544   4.357828   3.606977   0.000000
    20  H    4.387836   4.519283   3.016720   1.768275   0.000000
    21  H    5.094324   6.551229   5.168363   2.499385   2.522956
    22  H    5.255251   6.112631   4.351927   3.070318   2.462850
    23  H    3.682037   6.227109   5.437169   2.705291   3.844462
    24  H    5.127065   7.180687   5.934307   3.850176   4.318621
    25  H    3.818956   6.017306   5.297880   4.173923   4.987570
    26  H    4.500742   5.715912   4.406908   4.035819   4.182660
    27  H    1.089776   4.247674   5.116301   3.601184   5.172800
                   21         22         23         24         25
    21  H    0.000000
    22  H    1.758729   0.000000
    23  H    2.469369   3.062595   0.000000
    24  H    2.516653   2.460101   1.764403   0.000000
    25  H    4.312244   3.840431   2.444251   2.519451   0.000000
    26  H    3.846772   2.705004   3.060457   2.493208   1.768437
    27  H    5.653248   6.066420   4.071015   5.677841   4.436320
                   26         27
    26  H    0.000000
    27  H    5.373808   0.000000
 Symmetry turned off by external request.
 Stoichiometry    C9H13N3O2
 Framework group  C1[X(C9H13N3O2)]
 Deg. of freedom    75
 Full point group                 C1      NOp   1
 Rotational constants (GHZ):           1.6711900           0.4203944           0.3733043

 **********************************************************************

            Population analysis using the SCF Density.

 **********************************************************************

 Alpha  occ. eigenvalues --  -20.59435 -20.59137 -15.84807 -15.63959 -15.56170
 Alpha  occ. eigenvalues --  -11.34946 -11.29658 -11.29580 -11.28805 -11.27236
 Alpha  occ. eigenvalues --  -11.23597 -11.23146 -11.22704 -11.22081  -1.57253
 Alpha  occ. eigenvalues --   -1.36880  -1.30770  -1.23066  -1.14707  -1.09818
 Alpha  occ. eigenvalues --   -1.02750  -1.01224  -0.94484  -0.89748  -0.85387
 Alpha  occ. eigenvalues --   -0.82497  -0.78525  -0.77469  -0.75144  -0.71982
 Alpha  occ. eigenvalues --   -0.69991  -0.69364  -0.67700  -0.64869  -0.63840
 Alpha  occ. eigenvalues --   -0.62107  -0.60371  -0.57616  -0.56925  -0.55095
 Alpha  occ. eigenvalues --   -0.54515  -0.50662  -0.50213  -0.48828  -0.48134
 Alpha  occ. eigenvalues --   -0.47473  -0.46104  -0.46060  -0.43745  -0.41917
 Alpha  occ. eigenvalues --   -0.39621  -0.33948
 Alpha virt. eigenvalues --    0.07129   0.11476   0.17247   0.21794   0.24270
 Alpha virt. eigenvalues --    0.25693   0.26779   0.28598   0.29271   0.29711
 Alpha virt. eigenvalues --    0.30600   0.31879   0.31974   0.32731   0.34128
 Alpha virt. eigenvalues --    0.34452   0.35753   0.37403   0.38678   0.40442
 Alpha virt. eigenvalues --    0.41116   0.42254   0.44743   0.46187   0.46752
 Alpha virt. eigenvalues --    0.47027   0.48854   0.53914   0.57655   0.60236
 Alpha virt. eigenvalues --    0.63771   0.69837   0.69968   0.72743   0.74279
 Alpha virt. eigenvalues --    0.74796   0.75753   0.76406   0.78471   0.79679
 Alpha virt. eigenvalues --    0.81440   0.84129   0.85618   0.86192   0.88665
 Alpha virt. eigenvalues --    0.89715   0.90941   0.91507   0.92807   0.94394
 Alpha virt. eigenvalues --    0.95296   0.97741   1.00113   1.02046   1.02260
 Alpha virt. eigenvalues --    1.03170   1.05701   1.06630   1.07937   1.09236
 Alpha virt. eigenvalues --    1.10075   1.10404   1.11980   1.12177   1.13756
 Alpha virt. eigenvalues --    1.14102   1.15123   1.15284   1.17077   1.18787
 Alpha virt. eigenvalues --    1.19309   1.21294   1.21768   1.22852   1.24266
 Alpha virt. eigenvalues --    1.25289   1.26391   1.27150   1.28303   1.29539
 Alpha virt. eigenvalues --    1.30077   1.33309   1.34082   1.36482   1.40566
 Alpha virt. eigenvalues --    1.42455   1.47183   1.48853   1.51353   1.53631
 Alpha virt. eigenvalues --    1.56196   1.58719   1.60406   1.62904   1.65922
 Alpha virt. eigenvalues --    1.67045   1.67812   1.72617   1.75040   1.78179
 Alpha virt. eigenvalues --    1.81038   1.84204   1.88176   1.90219   1.92711
 Alpha virt. eigenvalues --    1.94079   1.95803   1.99583   2.00454   2.02853
 Alpha virt. eigenvalues --    2.04530   2.06650   2.08694   2.09134   2.11412
 Alpha virt. eigenvalues --    2.12947   2.15856   2.16943   2.20240   2.21919
 Alpha virt. eigenvalues --    2.23264   2.24022   2.24995   2.28377   2.29417
 Alpha virt. eigenvalues --    2.31666   2.34140   2.35613   2.37122   2.37832
 Alpha virt. eigenvalues --    2.39507   2.41821   2.44200   2.44326   2.48170
 Alpha virt. eigenvalues --    2.50365   2.51970   2.55350   2.56277   2.60574
 Alpha virt. eigenvalues --    2.62491   2.65986   2.67508   2.68793   2.70544
 Alpha virt. eigenvalues --    2.72847   2.73090   2.77809   2.78585   2.83055
 Alpha virt. eigenvalues --    2.87448   2.88107   2.92725   2.93213   2.96134
 Alpha virt. eigenvalues --    2.99478   3.01364   3.03943   3.05443   3.07686
 Alpha virt. eigenvalues --    3.09569   3.14314   3.21535   3.23682   3.27252
 Alpha virt. eigenvalues --    3.31038   3.36438   3.38574   3.51613   3.65123
 Alpha virt. eigenvalues --    4.11567   4.25966   4.32628   4.37831   4.45499
 Alpha virt. eigenvalues --    4.55378   4.61448   4.61753   4.73973   4.78469
 Alpha virt. eigenvalues --    4.99184   5.00900   5.05228   5.10313
          Condensed to atoms (all electrons):
               1          2          3          4          5          6
     1  O    8.314409   0.305356  -0.081930  -0.083379   0.003780  -0.000020
     2  N    0.305356   5.735792   0.297546   0.256541  -0.050310   0.001098
     3  O   -0.081930   0.297546   8.347935  -0.089192   0.001684   0.000613
     4  C   -0.083379   0.256541  -0.089192   5.207354   0.558271  -0.057852
     5  C    0.003780  -0.050310   0.001684   0.558271   4.738194   0.326963
     6  N   -0.000020   0.001098   0.000613  -0.057852   0.326963   7.160227
     7  C    0.000004  -0.000157  -0.000003   0.002554  -0.033531   0.177336
     8  H   -0.000000   0.000003  -0.000000  -0.000118   0.002246  -0.048920
     9  C   -0.000000  -0.000005   0.000000   0.000991   0.001367  -0.060298
    10  C    0.000000   0.000000  -0.000000  -0.000033  -0.000076   0.003581
    11  C   -0.000000  -0.000000  -0.000000  -0.000039   0.000028  -0.000211
    12  C   -0.000000   0.000002  -0.000000  -0.000127  -0.000147   0.004240
    13  C   -0.000020  -0.000029  -0.000002  -0.011424  -0.000816  -0.049525
    14  H   -0.000005  -0.000056   0.000001   0.002669   0.007327  -0.007127
    15  N    0.000396   0.002539  -0.000020  -0.059469  -0.009403   0.001803
    16  C    0.002308  -0.030182   0.002648   0.336940  -0.051615  -0.000138
    17  H    0.000240  -0.006840   0.016973  -0.025037   0.376097  -0.032849
    18  H    0.000001  -0.000056   0.000011   0.002218  -0.031607   0.338027
    19  H    0.000000   0.000000   0.000000  -0.000849   0.000698  -0.000337
    20  H    0.000000  -0.000000   0.000000  -0.000123   0.000195  -0.000357
    21  H   -0.000000   0.000000   0.000000   0.000001   0.000001  -0.000071
    22  H   -0.000000   0.000000  -0.000000   0.000000  -0.000004  -0.000115
    23  H    0.000000  -0.000000   0.000000   0.000039   0.000001  -0.000031
    24  H    0.000000   0.000000   0.000000   0.000000  -0.000000   0.000005
    25  H    0.000000  -0.000000   0.000000   0.000029  -0.000003  -0.000095
    26  H    0.000000  -0.000000   0.000000   0.000004  -0.000001  -0.000051
    27  H    0.005116  -0.000749  -0.000014  -0.061971   0.002705   0.000015
               7          8          9         10         11         12
     1  O    0.000004  -0.000000  -0.000000   0.000000  -0.000000  -0.000000
     2  N   -0.000157   0.000003  -0.000005   0.000000  -0.000000   0.000002
     3  O   -0.000003  -0.000000   0.000000  -0.000000  -0.000000  -0.000000
     4  C    0.002554  -0.000118   0.000991  -0.000033  -0.000039  -0.000127
     5  C   -0.033531   0.002246   0.001367  -0.000076   0.000028  -0.000147
     6  N    0.177336  -0.048920  -0.060298   0.003581  -0.000211   0.004240
     7  C    5.033085   0.417208   0.346194  -0.055026  -0.008843  -0.062443
     8  H    0.417208   0.537970  -0.053357   0.000458  -0.000313  -0.002194
     9  C    0.346194  -0.053357   5.153561   0.325112  -0.050350  -0.004953
    10  C   -0.055026   0.000458   0.325112   5.121302   0.336562  -0.061025
    11  C   -0.008843  -0.000313  -0.050350   0.336562   5.120649   0.336342
    12  C   -0.062443  -0.002194  -0.004953  -0.061025   0.336342   5.121482
    13  C    0.339337  -0.037951  -0.060740  -0.000158  -0.050688   0.371486
    14  H   -0.047945  -0.000565   0.004427  -0.000392   0.004184  -0.036370
    15  N   -0.059746   0.003928  -0.014152   0.001623  -0.013609  -0.083662
    16  C   -0.000475  -0.000135  -0.000789  -0.000057   0.000062   0.002304
    17  H    0.001760  -0.000080  -0.000057   0.000001   0.000000   0.000001
    18  H   -0.023399  -0.005021   0.002037  -0.000092   0.000003  -0.000129
    19  H   -0.036860   0.004337   0.391348  -0.032726  -0.002201   0.000689
    20  H   -0.041038  -0.001934   0.399367  -0.035242   0.003892  -0.000421
    21  H    0.004618  -0.000070  -0.036420   0.402643  -0.034900   0.004338
    22  H   -0.004918   0.003578  -0.046779   0.397448  -0.045478  -0.001019
    23  H    0.000624   0.000040  -0.001964  -0.038995   0.399167  -0.038046
    24  H   -0.000129  -0.000103   0.004350  -0.038284   0.402271  -0.038658
    25  H    0.005127  -0.000023  -0.000441   0.004183  -0.033251   0.397712
    26  H   -0.003883   0.001689   0.000955  -0.002237  -0.041386   0.396262
    27  H   -0.000381   0.000008  -0.000044   0.000005   0.000014  -0.000034
              13         14         15         16         17         18
     1  O   -0.000020  -0.000005   0.000396   0.002308   0.000240   0.000001
     2  N   -0.000029  -0.000056   0.002539  -0.030182  -0.006840  -0.000056
     3  O   -0.000002   0.000001  -0.000020   0.002648   0.016973   0.000011
     4  C   -0.011424   0.002669  -0.059469   0.336940  -0.025037   0.002218
     5  C   -0.000816   0.007327  -0.009403  -0.051615   0.376097  -0.031607
     6  N   -0.049525  -0.007127   0.001803  -0.000138  -0.032849   0.338027
     7  C    0.339337  -0.047945  -0.059746  -0.000475   0.001760  -0.023399
     8  H   -0.037951  -0.000565   0.003928  -0.000135  -0.000080  -0.005021
     9  C   -0.060740   0.004427  -0.014152  -0.000789  -0.000057   0.002037
    10  C   -0.000158  -0.000392   0.001623  -0.000057   0.000001  -0.000092
    11  C   -0.050688   0.004184  -0.013609   0.000062   0.000000   0.000003
    12  C    0.371486  -0.036370  -0.083662   0.002304   0.000001  -0.000129
    13  C    5.041804   0.402670   0.247109  -0.068068   0.000023   0.002700
    14  H    0.402670   0.533575  -0.037383  -0.005700   0.000048  -0.000083
    15  N    0.247109  -0.037383   6.970662   0.580148  -0.000098  -0.000111
    16  C   -0.068068  -0.005700   0.580148   4.703682   0.001752  -0.000149
    17  H    0.000023   0.000048  -0.000098   0.001752   0.378069  -0.003196
    18  H    0.002700  -0.000083  -0.000111  -0.000149  -0.003196   0.317908
    19  H   -0.007761   0.000115   0.007817   0.002334   0.000006  -0.000135
    20  H    0.004282  -0.000067   0.000142  -0.000031   0.000003   0.000341
    21  H   -0.000422   0.000010  -0.000039   0.000004  -0.000000   0.000002
    22  H    0.000026  -0.000055   0.000023  -0.000002   0.000000  -0.000000
    23  H   -0.007722   0.000001   0.008732   0.000159   0.000000   0.000000
    24  H    0.004711  -0.000058   0.000131   0.000006   0.000000  -0.000000
    25  H   -0.035275  -0.002791   0.000617  -0.000020  -0.000000   0.000002
    26  H   -0.047530  -0.001029   0.004985  -0.000045   0.000000   0.000001
    27  H    0.004957  -0.000170  -0.041054   0.403247  -0.000079   0.000001
              19         20         21         22         23         24
     1  O    0.000000   0.000000  -0.000000  -0.000000   0.000000   0.000000
     2  N    0.000000  -0.000000   0.000000   0.000000  -0.000000   0.000000
     3  O    0.000000   0.000000   0.000000  -0.000000   0.000000   0.000000
     4  C   -0.000849  -0.000123   0.000001   0.000000   0.000039   0.000000
     5  C    0.000698   0.000195   0.000001  -0.000004   0.000001  -0.000000
     6  N   -0.000337  -0.000357  -0.000071  -0.000115  -0.000031   0.000005
     7  C   -0.036860  -0.041038   0.004618  -0.004918   0.000624  -0.000129
     8  H    0.004337  -0.001934  -0.000070   0.003578   0.000040  -0.000103
     9  C    0.391348   0.399367  -0.036420  -0.046779  -0.001964   0.004350
    10  C   -0.032726  -0.035242   0.402643   0.397448  -0.038995  -0.038284
    11  C   -0.002201   0.003892  -0.034900  -0.045478   0.399167   0.402271
    12  C    0.000689  -0.000421   0.004338  -0.001019  -0.038046  -0.038658
    13  C   -0.007761   0.004282  -0.000422   0.000026  -0.007722   0.004711
    14  H    0.000115  -0.000067   0.000010  -0.000055   0.000001  -0.000058
    15  N    0.007817   0.000142  -0.000039   0.000023   0.008732   0.000131
    16  C    0.002334  -0.000031   0.000004  -0.000002   0.000159   0.000006
    17  H    0.000006   0.000003  -0.000000   0.000000   0.000000   0.000000
    18  H   -0.000135   0.000341   0.000002  -0.000000   0.000000  -0.000000
    19  H    0.504763  -0.024177  -0.002752   0.003959   0.001528  -0.000068
    20  H   -0.024177   0.534996  -0.002646  -0.002969  -0.000046  -0.000081
    21  H   -0.002752  -0.002646   0.523629  -0.027382  -0.002911  -0.002242
    22  H    0.003959  -0.002969  -0.027382   0.571890   0.004140  -0.003649
    23  H    0.001528  -0.000046  -0.002911   0.004140   0.499019  -0.025444
    24  H   -0.000068  -0.000081  -0.002242  -0.003649  -0.025444   0.537978
    25  H   -0.000027   0.000012  -0.000087  -0.000081  -0.002297  -0.002286
    26  H    0.000019  -0.000030  -0.000082   0.002377   0.004078  -0.003018
    27  H    0.000058   0.000000  -0.000000   0.000000  -0.000036  -0.000000
              25         26         27
     1  O    0.000000   0.000000   0.005116
     2  N   -0.000000  -0.000000  -0.000749
     3  O    0.000000   0.000000  -0.000014
     4  C    0.000029   0.000004  -0.061971
     5  C   -0.000003  -0.000001   0.002705
     6  N   -0.000095  -0.000051   0.000015
     7  C    0.005127  -0.003883  -0.000381
     8  H   -0.000023   0.001689   0.000008
     9  C   -0.000441   0.000955  -0.000044
    10  C    0.004183  -0.002237   0.000005
    11  C   -0.033251  -0.041386   0.000014
    12  C    0.397712   0.396262  -0.000034
    13  C   -0.035275  -0.047530   0.004957
    14  H   -0.002791  -0.001029  -0.000170
    15  N    0.000617   0.004985  -0.041054
    16  C   -0.000020  -0.000045   0.403247
    17  H   -0.000000   0.000000  -0.000079
    18  H    0.000002   0.000001   0.000001
    19  H   -0.000027   0.000019   0.000058
    20  H    0.000012  -0.000030   0.000000
    21  H   -0.000087  -0.000082  -0.000000
    22  H   -0.000081   0.002377   0.000000
    23  H   -0.002297   0.004078  -0.000036
    24  H   -0.002286  -0.003018  -0.000000
    25  H    0.506040  -0.024108  -0.000015
    26  H   -0.024108   0.563578   0.000001
    27  H   -0.000015   0.000001   0.442928
 Mulliken charges:
               1
     1  O   -0.466257
     2  N    0.489507
     3  O   -0.496250
     4  C    0.021999
     5  C    0.157956
     6  N   -0.755913
     7  C    0.050929
     8  H    0.179318
     9  C   -0.299360
    10  C   -0.328575
    11  C   -0.321905
    12  C   -0.305629
    13  C   -0.040974
    14  H    0.184769
    15  N   -0.511907
    16  C    0.121813
    17  H    0.293263
    18  H    0.400726
    19  H    0.190223
    20  H    0.165931
    21  H    0.174777
    22  H    0.149008
    23  H    0.199963
    24  H    0.164569
    25  H    0.187077
    26  H    0.149449
    27  H    0.245493
 Sum of Mulliken charges =  -0.00000
 Mulliken charges with hydrogens summed into heavy atoms:
               1
     1  O   -0.466257
     2  N    0.489507
     3  O   -0.496250
     4  C    0.021999
     5  C    0.451219
     6  N   -0.355187
     7  C    0.230248
     9  C    0.056794
    10  C   -0.004790
    11  C    0.042627
    12  C    0.030897
    13  C    0.143795
    15  N   -0.511907
    16  C    0.367306
 Electronic spatial extent (au):  <R**2>=           2999.8464
 Charge=             -0.0000 electrons
 Dipole moment (field-independent basis, Debye):
    X=              5.2978    Y=              4.4938    Z=              1.8674  Tot=              7.1936
 Quadrupole moment (field-independent basis, Debye-Ang):
   XX=           -105.6050   YY=            -80.2832   ZZ=            -80.8202
   XY=             -1.3076   XZ=             -1.3501   YZ=              3.5580
 Traceless Quadrupole moment (field-independent basis, Debye-Ang):
   XX=            -16.7022   YY=              8.6196   ZZ=              8.0826
   XY=             -1.3076   XZ=             -1.3501   YZ=              3.5580
 Octapole moment (field-independent basis, Debye-Ang**2):
  XXX=             89.1630  YYY=             31.1780  ZZZ=              2.9575  XYY=             -3.8371
  XXY=              8.2880  XXZ=              9.5578  XZZ=            -10.6105  YZZ=              0.4273
  YYZ=             11.4903  XYZ=             -2.1472
 Hexadecapole moment (field-independent basis, Debye-Ang**3):
 XXXX=          -3358.9088 YYYY=           -611.3360 ZZZZ=           -308.0298 XXXY=            -15.6314
 XXXZ=            -39.4832 YYYX=             -3.4918 YYYZ=             33.2369 ZZZX=            -11.0683
 ZZZY=             10.2949 XXYY=           -627.9983 XXZZ=           -521.0785 YYZZ=           -154.5599
 XXYZ=              3.4775 YYXZ=             -4.1343 ZZXY=              5.2943
 N-N= 9.312733235806D+02 E-N=-3.409241110762D+03  KE= 6.596238710454D+02
 Unable to Open any file for archive entry.
 1\1\GINC-LOTUS\FOpt\RMP2-FC\6-31G(d)\C9H13N3O2\ALEXEY\02-Jul-2023\0\\#
 MP2/6-31G* SCF=Tight Opt=(ModRedun, MaxCycle=20 ) NoSymm\\MolName:\\0,
 1\O,-3.5099508779,-1.3849269445,-0.3318351265\N,-3.1131434338,-0.21178
 29952,-0.1912134877\O,-3.8747430646,0.7728018249,-0.1289727344\C,-1.67
 49575619,-0.0035106812,-0.1060722212\C,-1.2938242134,1.2326710964,0.34
 75689826\N,-0.0567270743,1.7656980775,0.3664966393\C,1.2114196647,1.03
 84646293,0.3448192939\H,1.8636916452,1.5739384286,1.0503627539\C,1.906
 3547608,1.0296872242,-1.0141566201\C,3.3028381123,0.4186732149,-0.8479
 41512\C,3.2525802384,-0.9690645756,-0.2028410142\C,2.4637167526,-0.960
 7523805,1.1086101873\C,1.0548114215,-0.4061921707,0.8665762841\H,0.476
 6641124,-0.3694691604,1.8037146156\N,0.4074846907,-1.3156919808,-0.070
 5706551\C,-0.8406273931,-1.1540833878,-0.3774889333\H,-2.0942920594,1.
 9363449139,0.5612659343\H,-0.0129115648,2.6934447459,0.7732244179\H,1.
 3063039721,0.444911392,-1.7195760274\H,1.9731554612,2.0521374242,-1.40
 50466381\H,3.8023163903,0.3652564144,-1.8220697511\H,3.9085003665,1.09
 0853835,-0.2235199217\H,2.7688260865,-1.6732526566,-0.8871045889\H,4.2
 71213411,-1.3343500578,-0.0262366261\H,2.3777202103,-1.9771884124,1.50
 64327106\H,2.9779668374,-0.3530703212,1.8660344297\H,-1.2924068907,-1.
 9375874966,-0.9854603918\\Version=ES64L-G16RevC.02\HF=-661.2959324\MP2
 =-663.3318449\RMSD=5.698e-09\RMSF=2.885e-03\Dipole=1.9349576,1.5909528
 ,0.64408\PG=C01 [X(C9H13N3O2)]\\@
 The archive entry for this job was punched.


 ... THE UNIVERSE IS NOT ONLY QUEERER THAN WE SUPPOSE,
 BUT QUEERER THAN WE CAN SUPPOSE ... 

                                   -- J. B. S. HALDANE
 Job cpu time:       0 days  1 hours 12 minutes 51.3 seconds.
 Elapsed time:       0 days  0 hours 21 minutes 57.5 seconds.
 File lengths (MBytes):  RWF=     36 Int=      0 D2E=      0 Chk=      7 Scr=      1
 Normal termination of Gaussian 16 at Sun Jul  2 18:44:58 2023.
