 Entering Gaussian System, Link 0=g16
 Initial command:
 /home/alexey/programs//g16/l1.exe "/home/alexey/tmp/Gau-1261383.inp" -scrdir="/home/alexey/tmp/"
 Entering Link 1 = /home/alexey/programs//g16/l1.exe PID=   1261385.
  
 Copyright (c) 1988-2021, Gaussian, Inc.  All Rights Reserved.
  
 This is part of the Gaussian(R) 16 program.  It is based on
 the Gaussian(R) 09 system (copyright 2009, Gaussian, Inc.),
 the Gaussian(R) 03 system (copyright 2003, Gaussian, Inc.),
 the Gaussian(R) 98 system (copyright 1998, Gaussian, Inc.),
 the Gaussian(R) 94 system (copyright 1995, Gaussian, Inc.),
 the Gaussian 92(TM) system (copyright 1992, Gaussian, Inc.),
 the Gaussian 90(TM) system (copyright 1990, Gaussian, Inc.),
 the Gaussian 88(TM) system (copyright 1988, Gaussian, Inc.),
 the Gaussian 86(TM) system (copyright 1986, Carnegie Mellon
 University), and the Gaussian 82(TM) system (copyright 1983,
 Carnegie Mellon University). Gaussian is a federally registered
 trademark of Gaussian, Inc.
  
 This software contains proprietary and confidential information,
 including trade secrets, belonging to Gaussian, Inc.
  
 This software is provided under written license and may be
 used, copied, transmitted, or stored only in accord with that
 written license.
  
 The following legend is applicable only to US Government
 contracts under FAR:
  
                    RESTRICTED RIGHTS LEGEND
  
 Use, reproduction and disclosure by the US Government is
 subject to restrictions as set forth in subparagraphs (a)
 and (c) of the Commercial Computer Software - Restricted
 Rights clause in FAR 52.227-19.
  
 Gaussian, Inc.
 340 Quinnipiac St., Bldg. 40, Wallingford CT 06492
  
  
 ---------------------------------------------------------------
 Warning -- This program may not be used in any manner that
 competes with the business of Gaussian, Inc. or will provide
 assistance to any competitor of Gaussian, Inc.  The licensee
 of this program is prohibited from giving any competitor of
 Gaussian, Inc. access to this program.  By using this program,
 the user acknowledges that Gaussian, Inc. is engaged in the
 business of creating and licensing software in the field of
 computational chemistry and represents and warrants to the
 licensee that it is not a competitor of Gaussian, Inc. and that
 it will not use this program in any manner prohibited above.
 ---------------------------------------------------------------
  

 Cite this work as:
 Gaussian 16, Revision C.02,
 M. J. Frisch, G. W. Trucks, H. B. Schlegel, G. E. Scuseria, 
 M. A. Robb, J. R. Cheeseman, G. Scalmani, V. Barone, 
 G. A. Petersson, H. Nakatsuji, X. Li, M. Caricato, A. V. Marenich, 
 J. Bloino, B. G. Janesko, R. Gomperts, B. Mennucci, H. P. Hratchian, 
 J. V. Ortiz, A. F. Izmaylov, J. L. Sonnenberg, D. Williams-Young, 
 F. Ding, F. Lipparini, F. Egidi, J. Goings, B. Peng, A. Petrone, 
 T. Henderson, D. Ranasinghe, V. G. Zakrzewski, J. Gao, N. Rega, 
 G. Zheng, W. Liang, M. Hada, M. Ehara, K. Toyota, R. Fukuda, 
 J. Hasegawa, M. Ishida, T. Nakajima, Y. Honda, O. Kitao, H. Nakai, 
 T. Vreven, K. Throssell, J. A. Montgomery, Jr., J. E. Peralta, 
 F. Ogliaro, M. J. Bearpark, J. J. Heyd, E. N. Brothers, K. N. Kudin, 
 V. N. Staroverov, T. A. Keith, R. Kobayashi, J. Normand, 
 K. Raghavachari, A. P. Rendell, J. C. Burant, S. S. Iyengar, 
 J. Tomasi, M. Cossi, J. M. Millam, M. Klene, C. Adamo, R. Cammi, 
 J. W. Ochterski, R. L. Martin, K. Morokuma, O. Farkas, 
 J. B. Foresman, and D. J. Fox, Gaussian, Inc., Wallingford CT, 2019.
 
 ******************************************
 Gaussian 16:  ES64L-G16RevC.02  7-Dec-2021
                 1-Jul-2023 
 ******************************************
 %mem=8GB
 %NPROCS=4
 Will use up to    4 processors via shared memory.
 %NoSave
 ---------------------------------------------------------
 #MP2/6-31G* SCF=Tight Opt=(ModRedun, MaxCycle=20 ) NoSymm
 ---------------------------------------------------------
 1/6=20,18=120,19=15,38=1/1,3;
 2/9=110,12=2,15=1,17=6,18=5,40=1/2;
 3/5=1,6=6,7=1,11=9,25=1,30=1,71=1/1,2,3;
 4//1;
 5/5=2,32=2,38=5/2;
 8/6=4,10=2/1;
 9/15=2,16=-3/6;
 10/5=1,31=1/2;
 6/7=2,8=2,9=2,10=2/1;
 7/12=2,30=1/1,2,3,16;
 1/6=20,18=20,19=15/3(2);
 2/9=110,15=1/2;
 99//99;
 2/9=110,15=1/2;
 3/5=1,6=6,7=1,11=9,25=1,30=1,71=1/1,2,3;
 4/5=5,16=3,69=1/1;
 5/5=2,32=2,38=5/2;
 8/6=4,10=2/1;
 9/15=2,16=-3/6;
 10/5=1,31=1/2;
 7/12=2,30=1/1,2,3,16;
 1/6=20,18=20,19=15/3(-8);
 2/9=110,15=1/2;
 6/7=2,8=2,9=2,10=2/1;
 99/9=10/99;
 --------
 MolName:
 --------
 Symbolic Z-matrix:
 Charge =  0 Multiplicity = 1
 8                    0    -3.62438  -1.42973  -0.0936 
 7                    0    -3.24744  -0.26324   0.00478 
 8                    0    -4.00981   0.68919   0.17379 
 6                    0    -1.74475   0.00283  -0.04839 
 6                    0    -1.34056   1.33759   0.06008 
 7                    0    -0.09378   1.73949   0.45954 
 6                    0     1.19087   0.98109   0.39787 
 1                    0     1.86191   1.46946   1.15134 
 6                    0     1.93687   1.05977  -0.95745 
 6                    0     3.35508   0.48012  -0.79576 
 6                    0     3.30998  -0.94581  -0.22388 
 6                    0     2.47853  -1.00619   1.07569 
 6                    0     1.03494  -0.4775    0.85381 
 1                    0     0.49687  -0.5333    1.82921 
 7                    0     0.37183  -1.34269  -0.12586 
 6                    0    -0.87601  -1.14983  -0.40396 
 1                    0    -2.11017   2.12549   0.02938 
 1                    0     0.149     2.73287   0.48165 
 1                    0     1.38105   0.4913   -1.73321 
 1                    0     2.00991   2.11603  -1.29305 
 1                    0     3.87713   0.47556  -1.7776 
 1                    0     3.93686   1.12657  -0.10134 
 1                    0     2.85765  -1.62572  -0.98076 
 1                    0     4.343    -1.30621  -0.02594 
 1                    0     2.43237  -2.0586    1.43212 
 1                    0     2.97783  -0.40386   1.86327 
 1                    0    -1.39377  -1.92168  -0.99371 
 
 The following ModRedundant input section has been read:
 D      16       4       5       6 F                                           
 D       1       2       4      16 F                                           
 D       7      13      15      16 F                                           
 D       7       9      10      11 F                                           
 D       9      10      11      12 F                                           
 D       6       7      13      15 F                                           
 

 GradGradGradGradGradGradGradGradGradGradGradGradGradGradGradGradGradGrad
 Berny optimization.
 Initialization pass.
                           ----------------------------
                           !    Initial Parameters    !
                           ! (Angstroms and Degrees)  !
 --------------------------                            --------------------------
 ! Name  Definition              Value          Derivative Info.                !
 --------------------------------------------------------------------------------
 ! R1    R(1,2)                  1.2298         estimate D2E/DX2                !
 ! R2    R(2,3)                  1.2316         estimate D2E/DX2                !
 ! R3    R(2,4)                  1.527          estimate D2E/DX2                !
 ! R4    R(4,5)                  1.3988         estimate D2E/DX2                !
 ! R5    R(4,16)                 1.4865         estimate D2E/DX2                !
 ! R6    R(5,6)                  1.3695         estimate D2E/DX2                !
 ! R7    R(5,17)                 1.1018         estimate D2E/DX2                !
 ! R8    R(6,7)                  1.4931         estimate D2E/DX2                !
 ! R9    R(6,18)                 1.0229         estimate D2E/DX2                !
 ! R10   R(7,8)                  1.1209         estimate D2E/DX2                !
 ! R11   R(7,9)                  1.5491         estimate D2E/DX2                !
 ! R12   R(7,13)                 1.5361         estimate D2E/DX2                !
 ! R13   R(9,10)                 1.5406         estimate D2E/DX2                !
 ! R14   R(9,19)                 1.1108         estimate D2E/DX2                !
 ! R15   R(9,20)                 1.1107         estimate D2E/DX2                !
 ! R16   R(10,11)                1.537          estimate D2E/DX2                !
 ! R17   R(10,21)                1.112          estimate D2E/DX2                !
 ! R18   R(10,22)                1.1129         estimate D2E/DX2                !
 ! R19   R(11,12)                1.544          estimate D2E/DX2                !
 ! R20   R(11,23)                1.1134         estimate D2E/DX2                !
 ! R21   R(11,24)                1.1118         estimate D2E/DX2                !
 ! R22   R(12,13)                1.5533         estimate D2E/DX2                !
 ! R23   R(12,25)                1.1121         estimate D2E/DX2                !
 ! R24   R(12,26)                1.1101         estimate D2E/DX2                !
 ! R25   R(13,14)                1.1154         estimate D2E/DX2                !
 ! R26   R(13,15)                1.4656         estimate D2E/DX2                !
 ! R27   R(15,16)                1.2929         estimate D2E/DX2                !
 ! R28   R(16,27)                1.1007         estimate D2E/DX2                !
 ! A1    A(1,2,3)              123.6932         estimate D2E/DX2                !
 ! A2    A(1,2,4)              117.6525         estimate D2E/DX2                !
 ! A3    A(3,2,4)              118.6317         estimate D2E/DX2                !
 ! A4    A(2,4,5)              116.61           estimate D2E/DX2                !
 ! A5    A(2,4,16)             116.6364         estimate D2E/DX2                !
 ! A6    A(5,4,16)             126.1268         estimate D2E/DX2                !
 ! A7    A(4,5,6)              124.4506         estimate D2E/DX2                !
 ! A8    A(4,5,17)             118.5774         estimate D2E/DX2                !
 ! A9    A(6,5,17)             115.7322         estimate D2E/DX2                !
 ! A10   A(5,6,7)              128.476          estimate D2E/DX2                !
 ! A11   A(5,6,18)             120.4905         estimate D2E/DX2                !
 ! A12   A(7,6,18)             106.8566         estimate D2E/DX2                !
 ! A13   A(6,7,8)              105.4268         estimate D2E/DX2                !
 ! A14   A(6,7,9)              115.1311         estimate D2E/DX2                !
 ! A15   A(6,7,13)             112.5014         estimate D2E/DX2                !
 ! A16   A(8,7,9)              106.1219         estimate D2E/DX2                !
 ! A17   A(8,7,13)             105.9587         estimate D2E/DX2                !
 ! A18   A(9,7,13)             110.9039         estimate D2E/DX2                !
 ! A19   A(7,9,10)             109.4136         estimate D2E/DX2                !
 ! A20   A(7,9,19)             110.1246         estimate D2E/DX2                !
 ! A21   A(7,9,20)             110.1411         estimate D2E/DX2                !
 ! A22   A(10,9,19)            109.9602         estimate D2E/DX2                !
 ! A23   A(10,9,20)            109.2071         estimate D2E/DX2                !
 ! A24   A(19,9,20)            107.973          estimate D2E/DX2                !
 ! A25   A(9,10,11)            111.1677         estimate D2E/DX2                !
 ! A26   A(9,10,21)            109.9405         estimate D2E/DX2                !
 ! A27   A(9,10,22)            109.1572         estimate D2E/DX2                !
 ! A28   A(11,10,21)           109.7851         estimate D2E/DX2                !
 ! A29   A(11,10,22)           108.7878         estimate D2E/DX2                !
 ! A30   A(21,10,22)           107.9322         estimate D2E/DX2                !
 ! A31   A(10,11,12)           111.4237         estimate D2E/DX2                !
 ! A32   A(10,11,23)           108.9964         estimate D2E/DX2                !
 ! A33   A(10,11,24)           109.8586         estimate D2E/DX2                !
 ! A34   A(12,11,23)           109.2394         estimate D2E/DX2                !
 ! A35   A(12,11,24)           109.7437         estimate D2E/DX2                !
 ! A36   A(23,11,24)           107.4892         estimate D2E/DX2                !
 ! A37   A(11,12,13)           111.527          estimate D2E/DX2                !
 ! A38   A(11,12,25)           109.2161         estimate D2E/DX2                !
 ! A39   A(11,12,26)           109.495          estimate D2E/DX2                !
 ! A40   A(13,12,25)           109.2269         estimate D2E/DX2                !
 ! A41   A(13,12,26)           109.5525         estimate D2E/DX2                !
 ! A42   A(25,12,26)           107.743          estimate D2E/DX2                !
 ! A43   A(7,13,12)            105.7385         estimate D2E/DX2                !
 ! A44   A(7,13,14)            110.8571         estimate D2E/DX2                !
 ! A45   A(7,13,15)            114.0828         estimate D2E/DX2                !
 ! A46   A(12,13,14)           107.8423         estimate D2E/DX2                !
 ! A47   A(12,13,15)           108.3637         estimate D2E/DX2                !
 ! A48   A(14,13,15)           109.6794         estimate D2E/DX2                !
 ! A49   A(13,15,16)           119.4979         estimate D2E/DX2                !
 ! A50   A(4,16,15)            128.921          estimate D2E/DX2                !
 ! A51   A(4,16,27)            113.3898         estimate D2E/DX2                !
 ! A52   A(15,16,27)           117.6856         estimate D2E/DX2                !
 ! D1    D(1,2,4,5)            179.7474         estimate D2E/DX2                !
 ! D2    D(1,2,4,16)             8.2584         Frozen                          !
 ! D3    D(3,2,4,5)             -1.9152         estimate D2E/DX2                !
 ! D4    D(3,2,4,16)          -173.4042         estimate D2E/DX2                !
 ! D5    D(2,4,5,6)            157.9812         estimate D2E/DX2                !
 ! D6    D(2,4,5,17)            -8.7299         estimate D2E/DX2                !
 ! D7    D(16,4,5,6)           -31.4454         Frozen                          !
 ! D8    D(16,4,5,17)          161.8434         estimate D2E/DX2                !
 ! D9    D(2,4,16,15)         -155.8617         estimate D2E/DX2                !
 ! D10   D(2,4,16,27)           24.8601         estimate D2E/DX2                !
 ! D11   D(5,4,16,15)           33.5672         estimate D2E/DX2                !
 ! D12   D(5,4,16,27)         -145.711          estimate D2E/DX2                !
 ! D13   D(4,5,6,7)             23.6743         estimate D2E/DX2                !
 ! D14   D(4,5,6,18)           177.5462         estimate D2E/DX2                !
 ! D15   D(17,5,6,7)          -169.2743         estimate D2E/DX2                !
 ! D16   D(17,5,6,18)          -15.4025         estimate D2E/DX2                !
 ! D17   D(5,6,7,8)           -158.7603         estimate D2E/DX2                !
 ! D18   D(5,6,7,9)             84.6482         estimate D2E/DX2                !
 ! D19   D(5,6,7,13)           -43.7341         estimate D2E/DX2                !
 ! D20   D(18,6,7,8)            44.6004         estimate D2E/DX2                !
 ! D21   D(18,6,7,9)           -71.9911         estimate D2E/DX2                !
 ! D22   D(18,6,7,13)          159.6266         estimate D2E/DX2                !
 ! D23   D(6,7,9,10)           168.8208         estimate D2E/DX2                !
 ! D24   D(6,7,9,19)           -70.207          estimate D2E/DX2                !
 ! D25   D(6,7,9,20)            48.7684         estimate D2E/DX2                !
 ! D26   D(8,7,9,10)            52.625          estimate D2E/DX2                !
 ! D27   D(8,7,9,19)           173.5972         estimate D2E/DX2                !
 ! D28   D(8,7,9,20)           -67.4274         estimate D2E/DX2                !
 ! D29   D(13,7,9,10)          -62.0055         estimate D2E/DX2                !
 ! D30   D(13,7,9,19)           58.9667         estimate D2E/DX2                !
 ! D31   D(13,7,9,20)          177.9421         estimate D2E/DX2                !
 ! D32   D(6,7,13,12)         -165.9993         estimate D2E/DX2                !
 ! D33   D(6,7,13,14)          -49.382          estimate D2E/DX2                !
 ! D34   D(6,7,13,15)           75.0219         Frozen                          !
 ! D35   D(8,7,13,12)          -51.2955         estimate D2E/DX2                !
 ! D36   D(8,7,13,14)           65.3217         estimate D2E/DX2                !
 ! D37   D(8,7,13,15)         -170.2743         estimate D2E/DX2                !
 ! D38   D(9,7,13,12)           63.4371         estimate D2E/DX2                !
 ! D39   D(9,7,13,14)         -179.9457         estimate D2E/DX2                !
 ! D40   D(9,7,13,15)          -55.5417         estimate D2E/DX2                !
 ! D41   D(7,9,10,11)           54.8127         Frozen                          !
 ! D42   D(7,9,10,21)          176.5899         estimate D2E/DX2                !
 ! D43   D(7,9,10,22)          -65.1962         estimate D2E/DX2                !
 ! D44   D(19,9,10,11)         -66.2592         estimate D2E/DX2                !
 ! D45   D(19,9,10,21)          55.518          estimate D2E/DX2                !
 ! D46   D(19,9,10,22)         173.7318         estimate D2E/DX2                !
 ! D47   D(20,9,10,11)         175.4358         estimate D2E/DX2                !
 ! D48   D(20,9,10,21)         -62.787          estimate D2E/DX2                !
 ! D49   D(20,9,10,22)          55.4268         estimate D2E/DX2                !
 ! D50   D(9,10,11,12)         -52.8227         Frozen                          !
 ! D51   D(9,10,11,23)          67.8038         estimate D2E/DX2                !
 ! D52   D(9,10,11,24)        -174.6625         estimate D2E/DX2                !
 ! D53   D(21,10,11,12)       -174.6904         estimate D2E/DX2                !
 ! D54   D(21,10,11,23)        -54.0639         estimate D2E/DX2                !
 ! D55   D(21,10,11,24)         63.4698         estimate D2E/DX2                !
 ! D56   D(22,10,11,12)         67.4052         estimate D2E/DX2                !
 ! D57   D(22,10,11,23)       -171.9683         estimate D2E/DX2                !
 ! D58   D(22,10,11,24)        -54.4346         estimate D2E/DX2                !
 ! D59   D(10,11,12,13)         56.6807         estimate D2E/DX2                !
 ! D60   D(10,11,12,25)        177.5031         estimate D2E/DX2                !
 ! D61   D(10,11,12,26)        -64.7381         estimate D2E/DX2                !
 ! D62   D(23,11,12,13)        -63.8031         estimate D2E/DX2                !
 ! D63   D(23,11,12,25)         57.0193         estimate D2E/DX2                !
 ! D64   D(23,11,12,26)        174.7781         estimate D2E/DX2                !
 ! D65   D(24,11,12,13)        178.5871         estimate D2E/DX2                !
 ! D66   D(24,11,12,25)        -60.5905         estimate D2E/DX2                !
 ! D67   D(24,11,12,26)         57.1683         estimate D2E/DX2                !
 ! D68   D(11,12,13,7)         -60.4812         estimate D2E/DX2                !
 ! D69   D(11,12,13,14)       -179.1213         estimate D2E/DX2                !
 ! D70   D(11,12,13,15)         62.2193         estimate D2E/DX2                !
 ! D71   D(25,12,13,7)         178.7027         estimate D2E/DX2                !
 ! D72   D(25,12,13,14)         60.0626         estimate D2E/DX2                !
 ! D73   D(25,12,13,15)        -58.5969         estimate D2E/DX2                !
 ! D74   D(26,12,13,7)          60.9042         estimate D2E/DX2                !
 ! D75   D(26,12,13,14)        -57.7359         estimate D2E/DX2                !
 ! D76   D(26,12,13,15)       -176.3953         estimate D2E/DX2                !
 ! D77   D(7,13,15,16)         -67.1602         Frozen                          !
 ! D78   D(12,13,15,16)        175.361          estimate D2E/DX2                !
 ! D79   D(14,13,15,16)         57.8715         estimate D2E/DX2                !
 ! D80   D(13,15,16,4)          11.921          estimate D2E/DX2                !
 ! D81   D(13,15,16,27)       -168.8271         estimate D2E/DX2                !
 --------------------------------------------------------------------------------
 Trust Radius=3.00D-01 FncErr=1.00D-07 GrdErr=1.00D-07 EigMax=2.50D+02 EigMin=1.00D-04
 Number of steps in this run=     20 maximum allowed number of steps=    162.
 GradGradGradGradGradGradGradGradGradGradGradGradGradGradGradGradGradGrad

                          Input orientation:                          
 ---------------------------------------------------------------------
 Center     Atomic      Atomic             Coordinates (Angstroms)
 Number     Number       Type             X           Y           Z
 ---------------------------------------------------------------------
      1          8           0       -3.624380   -1.429730   -0.093600
      2          7           0       -3.247440   -0.263240    0.004780
      3          8           0       -4.009810    0.689190    0.173790
      4          6           0       -1.744750    0.002830   -0.048390
      5          6           0       -1.340560    1.337590    0.060080
      6          7           0       -0.093780    1.739490    0.459540
      7          6           0        1.190870    0.981090    0.397870
      8          1           0        1.861910    1.469460    1.151340
      9          6           0        1.936870    1.059770   -0.957450
     10          6           0        3.355080    0.480120   -0.795760
     11          6           0        3.309980   -0.945810   -0.223880
     12          6           0        2.478530   -1.006190    1.075690
     13          6           0        1.034940   -0.477500    0.853810
     14          1           0        0.496870   -0.533300    1.829210
     15          7           0        0.371830   -1.342690   -0.125860
     16          6           0       -0.876010   -1.149830   -0.403960
     17          1           0       -2.110170    2.125490    0.029380
     18          1           0        0.149000    2.732870    0.481650
     19          1           0        1.381050    0.491300   -1.733210
     20          1           0        2.009910    2.116030   -1.293050
     21          1           0        3.877130    0.475560   -1.777600
     22          1           0        3.936860    1.126570   -0.101340
     23          1           0        2.857650   -1.625720   -0.980760
     24          1           0        4.343000   -1.306210   -0.025940
     25          1           0        2.432370   -2.058600    1.432120
     26          1           0        2.977830   -0.403860    1.863270
     27          1           0       -1.393770   -1.921680   -0.993710
 ---------------------------------------------------------------------
                    Distance matrix (angstroms):
                    1          2          3          4          5
     1  O    0.000000
     2  N    1.229822   0.000000
     3  O    2.170225   1.231623   0.000000
     4  C    2.363743   1.526990   2.377173   0.000000
     5  C    3.591311   2.490363   2.749227   1.398828   0.000000
     6  N    4.776511   3.763417   4.064489   2.449425   1.369508
     7  C    5.407423   4.626173   5.213683   3.126341   2.578630
     8  H    6.328867   5.515642   6.003459   4.074108   3.385861
     9  C    6.153970   5.436296   6.064655   3.936729   3.442978
    10  C    7.270036   6.692288   7.431376   5.176353   4.849407
    11  C    6.952446   6.596813   7.510705   5.145970   5.188648
    12  C    6.228333   5.872440   6.766557   4.485284   4.594586
    13  C    4.849081   4.370988   5.222365   2.961648   3.093147
    14  H    4.635244   4.173887   4.954297   2.972823   3.163258
    15  N    3.997288   3.779073   4.839121   2.509250   3.186025
    16  C    2.779965   2.564525   3.679197   1.486528   2.572625
    17  H    3.866206   2.645755   2.385884   2.155288   1.101830
    18  H    5.647703   4.554106   4.644040   3.364573   2.084063
    19  H    5.606515   5.001286   5.721641   3.584389   3.367381
    20  H    6.764342   5.914813   6.358028   4.484670   3.696293
    21  H    7.920773   7.381206   8.127569   5.900778   5.598612
    22  H    7.981672   7.318265   7.963452   5.791916   5.284103
    23  H    6.545394   6.332438   7.338515   4.970269   5.243045
    24  H    7.968625   7.661822   8.590166   6.226941   6.268966
    25  H    6.277541   6.125427   7.115857   4.887713   5.258479
    26  H    6.962106   6.498288   7.271603   5.111028   4.993259
    27  H    2.455165   2.680205   3.875998   2.172684   3.425806
                    6          7          8          9         10
     6  N    0.000000
     7  C    1.493084   0.000000
     8  H    2.091943   1.120945   0.000000
     9  C    2.567765   1.549064   2.149526   0.000000
    10  C    3.880261   2.521811   2.645666   1.540603   0.000000
    11  C    4.389018   2.930895   3.133954   2.538879   1.536996
    12  C    3.812503   2.463085   2.552408   2.948770   2.545542
    13  C    2.518830   1.536125   2.136131   2.541130   3.003526
    14  H    2.718536   2.196303   2.516722   3.518088   4.010842
    15  N    3.171643   2.518943   3.429252   2.985416   3.559660
    16  C    3.115395   3.075019   4.095833   3.619527   4.551084
    17  H    2.097585   3.513161   4.179305   4.299782   5.766893
    18  H    1.022856   2.039913   2.231311   2.840203   4.121360
    19  H    2.922542   2.194895   3.083610   1.110809   2.185345
    20  H    2.763850   2.195023   2.532785   1.110697   2.175542
    21  H    4.729740   3.493454   3.691563   2.185991   1.112010
    22  H    4.115376   2.794787   2.447897   2.176545   1.112917
    23  H    4.702132   3.387364   3.888121   2.839055   2.171687
    24  H    5.403424   3.917560   3.904631   3.500719   2.181647
    25  H    4.663993   3.442486   3.584895   3.959772   3.501420
    26  H    3.999899   2.694199   2.293785   3.343990   2.827398
    27  H    4.148021   4.128309   5.167255   4.470293   5.325355
                   11         12         13         14         15
    11  C    0.000000
    12  C    1.543968   0.000000
    13  C    2.560574   1.553286   0.000000
    14  H    3.506983   2.172186   1.115365   0.000000
    15  N    2.966454   2.448497   1.465613   2.119681   0.000000
    16  C    4.194826   3.669187   2.384480   2.692946   1.292919
    17  H    6.234986   5.653172   4.164968   4.135845   4.267634
    18  H    4.901250   4.445241   3.351100   3.550324   4.126610
    19  H    2.839742   3.367025   2.784069   3.810829   2.639246
    20  H    3.494019   3.946998   3.505135   4.365403   4.001048
    21  H    2.180825   3.506127   3.988820   5.045100   4.280351
    22  H    2.168583   2.839153   3.450578   4.279687   4.336737
    23  H    1.113439   2.180948   2.829546   3.829177   2.643910
    24  H    1.111845   2.186287   3.521929   4.339549   3.972594
    25  H    2.179641   1.112088   2.187951   2.496073   2.680607
    26  H    2.181795   1.110128   2.190720   2.484568   3.410172
    27  H    4.865205   4.485002   3.376036   3.670286   2.050789
                   16         17         18         19         20
    16  C    0.000000
    17  H    3.526848   0.000000
    18  H    4.112215   2.382710   0.000000
    19  H    3.091041   4.238622   3.383517   0.000000
    20  H    4.448017   4.327120   2.644435   1.796929   0.000000
    21  H    5.207794   6.468014   4.909034   2.496524   2.532280
    22  H    5.332663   6.130375   4.155474   3.098182   2.472315
    23  H    3.807806   6.306441   5.335985   2.688550   3.849270
    24  H    5.235019   7.309106   5.844780   3.862507   4.331351
    25  H    3.891328   6.333163   5.392157   4.198402   5.003255
    26  H    4.533088   5.970637   4.444123   4.035553   4.153200
    27  H    1.100742   4.235508   5.120709   3.750861   5.289399
                   21         22         23         24         25
    21  H    0.000000
    22  H    1.799230   0.000000
    23  H    2.467726   3.084343   0.000000
    24  H    2.541663   2.467601   1.794445   0.000000
    25  H    4.337234   3.841913   2.488019   2.518439   0.000000
    26  H    3.852020   2.668641   3.097724   2.499408   1.794876
    27  H    5.843255   6.205140   4.261729   5.850292   4.532411
                   26         27
    26  H    0.000000
    27  H    5.438474   0.000000
 Symmetry turned off by external request.
 Stoichiometry    C9H13N3O2
 Framework group  C1[X(C9H13N3O2)]
 Deg. of freedom    75
 Full point group                 C1      NOp   1
 Rotational constants (GHZ):           1.6721334           0.4029608           0.3564478
 Standard basis: 6-31G(d) (6D, 7F)
   236 basis functions,   444 primitive gaussians,   236 cartesian basis functions
    52 alpha electrons       52 beta electrons
       nuclear repulsion energy       918.1691425172 Hartrees.
 NAtoms=   27 NActive=   27 NUniq=   27 SFac= 1.00D+00 NAtFMM=   60 NAOKFM=F Big=F
 Integral buffers will be    131072 words long.
 Raffenetti 1 integral format.
 Two-electron integral symmetry is turned off.
 One-electron integrals computed using PRISM.
 NBasis=   236 RedAO= T EigKep=  1.35D-03  NBF=   236
 NBsUse=   236 1.00D-06 EigRej= -1.00D+00 NBFU=   236
 ExpMin= 1.61D-01 ExpMax= 5.48D+03 ExpMxC= 8.25D+02 IAcc=3 IRadAn=         5 AccDes= 0.00D+00
 Harris functional with IExCor=  205 and IRadAn=       5 diagonalized for initial guess.
 HarFok:  IExCor=  205 AccDes= 0.00D+00 IRadAn=         5 IDoV= 1 UseB2=F ITyADJ=14
 ICtDFT=  3500011 ScaDFX=  1.000000  1.000000  1.000000  1.000000
 FoFCou: FMM=F IPFlag=           0 FMFlag=      100000 FMFlg1=           0
         NFxFlg=           0 DoJE=T BraDBF=F KetDBF=T FulRan=T
         wScrn=  0.000000 ICntrl=       500 IOpCl=  0 I1Cent=   200000004 NGrid=           0
         NMat0=    1 NMatS0=      1 NMatT0=    0 NMatD0=    1 NMtDS0=    0 NMtDT0=    0
 Symmetry not used in FoFCou.
 Keep R1 ints in memory in canonical form, NReq=397720213.
 Requested convergence on RMS density matrix=1.00D-08 within 128 cycles.
 Requested convergence on MAX density matrix=1.00D-06.
 Requested convergence on             energy=1.00D-06.
 No special actions if energy rises.
 SCF Done:  E(RHF) =  -661.276490605     A.U. after   16 cycles
            NFock= 16  Conv=0.51D-08     -V/T= 2.0036
 ExpMin= 1.61D-01 ExpMax= 5.48D+03 ExpMxC= 8.25D+02 IAcc=3 IRadAn=         5 AccDes= 0.00D+00
 HarFok:  IExCor=  205 AccDes= 0.00D+00 IRadAn=         5 IDoV=-2 UseB2=F ITyADJ=14
 ICtDFT= 12500011 ScaDFX=  1.000000  1.000000  1.000000  1.000000
 Range of M.O.s used for correlation:    15   236
 NBasis=   236 NAE=    52 NBE=    52 NFC=    14 NFV=     0
 NROrb=    222 NOA=    38 NOB=    38 NVA=   184 NVB=   184
 Fully direct method using O(ONN) memory.
 JobTyp=1 Pass  1:  I=  15 to  52 NPSUse=  4 ParTrn=T ParDer=T DoDerP=T.
 Spin components of T(2) and E(2):
     alpha-alpha T2 =       0.9210653525D-01 E2=     -0.2719783554D+00
     alpha-beta  T2 =       0.4999575811D+00 E2=     -0.1494177134D+01
     beta-beta   T2 =       0.9210653525D-01 E2=     -0.2719783554D+00
 ANorm=    0.1297756006D+01
 E2 =    -0.2038133845D+01 EUMP2 =    -0.66331462444982D+03
          IDoAtm=111111111111111111111111111
          Differentiating once with respect to electric field.
                with respect to dipole field.
          Differentiating once with respect to nuclear coordinates.
 Keep R1 ints in memory in canonical form, NReq=397723379.
          There are     1 degrees of freedom in the 1st order CPHF.  IDoFFX=0 NUNeed=     1.
 LinEq1:  Iter=  0 NonCon=     1 RMS=4.64D-03 Max=1.17D-01 NDo=     1
 AX will form     1 AO Fock derivatives at one time.
 LinEq1:  Iter=  1 NonCon=     1 RMS=1.58D-03 Max=3.21D-02 NDo=     1
 LinEq1:  Iter=  2 NonCon=     1 RMS=6.45D-04 Max=1.87D-02 NDo=     1
 LinEq1:  Iter=  3 NonCon=     1 RMS=2.97D-04 Max=1.03D-02 NDo=     1
 LinEq1:  Iter=  4 NonCon=     1 RMS=9.19D-05 Max=2.32D-03 NDo=     1
 LinEq1:  Iter=  5 NonCon=     1 RMS=3.83D-05 Max=1.97D-03 NDo=     1
 LinEq1:  Iter=  6 NonCon=     1 RMS=1.55D-05 Max=5.43D-04 NDo=     1
 LinEq1:  Iter=  7 NonCon=     1 RMS=6.00D-06 Max=9.27D-05 NDo=     1
 LinEq1:  Iter=  8 NonCon=     1 RMS=2.33D-06 Max=5.37D-05 NDo=     1
 LinEq1:  Iter=  9 NonCon=     1 RMS=8.55D-07 Max=2.45D-05 NDo=     1
 LinEq1:  Iter= 10 NonCon=     1 RMS=4.16D-07 Max=1.43D-05 NDo=     1
 LinEq1:  Iter= 11 NonCon=     1 RMS=1.55D-07 Max=5.65D-06 NDo=     1
 LinEq1:  Iter= 12 NonCon=     1 RMS=5.49D-08 Max=8.03D-07 NDo=     1
 LinEq1:  Iter= 13 NonCon=     1 RMS=1.82D-08 Max=3.38D-07 NDo=     1
 LinEq1:  Iter= 14 NonCon=     1 RMS=5.85D-09 Max=1.35D-07 NDo=     1
 LinEq1:  Iter= 15 NonCon=     1 RMS=2.12D-09 Max=6.20D-08 NDo=     1
 LinEq1:  Iter= 16 NonCon=     1 RMS=7.23D-10 Max=9.24D-09 NDo=     1
 LinEq1:  Iter= 17 NonCon=     1 RMS=2.26D-10 Max=3.75D-09 NDo=     1
 LinEq1:  Iter= 18 NonCon=     0 RMS=7.32D-11 Max=7.92D-10 NDo=     1
 Linear equations converged to 1.000D-10 1.000D-09 after    18 iterations.
 End of Minotr F.D. properties file   721 does not exist.
 End of Minotr F.D. properties file   722 does not exist.
 End of Minotr F.D. properties file   788 does not exist.

 **********************************************************************

            Population analysis using the SCF Density.

 **********************************************************************

 Alpha  occ. eigenvalues --  -20.59568 -20.59164 -15.85060 -15.63956 -15.56488
 Alpha  occ. eigenvalues --  -11.36027 -11.30412 -11.30229 -11.29731 -11.27533
 Alpha  occ. eigenvalues --  -11.24765 -11.23962 -11.23327 -11.22857  -1.58256
 Alpha  occ. eigenvalues --   -1.37766  -1.29019  -1.22608  -1.13317  -1.08348
 Alpha  occ. eigenvalues --   -1.01785  -1.00703  -0.93678  -0.88914  -0.84975
 Alpha  occ. eigenvalues --   -0.81524  -0.77836  -0.77040  -0.74252  -0.71437
 Alpha  occ. eigenvalues --   -0.70047  -0.69641  -0.67263  -0.64365  -0.63359
 Alpha  occ. eigenvalues --   -0.62212  -0.59706  -0.57098  -0.56777  -0.54742
 Alpha  occ. eigenvalues --   -0.54312  -0.50548  -0.49689  -0.48292  -0.47945
 Alpha  occ. eigenvalues --   -0.47560  -0.46233  -0.45608  -0.43845  -0.41836
 Alpha  occ. eigenvalues --   -0.39619  -0.33583
 Alpha virt. eigenvalues --    0.07376   0.11988   0.17289   0.20908   0.22826
 Alpha virt. eigenvalues --    0.24209   0.26647   0.27910   0.28468   0.28815
 Alpha virt. eigenvalues --    0.30217   0.31019   0.31789   0.32376   0.33247
 Alpha virt. eigenvalues --    0.33885   0.34536   0.35904   0.37353   0.38853
 Alpha virt. eigenvalues --    0.40242   0.41504   0.44384   0.45078   0.45511
 Alpha virt. eigenvalues --    0.47130   0.49623   0.52631   0.56269   0.58899
 Alpha virt. eigenvalues --    0.63323   0.68309   0.69480   0.72269   0.73967
 Alpha virt. eigenvalues --    0.74905   0.75797   0.75960   0.77913   0.78425
 Alpha virt. eigenvalues --    0.80404   0.83776   0.84283   0.85681   0.87530
 Alpha virt. eigenvalues --    0.88531   0.89448   0.90495   0.92046   0.94016
 Alpha virt. eigenvalues --    0.94949   0.97161   0.98543   1.00615   1.02122
 Alpha virt. eigenvalues --    1.02708   1.05017   1.06169   1.06932   1.08207
 Alpha virt. eigenvalues --    1.09688   1.10491   1.11303   1.12590   1.13029
 Alpha virt. eigenvalues --    1.13459   1.13938   1.15207   1.15679   1.16991
 Alpha virt. eigenvalues --    1.17418   1.19406   1.20403   1.21682   1.22554
 Alpha virt. eigenvalues --    1.24268   1.25084   1.25636   1.26782   1.27897
 Alpha virt. eigenvalues --    1.29283   1.30796   1.33582   1.37331   1.39690
 Alpha virt. eigenvalues --    1.40924   1.43179   1.48585   1.49145   1.53716
 Alpha virt. eigenvalues --    1.55693   1.56613   1.60710   1.61826   1.67773
 Alpha virt. eigenvalues --    1.68043   1.69260   1.71872   1.73758   1.75844
 Alpha virt. eigenvalues --    1.78148   1.81252   1.84985   1.87766   1.91445
 Alpha virt. eigenvalues --    1.93860   1.96200   1.97797   1.99277   1.99676
 Alpha virt. eigenvalues --    2.03054   2.03586   2.06815   2.09152   2.11603
 Alpha virt. eigenvalues --    2.12237   2.12972   2.17188   2.18435   2.19120
 Alpha virt. eigenvalues --    2.20555   2.22441   2.24006   2.25122   2.26333
 Alpha virt. eigenvalues --    2.29933   2.32023   2.32952   2.35952   2.36193
 Alpha virt. eigenvalues --    2.39925   2.40472   2.42704   2.43959   2.47240
 Alpha virt. eigenvalues --    2.49034   2.50622   2.51081   2.55769   2.58318
 Alpha virt. eigenvalues --    2.60638   2.63178   2.66724   2.68067   2.69278
 Alpha virt. eigenvalues --    2.70351   2.70798   2.74379   2.77423   2.81219
 Alpha virt. eigenvalues --    2.82958   2.85149   2.91285   2.91407   2.94650
 Alpha virt. eigenvalues --    2.96736   2.98142   3.01557   3.04517   3.05564
 Alpha virt. eigenvalues --    3.07983   3.14603   3.17479   3.22580   3.26936
 Alpha virt. eigenvalues --    3.32116   3.33227   3.37201   3.42674   3.57927
 Alpha virt. eigenvalues --    4.10365   4.23638   4.30156   4.34503   4.42535
 Alpha virt. eigenvalues --    4.52056   4.59293   4.61737   4.70120   4.77940
 Alpha virt. eigenvalues --    4.94520   4.99255   5.02444   5.10762
          Condensed to atoms (all electrons):
               1          2          3          4          5          6
     1  O    8.302189   0.312643  -0.089150  -0.079274   0.003458  -0.000011
     2  N    0.312643   5.683703   0.307765   0.268030  -0.044669   0.001005
     3  O   -0.089150   0.307765   8.334694  -0.085590   0.005195   0.000325
     4  C   -0.079274   0.268030  -0.085590   5.254194   0.564419  -0.061024
     5  C    0.003458  -0.044669   0.005195   0.564419   4.690874   0.311720
     6  N   -0.000011   0.001005   0.000325  -0.061024   0.311720   7.145889
     7  C    0.000003  -0.000077   0.000002   0.003758  -0.030168   0.212055
     8  H   -0.000000   0.000001  -0.000000  -0.000297   0.003705  -0.045542
     9  C   -0.000000  -0.000002   0.000000   0.000548  -0.000517  -0.058311
    10  C   -0.000000   0.000000  -0.000000  -0.000025  -0.000005   0.003419
    11  C   -0.000000  -0.000000  -0.000000  -0.000012   0.000013  -0.000159
    12  C   -0.000000   0.000001  -0.000000  -0.000155  -0.000184   0.003647
    13  C   -0.000022  -0.000028  -0.000003  -0.008818   0.000427  -0.051240
    14  H   -0.000000  -0.000078   0.000000   0.002686   0.002945  -0.005090
    15  N    0.000180   0.001711  -0.000013  -0.063988  -0.002183   0.000784
    16  C    0.003535  -0.028387   0.002170   0.317103  -0.040167  -0.000560
    17  H    0.000145  -0.004835   0.012594  -0.025933   0.376363  -0.034173
    18  H    0.000000  -0.000040   0.000006   0.002346  -0.025242   0.328480
    19  H    0.000000  -0.000002   0.000000  -0.001009   0.001517  -0.000146
    20  H    0.000000  -0.000000   0.000000  -0.000003   0.000052  -0.000664
    21  H   -0.000000  -0.000000  -0.000000   0.000001   0.000000  -0.000064
    22  H   -0.000000   0.000000  -0.000000  -0.000000  -0.000001  -0.000088
    23  H    0.000000  -0.000000   0.000000   0.000024  -0.000001  -0.000023
    24  H    0.000000   0.000000   0.000000   0.000000  -0.000000   0.000005
    25  H    0.000000  -0.000000   0.000000   0.000018   0.000000  -0.000072
    26  H    0.000000  -0.000000   0.000000   0.000005   0.000001  -0.000069
    27  H    0.005760  -0.000822   0.000018  -0.068314   0.001745   0.000008
               7          8          9         10         11         12
     1  O    0.000003  -0.000000  -0.000000  -0.000000  -0.000000  -0.000000
     2  N   -0.000077   0.000001  -0.000002   0.000000  -0.000000   0.000001
     3  O    0.000002  -0.000000   0.000000  -0.000000  -0.000000  -0.000000
     4  C    0.003758  -0.000297   0.000548  -0.000025  -0.000012  -0.000155
     5  C   -0.030168   0.003705  -0.000517  -0.000005   0.000013  -0.000184
     6  N    0.212055  -0.045542  -0.058311   0.003419  -0.000159   0.003647
     7  C    5.037571   0.412848   0.343273  -0.049326  -0.007924  -0.064507
     8  H    0.412848   0.540638  -0.057594   0.000957  -0.000286  -0.002916
     9  C    0.343273  -0.057594   5.178365   0.318562  -0.053343  -0.005682
    10  C   -0.049326   0.000957   0.318562   5.126481   0.332568  -0.060440
    11  C   -0.007924  -0.000286  -0.053343   0.332568   5.124981   0.329983
    12  C   -0.064507  -0.002916  -0.005682  -0.060440   0.329983   5.139827
    13  C    0.321864  -0.038401  -0.055761  -0.000779  -0.047655   0.367510
    14  H   -0.040288  -0.001026   0.003815  -0.000394   0.003982  -0.041110
    15  N   -0.056647   0.003771  -0.011586   0.001201  -0.007536  -0.074331
    16  C   -0.002926   0.000057  -0.000811  -0.000029  -0.000020   0.002573
    17  H    0.001514  -0.000022  -0.000086   0.000001   0.000000   0.000001
    18  H   -0.030865  -0.003672   0.000638  -0.000092   0.000010  -0.000149
    19  H   -0.035870   0.003992   0.387367  -0.032766  -0.002197   0.000581
    20  H   -0.042328  -0.001863   0.397024  -0.036861   0.004125  -0.000383
    21  H    0.004076  -0.000074  -0.035790   0.399887  -0.035766   0.004234
    22  H   -0.004426   0.003529  -0.045799   0.396074  -0.045568  -0.001221
    23  H    0.000449   0.000036  -0.002037  -0.040131   0.396627  -0.036599
    24  H   -0.000149  -0.000106   0.004423  -0.038543   0.400274  -0.037832
    25  H    0.005066  -0.000010  -0.000382   0.004106  -0.033797   0.395185
    26  H   -0.004506   0.001555   0.001098  -0.002462  -0.042521   0.394551
    27  H   -0.000417   0.000009  -0.000063   0.000005   0.000005  -0.000022
              13         14         15         16         17         18
     1  O   -0.000022  -0.000000   0.000180   0.003535   0.000145   0.000000
     2  N   -0.000028  -0.000078   0.001711  -0.028387  -0.004835  -0.000040
     3  O   -0.000003   0.000000  -0.000013   0.002170   0.012594   0.000006
     4  C   -0.008818   0.002686  -0.063988   0.317103  -0.025933   0.002346
     5  C    0.000427   0.002945  -0.002183  -0.040167   0.376363  -0.025242
     6  N   -0.051240  -0.005090   0.000784  -0.000560  -0.034173   0.328480
     7  C    0.321864  -0.040288  -0.056647  -0.002926   0.001514  -0.030865
     8  H   -0.038401  -0.001026   0.003771   0.000057  -0.000022  -0.003672
     9  C   -0.055761   0.003815  -0.011586  -0.000811  -0.000086   0.000638
    10  C   -0.000779  -0.000394   0.001201  -0.000029   0.000001  -0.000092
    11  C   -0.047655   0.003982  -0.007536  -0.000020   0.000000   0.000010
    12  C    0.367510  -0.041110  -0.074331   0.002573   0.000001  -0.000149
    13  C    5.021900   0.405242   0.243011  -0.069114  -0.000052   0.004073
    14  H    0.405242   0.514216  -0.035129  -0.004779   0.000044  -0.000029
    15  N    0.243011  -0.035129   6.941630   0.587007  -0.000038  -0.000129
    16  C   -0.069114  -0.004779   0.587007   4.703665   0.001921  -0.000212
    17  H   -0.000052   0.000044  -0.000038   0.001921   0.387835  -0.002457
    18  H    0.004073  -0.000029  -0.000129  -0.000212  -0.002457   0.330003
    19  H   -0.005686   0.000062   0.006407   0.002658   0.000020  -0.000113
    20  H    0.003948  -0.000051   0.000074  -0.000040  -0.000007   0.002238
    21  H   -0.000419   0.000008  -0.000034   0.000002  -0.000000  -0.000000
    22  H    0.000334  -0.000043   0.000002  -0.000001   0.000000   0.000004
    23  H   -0.005899   0.000010   0.006917   0.000039   0.000000   0.000000
    24  H    0.004145  -0.000058   0.000039   0.000006   0.000000  -0.000000
    25  H   -0.034157  -0.002688   0.000920  -0.000065  -0.000000   0.000003
    26  H   -0.045064  -0.000880   0.004190  -0.000053   0.000000  -0.000001
    27  H    0.004940  -0.000167  -0.040100   0.403648  -0.000061   0.000001
              19         20         21         22         23         24
     1  O    0.000000   0.000000  -0.000000  -0.000000   0.000000   0.000000
     2  N   -0.000002  -0.000000  -0.000000   0.000000  -0.000000   0.000000
     3  O    0.000000   0.000000  -0.000000  -0.000000   0.000000   0.000000
     4  C   -0.001009  -0.000003   0.000001  -0.000000   0.000024   0.000000
     5  C    0.001517   0.000052   0.000000  -0.000001  -0.000001  -0.000000
     6  N   -0.000146  -0.000664  -0.000064  -0.000088  -0.000023   0.000005
     7  C   -0.035870  -0.042328   0.004076  -0.004426   0.000449  -0.000149
     8  H    0.003992  -0.001863  -0.000074   0.003529   0.000036  -0.000106
     9  C    0.387367   0.397024  -0.035790  -0.045799  -0.002037   0.004423
    10  C   -0.032766  -0.036861   0.399887   0.396074  -0.040131  -0.038543
    11  C   -0.002197   0.004125  -0.035766  -0.045568   0.396627   0.400274
    12  C    0.000581  -0.000383   0.004234  -0.001221  -0.036599  -0.037832
    13  C   -0.005686   0.003948  -0.000419   0.000334  -0.005899   0.004145
    14  H    0.000062  -0.000051   0.000008  -0.000043   0.000010  -0.000058
    15  N    0.006407   0.000074  -0.000034   0.000002   0.006917   0.000039
    16  C    0.002658  -0.000040   0.000002  -0.000001   0.000039   0.000006
    17  H    0.000020  -0.000007  -0.000000   0.000000   0.000000   0.000000
    18  H   -0.000113   0.002238  -0.000000   0.000004   0.000000  -0.000000
    19  H    0.507935  -0.024060  -0.002606   0.003768   0.001665  -0.000072
    20  H   -0.024060   0.548371  -0.002671  -0.002955  -0.000049  -0.000090
    21  H   -0.002606  -0.002671   0.525986  -0.024683  -0.002812  -0.002077
    22  H    0.003768  -0.002955  -0.024683   0.569016   0.004060  -0.003582
    23  H    0.001665  -0.000049  -0.002812   0.004060   0.509395  -0.024949
    24  H   -0.000072  -0.000090  -0.002077  -0.003582  -0.024949   0.541093
    25  H   -0.000028   0.000011  -0.000086  -0.000083  -0.002081  -0.002405
    26  H    0.000022  -0.000035  -0.000073   0.002470   0.003832  -0.002754
    27  H    0.000080   0.000000  -0.000000   0.000000  -0.000021  -0.000000
              25         26         27
     1  O    0.000000   0.000000   0.005760
     2  N   -0.000000  -0.000000  -0.000822
     3  O    0.000000   0.000000   0.000018
     4  C    0.000018   0.000005  -0.068314
     5  C    0.000000   0.000001   0.001745
     6  N   -0.000072  -0.000069   0.000008
     7  C    0.005066  -0.004506  -0.000417
     8  H   -0.000010   0.001555   0.000009
     9  C   -0.000382   0.001098  -0.000063
    10  C    0.004106  -0.002462   0.000005
    11  C   -0.033797  -0.042521   0.000005
    12  C    0.395185   0.394551  -0.000022
    13  C   -0.034157  -0.045064   0.004940
    14  H   -0.002688  -0.000880  -0.000167
    15  N    0.000920   0.004190  -0.040100
    16  C   -0.000065  -0.000053   0.403648
    17  H   -0.000000   0.000000  -0.000061
    18  H    0.000003  -0.000001   0.000001
    19  H   -0.000028   0.000022   0.000080
    20  H    0.000011  -0.000035   0.000000
    21  H   -0.000086  -0.000073  -0.000000
    22  H   -0.000083   0.002470   0.000000
    23  H   -0.002081   0.003832  -0.000021
    24  H   -0.002405  -0.002754  -0.000000
    25  H    0.509546  -0.023122  -0.000012
    26  H   -0.023122   0.563023   0.000001
    27  H   -0.000012   0.000001   0.453402
 Mulliken charges:
               1
     1  O   -0.459456
     2  N    0.504080
     3  O   -0.488013
     4  C   -0.018691
     5  C    0.180705
     6  N   -0.750099
     7  C    0.027942
     8  H    0.180710
     9  C   -0.307349
    10  C   -0.321408
    11  C   -0.315781
    12  C   -0.312561
    13  C   -0.014295
    14  H    0.198801
    15  N   -0.506129
    16  C    0.122778
    17  H    0.287227
    18  H    0.395200
    19  H    0.188481
    20  H    0.156217
    21  H    0.172962
    22  H    0.149194
    23  H    0.191549
    24  H    0.162635
    25  H    0.184131
    26  H    0.150793
    27  H    0.240378
 Sum of Mulliken charges =  -0.00000
 Mulliken charges with hydrogens summed into heavy atoms:
               1
     1  O   -0.459456
     2  N    0.504080
     3  O   -0.488013
     4  C   -0.018691
     5  C    0.467932
     6  N   -0.354899
     7  C    0.208652
     9  C    0.037350
    10  C    0.000748
    11  C    0.038403
    12  C    0.022363
    13  C    0.184506
    15  N   -0.506129
    16  C    0.363156
 Electronic spatial extent (au):  <R**2>=           3113.6536
 Charge=             -0.0000 electrons
 Dipole moment (field-independent basis, Debye):
    X=              5.5276    Y=              4.7334    Z=              0.1012  Tot=              7.2780
 Quadrupole moment (field-independent basis, Debye-Ang):
   XX=           -105.8454   YY=            -79.7000   ZZ=            -82.4088
   XY=             -1.6730   XZ=              2.7804   YZ=              0.0462
 Traceless Quadrupole moment (field-independent basis, Debye-Ang):
   XX=            -16.5274   YY=              9.6181   ZZ=              6.9093
   XY=             -1.6730   XZ=              2.7804   YZ=              0.0462
 Octapole moment (field-independent basis, Debye-Ang**2):
  XXX=            101.9035  YYY=             38.1412  ZZZ=             -6.6377  XYY=             -2.1093
  XXY=             11.4811  XXZ=             -5.5591  XZZ=             -7.3962  YZZ=             -2.3973
  YYZ=              1.0300  XYZ=              0.7254
 Hexadecapole moment (field-independent basis, Debye-Ang**3):
 XXXX=          -3541.9242 YYYY=           -622.5542 ZZZZ=           -295.5994 XXXY=            -36.1428
 XXXZ=             42.9136 YYYX=            -17.5574 YYYZ=             23.0638 ZZZX=             23.0789
 ZZZY=             13.8266 XXYY=           -654.8018 XXZZ=           -541.4402 YYZZ=           -163.7279
 XXYZ=              1.9702 YYXZ=             17.6954 ZZXY=              5.2919
 N-N= 9.181691425172D+02 E-N=-3.382398633497D+03  KE= 6.588837288627D+02
 Calling FoFJK, ICntrl=  10002127 FMM=F ISym2X=0 I1Cent= 0 IOpClX= 0 NMat=1 NMatS=1 NMatT=0.
 -------------------------------------------------------------------
 Center     Atomic                   Forces (Hartrees/Bohr)
 Number     Number              X              Y              Z
 -------------------------------------------------------------------
      1        8           0.002332194   -0.019320551   -0.001788055
      2        7           0.039953865    0.014052655   -0.010267663
      3        8          -0.005214179    0.016580796    0.002393373
      4        6          -0.006205544    0.006019263   -0.003967891
      5        6          -0.001107988   -0.018065871    0.021542681
      6        7           0.019960214   -0.000809452   -0.016988561
      7        6          -0.004703721    0.003851366    0.005662852
      8        1          -0.011616529   -0.001680476   -0.007586112
      9        6          -0.004082172    0.001163566   -0.002490687
     10        6           0.002671811   -0.001275154    0.000951446
     11        6          -0.000892404   -0.004568898   -0.002287499
     12        6           0.000694116   -0.008973517   -0.003254887
     13        6           0.009277022   -0.003279904    0.004153826
     14        1           0.001341719    0.004275200   -0.010269936
     15        7          -0.000170416   -0.001469553    0.003310193
     16        6          -0.017904580    0.008016191    0.007389376
     17        1           0.006376566   -0.007613230    0.003750767
     18        1          -0.016784787   -0.001891723   -0.004505824
     19        1           0.003058422    0.005602627    0.007653153
     20        1          -0.003203864   -0.007651756    0.002634959
     21        1          -0.004244288    0.002281999    0.009676575
     22        1          -0.004077444   -0.003826590   -0.007369934
     23        1           0.004006051    0.005987998    0.009346470
     24        1          -0.009397733    0.002580067   -0.002009537
     25        1          -0.000878711    0.010637072   -0.002297693
     26        1          -0.004725830   -0.004669364   -0.004304818
     27        1           0.005538207    0.004047239    0.000923427
 -------------------------------------------------------------------
 Cartesian Forces:  Max     0.039953865 RMS     0.008979831

 GradGradGradGradGradGradGradGradGradGradGradGradGradGradGradGradGradGrad
 Berny optimization.
 FormGI is forming the generalized inverse of G from B-inverse, IUseBI=4.
 Internal  Forces:  Max     0.038789597 RMS     0.006907749
 Search for a local minimum.
 Step number   1 out of a maximum of   20
 All quantities printed in internal units (Hartrees-Bohrs-Radians)
 Mixed Optimization -- RFO/linear search
 Second derivative matrix not updated -- first step.
 ITU=  0
     Eigenvalues ---    0.00233   0.00773   0.01113   0.01180   0.01227
     Eigenvalues ---    0.01524   0.01539   0.01782   0.02018   0.02154
     Eigenvalues ---    0.02686   0.03669   0.04506   0.04695   0.04836
     Eigenvalues ---    0.05075   0.05138   0.05305   0.05862   0.06246
     Eigenvalues ---    0.07107   0.07691   0.07705   0.07832   0.07991
     Eigenvalues ---    0.08043   0.08050   0.10448   0.11626   0.12093
     Eigenvalues ---    0.12626   0.14059   0.15038   0.15723   0.15999
     Eigenvalues ---    0.19879   0.22016   0.22554   0.24758   0.25000
     Eigenvalues ---    0.25000   0.25369   0.26113   0.26653   0.27981
     Eigenvalues ---    0.28087   0.28468   0.29703   0.31468   0.31842
     Eigenvalues ---    0.32039   0.32239   0.32293   0.32380   0.32388
     Eigenvalues ---    0.32405   0.32514   0.32526   0.32586   0.33378
     Eigenvalues ---    0.33481   0.33600   0.35196   0.43885   0.44184
     Eigenvalues ---    0.49686   0.67080   0.90413   0.911611000.00000
     Eigenvalues --- 1000.000001000.000001000.000001000.000001000.00000
     Eigenvalues --- 1000.000001000.000001000.000001000.000001000.00000
     Eigenvalues --- 1000.000001000.000001000.000001000.000001000.00000
     Eigenvalues --- 1000.000001000.000001000.000001000.000001000.00000
     Eigenvalues --- 1000.000001000.000001000.000001000.000001000.00000
     Eigenvalues --- 1000.000001000.000001000.000001000.000001000.00000
     Eigenvalues --- 1000.000001000.000001000.000001000.000001000.00000
     Eigenvalues --- 1000.000001000.000001000.000001000.000001000.00000
     Eigenvalues --- 1000.000001000.000001000.000001000.000001000.00000
     Eigenvalues --- 1000.000001000.000001000.000001000.000001000.00000
     Eigenvalues --- 1000.000001000.000001000.000001000.000001000.00000
     Eigenvalues --- 1000.000001000.000001000.000001000.000001000.00000
     Eigenvalues --- 1000.000001000.000001000.000001000.000001000.00000
     Eigenvalues --- 1000.000001000.000001000.000001000.000001000.00000
     Eigenvalues --- 1000.000001000.000001000.000001000.000001000.00000
     Eigenvalues --- 1000.000001000.000001000.000001000.000001000.00000
     Eigenvalues --- 1000.000001000.000001000.000001000.000001000.00000
     Eigenvalues --- 1000.000001000.000001000.000001000.000001000.00000
     Eigenvalues --- 1000.00000
 RFO step:  Lambda=-2.59271465D-02 EMin= 2.33035103D-03
 Linear search not attempted -- first point.
 Iteration  1 RMS(Cart)=  0.07036914 RMS(Int)=  0.00207765
 Iteration  2 RMS(Cart)=  0.00306199 RMS(Int)=  0.00046898
 Iteration  3 RMS(Cart)=  0.00000773 RMS(Int)=  0.00046894
 Iteration  4 RMS(Cart)=  0.00000000 RMS(Int)=  0.00046894
 Iteration  1 RMS(Cart)=  0.00009450 RMS(Int)=  0.00008382
 Iteration  2 RMS(Cart)=  0.00004310 RMS(Int)=  0.00009261
 Iteration  3 RMS(Cart)=  0.00002524 RMS(Int)=  0.00010267
 Iteration  4 RMS(Cart)=  0.00001852 RMS(Int)=  0.00010972
 Iteration  5 RMS(Cart)=  0.00001481 RMS(Int)=  0.00011474
 Iteration  6 RMS(Cart)=  0.00001209 RMS(Int)=  0.00011855
 Iteration  7 RMS(Cart)=  0.00000994 RMS(Int)=  0.00012159
 Iteration  8 RMS(Cart)=  0.00000821 RMS(Int)=  0.00012408
 Iteration  9 RMS(Cart)=  0.00000682 RMS(Int)=  0.00012616
 Iteration 10 RMS(Cart)=  0.00000569 RMS(Int)=  0.00012792
 Iteration 11 RMS(Cart)=  0.00000476 RMS(Int)=  0.00012941
 Iteration 12 RMS(Cart)=  0.00000400 RMS(Int)=  0.00013068
 Iteration 13 RMS(Cart)=  0.00000337 RMS(Int)=  0.00013176
 Iteration 14 RMS(Cart)=  0.00000284 RMS(Int)=  0.00013268
 Iteration 15 RMS(Cart)=  0.00000240 RMS(Int)=  0.00013347
 Iteration 16 RMS(Cart)=  0.00000203 RMS(Int)=  0.00013415
 Iteration 17 RMS(Cart)=  0.00000172 RMS(Int)=  0.00013472
 Iteration 18 RMS(Cart)=  0.00000146 RMS(Int)=  0.00013521
 Iteration 19 RMS(Cart)=  0.00000123 RMS(Int)=  0.00013563
 Iteration 20 RMS(Cart)=  0.00000105 RMS(Int)=  0.00013599
 Iteration 21 RMS(Cart)=  0.00000089 RMS(Int)=  0.00013630
 Variable       Old X    -DE/DX   Delta X   Delta X   Delta X     New X
                                 (Linear)    (Quad)   (Total)
    R1        2.32403   0.01775   0.00000   0.01894   0.01894   2.34296
    R2        2.32743   0.01638   0.00000   0.01761   0.01761   2.34504
    R3        2.88559  -0.03879   0.00000  -0.12011  -0.12011   2.76549
    R4        2.64340  -0.03082   0.00000  -0.06661  -0.06616   2.57724
    R5        2.80913  -0.02116   0.00000  -0.06206  -0.06143   2.74770
    R6        2.58800  -0.02280   0.00000  -0.04392  -0.04391   2.54409
    R7        2.08216  -0.01000   0.00000  -0.02773  -0.02773   2.05443
    R8        2.82152  -0.01814   0.00000  -0.04853  -0.04903   2.77249
    R9        1.93292  -0.00592   0.00000  -0.01273  -0.01273   1.92018
   R10        2.11828  -0.01279   0.00000  -0.03754  -0.03754   2.08074
   R11        2.92731  -0.01287   0.00000  -0.04200  -0.04200   2.88531
   R12        2.90286  -0.00163   0.00000   0.00008  -0.00021   2.90265
   R13        2.91132  -0.00421   0.00000  -0.01400  -0.01402   2.89729
   R14        2.09913  -0.00974   0.00000  -0.02775  -0.02775   2.07138
   R15        2.09891  -0.00828   0.00000  -0.02359  -0.02359   2.07533
   R16        2.90450  -0.00163   0.00000  -0.00751  -0.00761   2.89689
   R17        2.10139  -0.01055   0.00000  -0.03015  -0.03015   2.07125
   R18        2.10311  -0.00895   0.00000  -0.02566  -0.02566   2.07745
   R19        2.91768  -0.00916   0.00000  -0.03022  -0.03023   2.88745
   R20        2.10410  -0.01164   0.00000  -0.03341  -0.03341   2.07068
   R21        2.10108  -0.00993   0.00000  -0.02836  -0.02836   2.07272
   R22        2.93528  -0.01098   0.00000  -0.03629  -0.03627   2.89901
   R23        2.10154  -0.01077   0.00000  -0.03078  -0.03078   2.07076
   R24        2.09784  -0.00771   0.00000  -0.02193  -0.02193   2.07591
   R25        2.10773  -0.00984   0.00000  -0.02842  -0.02842   2.07931
   R26        2.76961  -0.00518   0.00000  -0.00886  -0.00924   2.76037
   R27        2.44326  -0.00575   0.00000  -0.00796  -0.00769   2.43558
   R28        2.08010  -0.00594   0.00000  -0.01641  -0.01641   2.06370
    A1        2.15885   0.01120   0.00000   0.04110   0.04066   2.19952
    A2        2.05342  -0.00777   0.00000  -0.02767  -0.02811   2.02531
    A3        2.07051  -0.00345   0.00000  -0.01199  -0.01243   2.05808
    A4        2.03523  -0.00744   0.00000  -0.03010  -0.03279   2.00244
    A5        2.03569  -0.00237   0.00000  -0.01135  -0.01404   2.02165
    A6        2.20133   0.00949   0.00000   0.02436   0.02300   2.22433
    A7        2.17207   0.00837   0.00000   0.03097   0.03185   2.20393
    A8        2.06957  -0.00390   0.00000  -0.01431  -0.01488   2.05468
    A9        2.01991  -0.00344   0.00000  -0.01256  -0.01305   2.00686
   A10        2.24233  -0.00637   0.00000  -0.02514  -0.02553   2.21680
   A11        2.10296  -0.01232   0.00000  -0.07135  -0.07118   2.03177
   A12        1.86500   0.01903   0.00000   0.09942   0.09966   1.96466
   A13        1.84004  -0.00278   0.00000  -0.02039  -0.02029   1.81976
   A14        2.00942  -0.00024   0.00000  -0.02166  -0.02173   1.98768
   A15        1.96352   0.00140   0.00000   0.00963   0.00899   1.97251
   A16        1.85218   0.00294   0.00000   0.02413   0.02392   1.87610
   A17        1.84933   0.00175   0.00000   0.02876   0.02861   1.87794
   A18        1.93564  -0.00272   0.00000  -0.01471  -0.01434   1.92130
   A19        1.90963   0.00016   0.00000  -0.00444  -0.00453   1.90510
   A20        1.92204  -0.00052   0.00000  -0.01342  -0.01342   1.90861
   A21        1.92233  -0.00192   0.00000  -0.00685  -0.00687   1.91546
   A22        1.91917  -0.00063   0.00000   0.00391   0.00385   1.92302
   A23        1.90602   0.00330   0.00000   0.02571   0.02571   1.93173
   A24        1.88448  -0.00036   0.00000  -0.00452  -0.00475   1.87973
   A25        1.94024  -0.00081   0.00000   0.00628   0.00613   1.94637
   A26        1.91882  -0.00078   0.00000  -0.00740  -0.00741   1.91142
   A27        1.90515   0.00028   0.00000  -0.00325  -0.00330   1.90185
   A28        1.91611   0.00057   0.00000   0.00676   0.00682   1.92293
   A29        1.89870   0.00196   0.00000   0.01127   0.01131   1.91001
   A30        1.88377  -0.00121   0.00000  -0.01414  -0.01424   1.86954
   A31        1.94471   0.00152   0.00000   0.00721   0.00737   1.95208
   A32        1.90235   0.00004   0.00000   0.00515   0.00508   1.90743
   A33        1.91739   0.00044   0.00000   0.00470   0.00468   1.92207
   A34        1.90659  -0.00140   0.00000  -0.01489  -0.01494   1.89165
   A35        1.91539  -0.00073   0.00000   0.00002  -0.00010   1.91529
   A36        1.87604   0.00007   0.00000  -0.00264  -0.00267   1.87337
   A37        1.94651  -0.00376   0.00000  -0.02188  -0.02191   1.92460
   A38        1.90618   0.00239   0.00000   0.01470   0.01448   1.92066
   A39        1.91105   0.00197   0.00000   0.01643   0.01644   1.92749
   A40        1.90637   0.00081   0.00000  -0.00249  -0.00231   1.90406
   A41        1.91205  -0.00033   0.00000  -0.00285  -0.00277   1.90928
   A42        1.88047  -0.00097   0.00000  -0.00329  -0.00348   1.87699
   A43        1.84548   0.00561   0.00000   0.02445   0.02453   1.87002
   A44        1.93482  -0.00433   0.00000  -0.02681  -0.02722   1.90760
   A45        1.99112  -0.00104   0.00000   0.00338   0.00335   1.99447
   A46        1.88220   0.00195   0.00000   0.02860   0.02881   1.91101
   A47        1.89130  -0.00425   0.00000  -0.02997  -0.02988   1.86143
   A48        1.91427   0.00229   0.00000   0.00265   0.00285   1.91712
   A49        2.08563  -0.00384   0.00000  -0.01170  -0.01226   2.07338
   A50        2.25010  -0.00417   0.00000  -0.02422  -0.02382   2.22627
   A51        1.97903   0.00463   0.00000   0.02557   0.02470   2.00372
   A52        2.05400  -0.00050   0.00000  -0.00194  -0.00280   2.05120
    D1        3.13718  -0.00019   0.00000  -0.11291  -0.11031   3.02687
    D2        0.14414   0.00110   0.00000   0.00000   0.00000   0.14414
    D3       -0.03343  -0.00072   0.00000  -0.05913  -0.05784  -0.09126
    D4       -3.02647   0.00057   0.00000   0.05378   0.05248  -2.97399
    D5        2.75729   0.00867   0.00000   0.12916   0.12991   2.88720
    D6       -0.15237   0.00372   0.00000   0.10952   0.11006  -0.04230
    D7       -0.54883   0.00589   0.00000   0.00000   0.00000  -0.54882
    D8        2.82470   0.00094   0.00000  -0.01964  -0.01984   2.80486
    D9       -2.72030  -0.00620   0.00000  -0.11075  -0.11126  -2.83156
   D10        0.43389  -0.00206   0.00000  -0.05301  -0.05390   0.37999
   D11        0.58586  -0.00299   0.00000   0.02000   0.02137   0.60723
   D12       -2.54314   0.00114   0.00000   0.07774   0.07874  -2.46440
   D13        0.41320  -0.00804   0.00000  -0.05471  -0.05449   0.35870
   D14        3.09877  -0.00261   0.00000  -0.02319  -0.02342   3.07535
   D15       -2.95439  -0.00333   0.00000  -0.03599  -0.03555  -2.98994
   D16       -0.26882   0.00210   0.00000  -0.00447  -0.00447  -0.27329
   D17       -2.77089   0.00078   0.00000   0.02454   0.02452  -2.74637
   D18        1.47739  -0.00086   0.00000   0.02012   0.01986   1.49725
   D19       -0.76330   0.00194   0.00000   0.05165   0.05107  -0.71223
   D20        0.77842   0.00163   0.00000   0.02794   0.02815   0.80658
   D21       -1.25648  -0.00002   0.00000   0.02352   0.02350  -1.23298
   D22        2.78601   0.00278   0.00000   0.05505   0.05471   2.84072
   D23        2.94648   0.00226   0.00000   0.02692   0.02666   2.97313
   D24       -1.22534   0.00125   0.00000   0.02046   0.02022  -1.20513
   D25        0.85117  -0.00071   0.00000   0.00227   0.00210   0.85327
   D26        0.91848   0.00388   0.00000   0.04803   0.04809   0.96657
   D27        3.02984   0.00287   0.00000   0.04157   0.04165   3.07149
   D28       -1.17683   0.00090   0.00000   0.02338   0.02353  -1.15330
   D29       -1.08220   0.00153   0.00000   0.00806   0.00813  -1.07407
   D30        1.02916   0.00052   0.00000   0.00160   0.00170   1.03086
   D31        3.10567  -0.00145   0.00000  -0.01659  -0.01642   3.08925
   D32       -2.89723  -0.00021   0.00000  -0.01877  -0.01866  -2.91590
   D33       -0.86188   0.00310   0.00000   0.01538   0.01517  -0.84671
   D34        1.30938   0.00189   0.00000   0.00000  -0.00001   1.30937
   D35       -0.89528  -0.00180   0.00000  -0.02136  -0.02123  -0.91650
   D36        1.14008   0.00151   0.00000   0.01279   0.01260   1.15268
   D37       -2.97185   0.00030   0.00000  -0.00260  -0.00257  -2.97442
   D38        1.10719   0.00130   0.00000   0.01571   0.01580   1.12298
   D39       -3.14064   0.00461   0.00000   0.04987   0.04963  -3.09102
   D40       -0.96939   0.00340   0.00000   0.03448   0.03445  -0.93494
   D41        0.95666   0.00116   0.00000   0.00000   0.00000   0.95666
   D42        3.08208   0.00081   0.00000   0.00769   0.00763   3.08971
   D43       -1.13789  -0.00096   0.00000  -0.01581  -0.01578  -1.15367
   D44       -1.15644   0.00211   0.00000   0.01696   0.01702  -1.13942
   D45        0.96897   0.00175   0.00000   0.02464   0.02465   0.99362
   D46        3.03219  -0.00001   0.00000   0.00115   0.00124   3.03343
   D47        3.06193   0.00093   0.00000   0.00472   0.00470   3.06663
   D48       -1.09584   0.00058   0.00000   0.01241   0.01233  -1.08351
   D49        0.96738  -0.00118   0.00000  -0.01109  -0.01108   0.95630
   D50       -0.92193  -0.00081   0.00000   0.00000   0.00000  -0.92193
   D51        1.18340  -0.00157   0.00000  -0.01060  -0.01062   1.17278
   D52       -3.04844  -0.00120   0.00000  -0.00807  -0.00812  -3.05656
   D53       -3.04892   0.00033   0.00000   0.00057   0.00059  -3.04833
   D54       -0.94359  -0.00043   0.00000  -0.01003  -0.01003  -0.95362
   D55        1.10776  -0.00006   0.00000  -0.00750  -0.00753   1.10023
   D56        1.17644   0.00031   0.00000   0.00715   0.00719   1.18363
   D57       -3.00141  -0.00045   0.00000  -0.00345  -0.00343  -3.00484
   D58       -0.95006  -0.00008   0.00000  -0.00092  -0.00094  -0.95100
   D59        0.98926  -0.00153   0.00000  -0.01024  -0.01034   0.97892
   D60        3.09801  -0.00134   0.00000  -0.01758  -0.01778   3.08024
   D61       -1.12989   0.00002   0.00000  -0.00345  -0.00344  -1.13334
   D62       -1.11357  -0.00162   0.00000  -0.01142  -0.01143  -1.12501
   D63        0.99517  -0.00143   0.00000  -0.01876  -0.01887   0.97631
   D64        3.05045  -0.00007   0.00000  -0.00463  -0.00454   3.04592
   D65        3.11693  -0.00046   0.00000   0.00052   0.00049   3.11742
   D66       -1.05750  -0.00027   0.00000  -0.00682  -0.00694  -1.06445
   D67        0.99777   0.00109   0.00000   0.00731   0.00739   1.00516
   D68       -1.05560   0.00036   0.00000  -0.00500  -0.00486  -1.06045
   D69       -3.12626   0.00151   0.00000  -0.00078  -0.00117  -3.12742
   D70        1.08593   0.00003   0.00000  -0.00334  -0.00358   1.08236
   D71        3.11895  -0.00075   0.00000  -0.00770  -0.00748   3.11147
   D72        1.04829   0.00040   0.00000  -0.00348  -0.00379   1.04450
   D73       -1.02271  -0.00108   0.00000  -0.00604  -0.00619  -1.02890
   D74        1.06298   0.00015   0.00000  -0.00061  -0.00033   1.06264
   D75       -1.00768   0.00129   0.00000   0.00361   0.00335  -1.00433
   D76       -3.07868  -0.00019   0.00000   0.00105   0.00095  -3.07773
   D77       -1.17217   0.00605   0.00000   0.00000  -0.00001  -1.17218
   D78        3.06063   0.00253   0.00000  -0.01239  -0.01244   3.04819
   D79        1.01005   0.00135   0.00000  -0.03095  -0.03127   0.97877
   D80        0.20806  -0.00140   0.00000  -0.00920  -0.01019   0.19787
   D81       -2.94659  -0.00566   0.00000  -0.06890  -0.06874  -3.01533
         Item               Value     Threshold  Converged?
 Maximum Force            0.038790     0.000450     NO 
 RMS     Force            0.006905     0.000300     NO 
 Maximum Displacement     0.333366     0.001800     NO 
 RMS     Displacement     0.071115     0.001200     NO 
 Predicted change in Energy=-1.523482D-02
 GradGradGradGradGradGradGradGradGradGradGradGradGradGradGradGradGradGrad

                          Input orientation:                          
 ---------------------------------------------------------------------
 Center     Atomic      Atomic             Coordinates (Angstroms)
 Number     Number       Type             X           Y           Z
 ---------------------------------------------------------------------
      1          8           0       -3.484405   -1.397569   -0.270010
      2          7           0       -3.116800   -0.234094   -0.050005
      3          8           0       -3.857796    0.751910    0.086595
      4          6           0       -1.670913   -0.019796    0.021544
      5          6           0       -1.292060    1.286362    0.123605
      6          7           0       -0.073360    1.737064    0.475862
      7          6           0        1.192023    0.996598    0.420946
      8          1           0        1.840642    1.513781    1.144958
      9          6           0        1.884067    1.055105   -0.938794
     10          6           0        3.292038    0.461519   -0.812612
     11          6           0        3.254713   -0.955118   -0.228022
     12          6           0        2.473596   -1.008333    1.084123
     13          6           0        1.054399   -0.462631    0.880350
     14          1           0        0.508607   -0.493284    1.835278
     15          7           0        0.404325   -1.339139   -0.090658
     16          6           0       -0.842906   -1.153421   -0.357230
     17          1           0       -2.072818    2.042584    0.102267
     18          1           0        0.062260    2.743654    0.446208
     19          1           0        1.297870    0.486033   -1.669560
     20          1           0        1.931625    2.095745   -1.286477
     21          1           0        3.774862    0.451842   -1.796547
     22          1           0        3.896192    1.109884   -0.162103
     23          1           0        2.772978   -1.629783   -0.944574
     24          1           0        4.275045   -1.323933   -0.066930
     25          1           0        2.412143   -2.041869    1.443009
     26          1           0        2.983448   -0.418773    1.858222
     27          1           0       -1.338766   -1.891337   -0.991422
 ---------------------------------------------------------------------
                    Distance matrix (angstroms):
                    1          2          3          4          5
     1  O    0.000000
     2  N    1.239843   0.000000
     3  O    2.210621   1.240942   0.000000
     4  C    2.296087   1.463432   2.319961   0.000000
     5  C    3.487806   2.381512   2.621069   1.363816   0.000000
     6  N    4.692278   3.663949   3.929887   2.417672   1.346272
     7  C    5.298909   4.505813   5.066787   3.064144   2.518540
     8  H    6.231711   5.390662   5.845749   3.993111   3.302834
     9  C    5.939981   5.240291   5.840577   3.836084   3.357076
    10  C    7.047752   6.491429   7.212005   5.055527   4.750876
    11  C    6.753758   6.414651   7.321250   5.019851   5.081439
    12  C    6.122332   5.756580   6.646806   4.391267   4.513135
    13  C    4.774744   4.279800   5.121993   2.891535   3.022832
    14  H    4.603706   4.094514   4.865580   2.874740   3.056038
    15  N    3.893303   3.690678   4.750745   2.461680   3.133191
    16  C    2.654192   2.471871   3.593998   1.454018   2.526951
    17  H    3.737087   2.509252   2.202778   2.102726   1.087156
    18  H    5.499230   4.384020   4.411712   3.289511   2.015430
    19  H    5.326993   4.757190   5.453041   3.453892   3.250186
    20  H    6.524556   5.695929   6.099886   4.377752   3.610482
    21  H    7.645103   7.142543   7.867256   5.760586   5.482436
    22  H    7.795651   7.141491   7.766229   5.683534   5.199109
    23  H    6.297921   6.118635   7.120599   4.824273   5.115608
    24  H    7.762457   7.471774   8.394986   6.087940   6.151634
    25  H    6.174046   6.005527   6.996942   4.772912   5.151609
    26  H    6.878992   6.394408   7.163224   5.019526   4.918979
    27  H    2.316897   2.606555   3.807149   2.153853   3.367972
                    6          7          8          9         10
     6  N    0.000000
     7  C    1.467139   0.000000
     8  H    2.039841   1.101081   0.000000
     9  C    2.509550   1.526841   2.134079   0.000000
    10  C    3.822706   2.493600   2.654409   1.533182   0.000000
    11  C    4.338129   2.912911   3.159135   2.534732   1.532970
    12  C    3.793965   2.470220   2.601037   2.949156   2.535334
    13  C    2.504817   1.536016   2.143456   2.510211   2.954184
    14  H    2.676033   2.164981   2.505827   3.461918   3.958592
    15  N    3.164199   2.517514   3.424749   2.939622   3.478860
    16  C    3.105019   3.060894   4.070868   3.556991   4.462416
    17  H    2.056878   3.443084   4.084362   4.209021   5.667314
    18  H    1.016118   2.080674   2.272329   2.844013   4.150209
    19  H    2.836933   2.154552   3.045058   1.096125   2.170637
    20  H    2.693410   2.161117   2.501767   1.098215   2.178524
    21  H    4.650209   3.447476   3.677142   2.162122   1.096057
    22  H    4.069115   2.768630   2.469175   2.157521   1.099337
    23  H    4.631948   3.355882   3.888109   2.828219   2.158791
    24  H    5.345367   3.889462   3.930345   3.483783   2.170295
    25  H    4.625304   3.430101   3.613599   3.942474   3.482670
    26  H    3.987810   2.697822   2.355741   3.347276   2.829045
    27  H    4.113328   4.091435   5.125191   4.367029   5.197330
                   11         12         13         14         15
    11  C    0.000000
    12  C    1.527973   0.000000
    13  C    2.512452   1.534091   0.000000
    14  H    3.465775   2.165799   1.100325   0.000000
    15  N    2.879419   2.402379   1.460724   2.106080   0.000000
    16  C    4.104449   3.619079   2.368240   2.658845   1.288851
    17  H    6.121919   5.562554   4.081789   4.012195   4.196368
    18  H    4.932267   4.505428   3.384240   3.550564   4.132122
    19  H    2.825630   3.346376   2.731535   3.723693   2.573443
    20  H    3.489793   3.943194   3.465538   4.298070   3.944751
    21  H    2.170337   3.481906   3.924660   4.975121   4.180692
    22  H    2.163347   2.839666   3.411056   4.246812   4.265671
    23  H    1.095759   2.142765   2.765159   3.761194   2.534593
    24  H    1.096837   2.160960   3.465796   4.300515   3.870822
    25  H    2.164093   1.095798   2.157324   2.485044   2.622460
    26  H    2.171098   1.098526   2.163189   2.476068   3.361113
    27  H    4.749667   4.429637   3.357374   3.654800   2.038299
                   16         17         18         19         20
    16  C    0.000000
    17  H    3.455179   0.000000
    18  H    4.080690   2.273401   0.000000
    19  H    2.998823   4.113850   3.331675   0.000000
    20  H    4.372482   4.238750   2.629926   1.771883   0.000000
    21  H    5.096301   6.350694   4.905687   2.480480   2.521926
    22  H    5.255442   6.047223   4.211684   3.068044   2.468940
    23  H    3.694119   6.169594   5.330030   2.679221   3.834623
    24  H    5.129013   7.187310   5.878446   3.835097   4.321239
    25  H    3.824336   6.212506   5.423725   4.161728   4.980045
    26  H    4.482066   5.891305   4.530791   4.013115   4.161522
    27  H    1.092060   4.148580   5.051019   3.614361   5.165204
                   21         22         23         24         25
    21  H    0.000000
    22  H    1.766111   0.000000
    23  H    2.462274   3.062620   0.000000
    24  H    2.528860   2.464965   1.766354   0.000000
    25  H    4.309330   3.835666   2.449606   2.503148   0.000000
    26  H    3.839485   2.692881   3.060475   2.488724   1.770094
    27  H    5.682244   6.090967   4.120321   5.717648   4.474196
                   26         27
    26  H    0.000000
    27  H    5.382420   0.000000
 Symmetry turned off by external request.
 Stoichiometry    C9H13N3O2
 Framework group  C1[X(C9H13N3O2)]
 Deg. of freedom    75
 Full point group                 C1      NOp   1
 Rotational constants (GHZ):           1.6752404           0.4243927           0.3742328
 Standard basis: 6-31G(d) (6D, 7F)
   236 basis functions,   444 primitive gaussians,   236 cartesian basis functions
    52 alpha electrons       52 beta electrons
       nuclear repulsion energy       932.7719844876 Hartrees.
 NAtoms=   27 NActive=   27 NUniq=   27 SFac= 1.00D+00 NAtFMM=   60 NAOKFM=F Big=F
 Integral buffers will be    131072 words long.
 Raffenetti 1 integral format.
 Two-electron integral symmetry is turned off.
 One-electron integrals computed using PRISM.
 NBasis=   236 RedAO= T EigKep=  1.17D-03  NBF=   236
 NBsUse=   236 1.00D-06 EigRej= -1.00D+00 NBFU=   236
 Initial guess from the checkpoint file:  "/home/alexey/tmp/Gau-1261385.chk"
 B after Tr=     0.057638    0.008153   -0.011848
         Rot=    0.999981   -0.003767    0.004795    0.001327 Ang=  -0.72 deg.
 ExpMin= 1.61D-01 ExpMax= 5.48D+03 ExpMxC= 8.25D+02 IAcc=3 IRadAn=         5 AccDes= 0.00D+00
 Harris functional with IExCor=  205 and IRadAn=       5 diagonalized for initial guess.
 HarFok:  IExCor=  205 AccDes= 0.00D+00 IRadAn=         5 IDoV= 1 UseB2=F ITyADJ=14
 ICtDFT=  3500011 ScaDFX=  1.000000  1.000000  1.000000  1.000000
 FoFCou: FMM=F IPFlag=           0 FMFlag=      100000 FMFlg1=           0
         NFxFlg=           0 DoJE=T BraDBF=F KetDBF=T FulRan=T
         wScrn=  0.000000 ICntrl=       500 IOpCl=  0 I1Cent=   200000004 NGrid=           0
         NMat0=    1 NMatS0=      1 NMatT0=    0 NMatD0=    1 NMtDS0=    0 NMtDT0=    0
 Symmetry not used in FoFCou.
 Keep R1 ints in memory in canonical form, NReq=397720213.
 Requested convergence on RMS density matrix=1.00D-08 within 128 cycles.
 Requested convergence on MAX density matrix=1.00D-06.
 Requested convergence on             energy=1.00D-06.
 No special actions if energy rises.
 SCF Done:  E(RHF) =  -661.294577470     A.U. after   15 cycles
            NFock= 15  Conv=0.61D-08     -V/T= 2.0024
 ExpMin= 1.61D-01 ExpMax= 5.48D+03 ExpMxC= 8.25D+02 IAcc=3 IRadAn=         5 AccDes= 0.00D+00
 HarFok:  IExCor=  205 AccDes= 0.00D+00 IRadAn=         5 IDoV=-2 UseB2=F ITyADJ=14
 ICtDFT= 12500011 ScaDFX=  1.000000  1.000000  1.000000  1.000000
 Range of M.O.s used for correlation:    15   236
 NBasis=   236 NAE=    52 NBE=    52 NFC=    14 NFV=     0
 NROrb=    222 NOA=    38 NOB=    38 NVA=   184 NVB=   184
 Fully direct method using O(ONN) memory.
 JobTyp=1 Pass  1:  I=  15 to  52 NPSUse=  4 ParTrn=T ParDer=T DoDerP=T.
 Spin components of T(2) and E(2):
     alpha-alpha T2 =       0.9142155356D-01 E2=     -0.2725637582D+00
     alpha-beta  T2 =       0.4918913082D+00 E2=     -0.1488747121D+01
     beta-beta   T2 =       0.9142155356D-01 E2=     -0.2725637582D+00
 ANorm=    0.1294115302D+01
 E2 =    -0.2033874637D+01 EUMP2 =    -0.66332845210680D+03
          IDoAtm=111111111111111111111111111
          Differentiating once with respect to electric field.
                with respect to dipole field.
          Differentiating once with respect to nuclear coordinates.
 Keep R1 ints in memory in canonical form, NReq=397723379.
          There are     1 degrees of freedom in the 1st order CPHF.  IDoFFX=0 NUNeed=     1.
 LinEq1:  Iter=  0 NonCon=     1 RMS=4.60D-03 Max=1.17D-01 NDo=     1
[...]
                   16         17         18         19         20
    16  C    0.000000
    17  H    3.438958   0.000000
    18  H    4.068828   2.248855   0.000000
    19  H    2.996808   4.189162   3.363694   0.000000
    20  H    4.376006   4.338287   2.698955   1.769099   0.000000
    21  H    5.103816   6.425137   4.961769   2.498820   2.518477
    22  H    5.248901   6.068195   4.254148   3.069984   2.459210
    23  H    3.703698   6.200288   5.369159   2.702629   3.841000
    24  H    5.138036   7.194365   5.914633   3.848386   4.314709
    25  H    3.819157   6.151829   5.432266   4.169400   4.981972
    26  H    4.489599   5.849511   4.562941   4.033983   4.178613
    27  H    1.089496   4.143877   5.028031   3.587001   5.145079
                   21         22         23         24         25
    21  H    0.000000
    22  H    1.759081   0.000000
    23  H    2.470051   3.062274   0.000000
    24  H    2.517907   2.459720   1.764705   0.000000
    25  H    4.311782   3.837770   2.444458   2.519344   0.000000
    26  H    3.845646   2.701993   3.060607   2.491496   1.767811
    27  H    5.668792   6.068807   4.116130   5.717012   4.471593
                   26         27
    26  H    0.000000
    27  H    5.386680   0.000000
 Symmetry turned off by external request.
 Stoichiometry    C9H13N3O2
 Framework group  C1[X(C9H13N3O2)]
 Deg. of freedom    75
 Full point group                 C1      NOp   1
 Rotational constants (GHZ):           1.6840815           0.4206217           0.3728507

 **********************************************************************

            Population analysis using the SCF Density.

 **********************************************************************

 Alpha  occ. eigenvalues --  -20.59175 -20.58870 -15.84592 -15.64292 -15.56147
 Alpha  occ. eigenvalues --  -11.35177 -11.29629 -11.29605 -11.28541 -11.27125
 Alpha  occ. eigenvalues --  -11.23970 -11.23324 -11.22708 -11.22137  -1.57030
 Alpha  occ. eigenvalues --   -1.36643  -1.31079  -1.23106  -1.14733  -1.09854
 Alpha  occ. eigenvalues --   -1.02815  -1.01359  -0.94367  -0.89581  -0.85737
 Alpha  occ. eigenvalues --   -0.82341  -0.78470  -0.77432  -0.75149  -0.72035
 Alpha  occ. eigenvalues --   -0.69557  -0.69523  -0.67850  -0.64873  -0.63715
 Alpha  occ. eigenvalues --   -0.62618  -0.60212  -0.57684  -0.57035  -0.55048
 Alpha  occ. eigenvalues --   -0.54714  -0.50884  -0.50060  -0.48600  -0.48110
 Alpha  occ. eigenvalues --   -0.47329  -0.46245  -0.46073  -0.43611  -0.41657
 Alpha  occ. eigenvalues --   -0.40065  -0.33902
 Alpha virt. eigenvalues --    0.07411   0.11963   0.17430   0.21685   0.23295
 Alpha virt. eigenvalues --    0.24722   0.27322   0.28097   0.28967   0.29554
 Alpha virt. eigenvalues --    0.30912   0.31648   0.32253   0.32769   0.33738
 Alpha virt. eigenvalues --    0.34292   0.35718   0.37423   0.38392   0.40199
 Alpha virt. eigenvalues --    0.41695   0.42560   0.45104   0.45994   0.46732
 Alpha virt. eigenvalues --    0.47136   0.48805   0.53337   0.56177   0.59313
 Alpha virt. eigenvalues --    0.64231   0.69123   0.69479   0.72743   0.74020
 Alpha virt. eigenvalues --    0.75202   0.75896   0.76716   0.78793   0.78916
 Alpha virt. eigenvalues --    0.80871   0.85096   0.85134   0.86137   0.88229
 Alpha virt. eigenvalues --    0.88806   0.90063   0.91230   0.92765   0.94514
 Alpha virt. eigenvalues --    0.96119   0.97644   0.97874   1.01069   1.02248
 Alpha virt. eigenvalues --    1.02996   1.05978   1.06986   1.07423   1.08275
 Alpha virt. eigenvalues --    1.10052   1.11548   1.12095   1.12622   1.13750
 Alpha virt. eigenvalues --    1.14493   1.14831   1.16037   1.16526   1.17946
 Alpha virt. eigenvalues --    1.18944   1.20733   1.21161   1.22736   1.23609
 Alpha virt. eigenvalues --    1.25512   1.26843   1.27624   1.27867   1.29049
 Alpha virt. eigenvalues --    1.29960   1.31882   1.36044   1.37411   1.38578
 Alpha virt. eigenvalues --    1.40173   1.41195   1.48071   1.51974   1.53150
 Alpha virt. eigenvalues --    1.56534   1.59010   1.60508   1.63325   1.67669
 Alpha virt. eigenvalues --    1.69383   1.70399   1.73990   1.75286   1.77644
 Alpha virt. eigenvalues --    1.79987   1.84486   1.86575   1.92013   1.93128
 Alpha virt. eigenvalues --    1.95538   1.96479   1.99207   2.00894   2.02157
 Alpha virt. eigenvalues --    2.04055   2.05553   2.08876   2.09519   2.13266
 Alpha virt. eigenvalues --    2.13335   2.14714   2.19832   2.19958   2.21728
 Alpha virt. eigenvalues --    2.23050   2.24971   2.26291   2.28120   2.28473
 Alpha virt. eigenvalues --    2.32229   2.32892   2.34677   2.36116   2.37950
 Alpha virt. eigenvalues --    2.39220   2.42273   2.43023   2.45679   2.48571
 Alpha virt. eigenvalues --    2.49523   2.51984   2.53931   2.55786   2.61429
 Alpha virt. eigenvalues --    2.62289   2.65149   2.67548   2.70218   2.71439
 Alpha virt. eigenvalues --    2.71983   2.74198   2.76505   2.78319   2.85328
 Alpha virt. eigenvalues --    2.86680   2.88042   2.92662   2.93309   2.96010
 Alpha virt. eigenvalues --    2.98715   3.01338   3.03308   3.05066   3.07548
 Alpha virt. eigenvalues --    3.09863   3.15807   3.20677   3.24869   3.27124
 Alpha virt. eigenvalues --    3.34415   3.37474   3.39619   3.50328   3.61270
 Alpha virt. eigenvalues --    4.13142   4.26769   4.30038   4.37008   4.45923
 Alpha virt. eigenvalues --    4.56268   4.61638   4.64218   4.72959   4.79527
 Alpha virt. eigenvalues --    4.97393   5.00605   5.03346   5.12403
          Condensed to atoms (all electrons):
               1          2          3          4          5          6
     1  O    8.313357   0.306070  -0.079365  -0.083204   0.003913  -0.000021
     2  N    0.306070   5.742316   0.290982   0.257391  -0.044191   0.001351
     3  O   -0.079365   0.290982   8.351512  -0.085888  -0.001181   0.000628
     4  C   -0.083204   0.257391  -0.085888   5.241209   0.544075  -0.056565
     5  C    0.003913  -0.044191  -0.001181   0.544075   4.722263   0.319245
     6  N   -0.000021   0.001351   0.000628  -0.056565   0.319245   7.170428
     7  C    0.000003  -0.000100   0.000002   0.004590  -0.031392   0.185178
     8  H   -0.000000   0.000002   0.000000  -0.000326   0.004107  -0.050669
     9  C   -0.000000  -0.000004  -0.000000   0.000803  -0.000540  -0.064796
    10  C    0.000000   0.000000  -0.000000  -0.000040  -0.000021   0.003945
    11  C   -0.000000  -0.000000  -0.000000  -0.000018   0.000013  -0.000160
    12  C    0.000000   0.000002  -0.000000  -0.000077  -0.000159   0.003378
    13  C   -0.000028  -0.000062  -0.000005  -0.011057  -0.001010  -0.046091
    14  H   -0.000002  -0.000136   0.000001   0.002947   0.003805  -0.005690
    15  N    0.000417   0.002221  -0.000021  -0.066754  -0.002678   0.000593
    16  C    0.000576  -0.033637   0.003023   0.331059  -0.049336  -0.002293
    17  H    0.000266  -0.008022   0.018057  -0.027034   0.377880  -0.036005
    18  H    0.000001  -0.000058   0.000011   0.001945  -0.030922   0.336054
    19  H    0.000001  -0.000006   0.000000  -0.001387   0.001820  -0.000327
    20  H    0.000000  -0.000000   0.000000  -0.000029   0.000091  -0.000738
    21  H   -0.000000   0.000000  -0.000000   0.000001   0.000000  -0.000083
    22  H   -0.000000   0.000000  -0.000000  -0.000000  -0.000002  -0.000108
    23  H    0.000000  -0.000000   0.000000   0.000034  -0.000001  -0.000029
    24  H    0.000000   0.000000   0.000000   0.000000  -0.000000   0.000006
    25  H    0.000000  -0.000000   0.000000   0.000017   0.000002  -0.000080
    26  H    0.000000  -0.000000   0.000000   0.000006  -0.000000  -0.000060
    27  H    0.006964  -0.001004   0.000035  -0.062749   0.001734   0.000068
               7          8          9         10         11         12
     1  O    0.000003  -0.000000  -0.000000   0.000000  -0.000000   0.000000
     2  N   -0.000100   0.000002  -0.000004   0.000000  -0.000000   0.000002
     3  O    0.000002   0.000000  -0.000000  -0.000000  -0.000000  -0.000000
     4  C    0.004590  -0.000326   0.000803  -0.000040  -0.000018  -0.000077
     5  C   -0.031392   0.004107  -0.000540  -0.000021   0.000013  -0.000159
     6  N    0.185178  -0.050669  -0.064796   0.003945  -0.000160   0.003378
     7  C    5.022803   0.417989   0.351409  -0.053849  -0.009208  -0.060047
     8  H    0.417989   0.534394  -0.055975   0.000892  -0.000324  -0.002163
     9  C    0.351409  -0.055975   5.168509   0.324269  -0.050819  -0.005786
    10  C   -0.053849   0.000892   0.324269   5.116143   0.337564  -0.060788
    11  C   -0.009208  -0.000324  -0.050819   0.337564   5.119631   0.335421
    12  C   -0.060047  -0.002163  -0.005786  -0.060788   0.335421   5.116760
    13  C    0.334015  -0.037760  -0.059712  -0.000547  -0.050621   0.370767
    14  H   -0.046291  -0.001080   0.004497  -0.000424   0.004184  -0.035814
    15  N   -0.055453   0.003707  -0.013827   0.001401  -0.012767  -0.080354
    16  C   -0.003898   0.000134  -0.001514  -0.000006  -0.000031   0.002963
    17  H    0.001713  -0.000022  -0.000106   0.000001   0.000000   0.000000
    18  H   -0.023776  -0.003692   0.000773  -0.000077   0.000006  -0.000107
    19  H   -0.037526   0.004326   0.389510  -0.031378  -0.002227   0.000729
    20  H   -0.043984  -0.002184   0.399427  -0.035108   0.003977  -0.000421
    21  H    0.004553  -0.000083  -0.036290   0.402184  -0.034931   0.004364
    22  H   -0.004766   0.003549  -0.047201   0.398244  -0.045147  -0.001069
    23  H    0.000534   0.000032  -0.001978  -0.039073   0.399307  -0.037873
    24  H   -0.000136  -0.000102   0.004450  -0.038562   0.402339  -0.038600
    25  H    0.005176  -0.000027  -0.000402   0.004195  -0.033516   0.398983
    26  H   -0.003921   0.001738   0.000982  -0.002280  -0.041410   0.397033
    27  H   -0.000437   0.000010  -0.000070   0.000008   0.000009  -0.000034
              13         14         15         16         17         18
     1  O   -0.000028  -0.000002   0.000417   0.000576   0.000266   0.000001
     2  N   -0.000062  -0.000136   0.002221  -0.033637  -0.008022  -0.000058
     3  O   -0.000005   0.000001  -0.000021   0.003023   0.018057   0.000011
     4  C   -0.011057   0.002947  -0.066754   0.331059  -0.027034   0.001945
     5  C   -0.001010   0.003805  -0.002678  -0.049336   0.377880  -0.030922
     6  N   -0.046091  -0.005690   0.000593  -0.002293  -0.036005   0.336054
     7  C    0.334015  -0.046291  -0.055453  -0.003898   0.001713  -0.023776
     8  H   -0.037760  -0.001080   0.003707   0.000134  -0.000022  -0.003692
     9  C   -0.059712   0.004497  -0.013827  -0.001514  -0.000106   0.000773
    10  C   -0.000547  -0.000424   0.001401  -0.000006   0.000001  -0.000077
    11  C   -0.050621   0.004184  -0.012767  -0.000031   0.000000   0.000006
    12  C    0.370767  -0.035814  -0.080354   0.002963   0.000000  -0.000107
    13  C    5.042274   0.404107   0.244382  -0.071812  -0.000041   0.003354
    14  H    0.404107   0.518638  -0.037301  -0.004002   0.000090  -0.000084
    15  N    0.244382  -0.037301   6.963434   0.579092  -0.000060  -0.000149
    16  C   -0.071812  -0.004002   0.579092   4.740491   0.002563  -0.000255
    17  H   -0.000041   0.000090  -0.000060   0.002563   0.383006  -0.003010
    18  H    0.003354  -0.000084  -0.000149  -0.000255  -0.003010   0.316347
    19  H   -0.007241   0.000096   0.007318   0.003386   0.000030  -0.000157
    20  H    0.004419  -0.000066   0.000106  -0.000043  -0.000001   0.001793
    21  H   -0.000443   0.000010  -0.000043   0.000003  -0.000000   0.000000
    22  H    0.000080  -0.000054   0.000015  -0.000002   0.000000   0.000003
    23  H   -0.007266   0.000006   0.008513   0.000040   0.000000   0.000000
    24  H    0.004678  -0.000056   0.000136   0.000008   0.000000  -0.000000
    25  H   -0.035901  -0.002873   0.000290  -0.000028  -0.000000   0.000002
    26  H   -0.047141  -0.001043   0.004784  -0.000075   0.000000  -0.000000
    27  H    0.005086  -0.000190  -0.039581   0.402747  -0.000082   0.000002
              19         20         21         22         23         24
     1  O    0.000001   0.000000  -0.000000  -0.000000   0.000000   0.000000
     2  N   -0.000006  -0.000000   0.000000   0.000000  -0.000000   0.000000
     3  O    0.000000   0.000000  -0.000000  -0.000000   0.000000   0.000000
     4  C   -0.001387  -0.000029   0.000001  -0.000000   0.000034   0.000000
     5  C    0.001820   0.000091   0.000000  -0.000002  -0.000001  -0.000000
     6  N   -0.000327  -0.000738  -0.000083  -0.000108  -0.000029   0.000006
     7  C   -0.037526  -0.043984   0.004553  -0.004766   0.000534  -0.000136
     8  H    0.004326  -0.002184  -0.000083   0.003549   0.000032  -0.000102
     9  C    0.389510   0.399427  -0.036290  -0.047201  -0.001978   0.004450
    10  C   -0.031378  -0.035108   0.402184   0.398244  -0.039073  -0.038562
    11  C   -0.002227   0.003977  -0.034931  -0.045147   0.399307   0.402339
    12  C    0.000729  -0.000421   0.004364  -0.001069  -0.037873  -0.038600
    13  C   -0.007241   0.004419  -0.000443   0.000080  -0.007266   0.004678
    14  H    0.000096  -0.000066   0.000010  -0.000054   0.000006  -0.000056
    15  N    0.007318   0.000106  -0.000043   0.000015   0.008513   0.000136
    16  C    0.003386  -0.000043   0.000003  -0.000002   0.000040   0.000008
    17  H    0.000030  -0.000001  -0.000000   0.000000   0.000000   0.000000
    18  H   -0.000157   0.001793   0.000000   0.000003   0.000000  -0.000000
    19  H    0.506321  -0.025514  -0.002829   0.003965   0.001513  -0.000066
    20  H   -0.025514   0.547404  -0.002748  -0.003019  -0.000044  -0.000085
    21  H   -0.002829  -0.002748   0.524459  -0.027395  -0.002883  -0.002240
    22  H    0.003965  -0.003019  -0.027395   0.569701   0.004124  -0.003657
    23  H    0.001513  -0.000044  -0.002883   0.004124   0.498904  -0.025448
    24  H   -0.000066  -0.000085  -0.002240  -0.003657  -0.025448   0.537953
    25  H   -0.000031   0.000012  -0.000086  -0.000080  -0.002325  -0.002316
    26  H    0.000020  -0.000030  -0.000081   0.002382   0.004049  -0.003037
    27  H    0.000099   0.000000  -0.000000   0.000000  -0.000033  -0.000000
              25         26         27
     1  O    0.000000   0.000000   0.006964
     2  N   -0.000000  -0.000000  -0.001004
     3  O    0.000000   0.000000   0.000035
     4  C    0.000017   0.000006  -0.062749
     5  C    0.000002  -0.000000   0.001734
     6  N   -0.000080  -0.000060   0.000068
     7  C    0.005176  -0.003921  -0.000437
     8  H   -0.000027   0.001738   0.000010
     9  C   -0.000402   0.000982  -0.000070
    10  C    0.004195  -0.002280   0.000008
    11  C   -0.033516  -0.041410   0.000009
    12  C    0.398983   0.397033  -0.000034
    13  C   -0.035901  -0.047141   0.005086
    14  H   -0.002873  -0.001043  -0.000190
    15  N    0.000290   0.004784  -0.039581
    16  C   -0.000028  -0.000075   0.402747
    17  H   -0.000000   0.000000  -0.000082
    18  H    0.000002  -0.000000   0.000002
    19  H   -0.000031   0.000020   0.000099
    20  H    0.000012  -0.000030   0.000000
    21  H   -0.000086  -0.000081  -0.000000
    22  H   -0.000080   0.002382   0.000000
    23  H   -0.002325   0.004049  -0.000033
    24  H   -0.002316  -0.003037  -0.000000
    25  H    0.505559  -0.023965  -0.000012
    26  H   -0.023965   0.560316   0.000001
    27  H   -0.000012   0.000001   0.435239
 Mulliken charges:
               1
     1  O   -0.468947
     2  N    0.486887
     3  O   -0.497791
     4  C    0.011051
     5  C    0.182483
     6  N   -0.757159
     7  C    0.046820
     8  H    0.183529
     9  C   -0.305609
    10  C   -0.326693
    11  C   -0.321270
    12  C   -0.307108
    13  C   -0.036425
    14  H    0.196725
    15  N   -0.507420
    16  C    0.100846
    17  H    0.290777
    18  H    0.401997
    19  H    0.189555
    20  H    0.156784
    21  H    0.174561
    22  H    0.150437
    23  H    0.199899
    24  H    0.164735
    25  H    0.187406
    26  H    0.151734
    27  H    0.252194
 Sum of Mulliken charges =  -0.00000
 Mulliken charges with hydrogens summed into heavy atoms:
               1
     1  O   -0.468947
     2  N    0.486887
     3  O   -0.497791
     4  C    0.011051
     5  C    0.473260
     6  N   -0.355162
     7  C    0.230348
     9  C    0.040729
    10  C   -0.001694
    11  C    0.043365
    12  C    0.032032
    13  C    0.160301
    15  N   -0.507420
    16  C    0.353040
 Electronic spatial extent (au):  <R**2>=           2999.0103
 Charge=             -0.0000 electrons
 Dipole moment (field-independent basis, Debye):
    X=              5.4998    Y=              4.8612    Z=              0.4825  Tot=              7.3561
 Quadrupole moment (field-independent basis, Debye-Ang):
   XX=           -106.1552   YY=            -78.7547   ZZ=            -82.2909
   XY=             -1.8298   XZ=              1.3787   YZ=             -0.2689
 Traceless Quadrupole moment (field-independent basis, Debye-Ang):
   XX=            -17.0883   YY=             10.3123   ZZ=              6.7760
   XY=             -1.8298   XZ=              1.3787   YZ=             -0.2689
 Octapole moment (field-independent basis, Debye-Ang**2):
  XXX=             92.7032  YYY=             38.2178  ZZZ=             -6.5372  XYY=             -5.2718
  XXY=             10.0641  XXZ=             -0.4278  XZZ=             -8.7044  YZZ=             -1.6977
  YYZ=              2.6527  XYZ=              2.6586
 Hexadecapole moment (field-independent basis, Debye-Ang**3):
 XXXX=          -3371.9242 YYYY=           -598.8433 ZZZZ=           -301.3200 XXXY=            -24.7735
 XXXZ=             13.3128 YYYX=            -10.7289 YYYZ=             14.7453 ZZZX=             14.4535
 ZZZY=              5.9024 XXYY=           -624.4189 XXZZ=           -524.8137 YYZZ=           -161.0867
 XXYZ=            -10.6520 YYXZ=              8.5483 ZZXY=              5.1619
 N-N= 9.317300730113D+02 E-N=-3.410151668655D+03  KE= 6.596285579299D+02
 Unable to Open any file for archive entry.
 1\1\GINC-LOTUS\FOpt\RMP2-FC\6-31G(d)\C9H13N3O2\ALEXEY\01-Jul-2023\0\\#
 MP2/6-31G* SCF=Tight Opt=(ModRedun, MaxCycle=20 ) NoSymm\\MolName:\\0,
 1\O,-3.5085599509,-1.3730446611,-0.3840220115\N,-3.1155392342,-0.24127
 71786,-0.0398998771\O,-3.8838584627,0.7022827404,0.2314073918\C,-1.679
 5318062,-0.0433684662,0.0845018955\C,-1.292791473,1.2713853549,0.17029
 56863\N,-0.0622668514,1.745818372,0.4206172137\C,1.1963318734,1.010106
 9186,0.386870675\H,1.8414197951,1.5254244461,1.1147332441\C,1.90490169
 39,1.0478990811,-0.9670437874\C,3.3058345199,0.4453783974,-0.812191064
 \C,3.2615133868,-0.9617700365,-0.2112279558\C,2.4638699541,-0.99724883
 33,1.0939215009\C,1.051584915,-0.4469840431,0.8664099229\H,0.476315932
 5,-0.4476798083,1.8058424458\N,0.4068224079,-1.3303692419,-0.107356830
 8\C,-0.8410982789,-1.1364428528,-0.3863911605\H,-2.086930414,2.0130778
 074,0.2093068684\H,0.0250330985,2.7566541547,0.4191991463\H,1.31503139
 88,0.4813648356,-1.6958417733\H,1.969649499,2.0829539955,-1.3269256306
 \H,3.8117038847,0.4275587924,-1.7843413458\H,3.9010348402,1.1025173013
 ,-0.1623619773\H,2.7880472742,-1.6477683384,-0.9204582894\H,4.28166640
 28,-1.3243897856,-0.0380112482\H,2.381513353,-2.0259199959,1.460109975
 2\H,2.9699976065,-0.4109232369,1.873181134\H,-1.3206853652,-1.86223571
 9,-1.0423041481\\Version=ES64L-G16RevC.02\HF=-661.2953968\MP2=-663.330
 75\RMSD=4.540e-09\RMSF=3.446e-03\Dipole=2.0040219,1.7041314,0.225731\P
 G=C01 [X(C9H13N3O2)]\\@
 The archive entry for this job was punched.


 The theorems and results in mathematical physics are
 not theorems and results about Nature, but about our
 description of it.
                   --Gerard 't Hooft
 Job cpu time:       0 days  1 hours 14 minutes 44.0 seconds.
 Elapsed time:       0 days  0 hours 22 minutes 25.6 seconds.
 File lengths (MBytes):  RWF=     36 Int=      0 D2E=      0 Chk=      7 Scr=      1
 Normal termination of Gaussian 16 at Sat Jul  1 04:05:41 2023.
