 Entering Gaussian System, Link 0=g09
 Initial command:
 /home/ana/programs/g09/l1.exe /home/ana/programs/g09/scratch/Gau-706841.inp -scrdir=/home/ana/programs/g09/scratch/
 Entering Link 1 = /home/ana/programs/g09/l1.exe PID=    706843.
  
 Copyright (c) 1988,1990,1992,1993,1995,1998,2003,2009, Gaussian, Inc.
                  All Rights Reserved.
  
 This is part of the Gaussian(R) 09 program.  It is based on
 the Gaussian(R) 03 system (copyright 2003, Gaussian, Inc.),
 the Gaussian(R) 98 system (copyright 1998, Gaussian, Inc.),
 the Gaussian(R) 94 system (copyright 1995, Gaussian, Inc.),
 the Gaussian 92(TM) system (copyright 1992, Gaussian, Inc.),
 the Gaussian 90(TM) system (copyright 1990, Gaussian, Inc.),
 the Gaussian 88(TM) system (copyright 1988, Gaussian, Inc.),
 the Gaussian 86(TM) system (copyright 1986, Carnegie Mellon
 University), and the Gaussian 82(TM) system (copyright 1983,
 Carnegie Mellon University). Gaussian is a federally registered
 trademark of Gaussian, Inc.
  
 This software contains proprietary and confidential information,
 including trade secrets, belonging to Gaussian, Inc.
  
 This software is provided under written license and may be
 used, copied, transmitted, or stored only in accord with that
 written license.
  
 The following legend is applicable only to US Government
 contracts under FAR:
  
                    RESTRICTED RIGHTS LEGEND
  
 Use, reproduction and disclosure by the US Government is
 subject to restrictions as set forth in subparagraphs (a)
 and (c) of the Commercial Computer Software - Restricted
 Rights clause in FAR 52.227-19.
  
 Gaussian, Inc.
 340 Quinnipiac St., Bldg. 40, Wallingford CT 06492
  
  
 ---------------------------------------------------------------
 Warning -- This program may not be used in any manner that
 competes with the business of Gaussian, Inc. or will provide
 assistance to any competitor of Gaussian, Inc.  The licensee
 of this program is prohibited from giving any competitor of
 Gaussian, Inc. access to this program.  By using this program,
 the user acknowledges that Gaussian, Inc. is engaged in the
 business of creating and licensing software in the field of
 computational chemistry and represents and warrants to the
 licensee that it is not a competitor of Gaussian, Inc. and that
 it will not use this program in any manner prohibited above.
 ---------------------------------------------------------------
  

 Cite this work as:
 Gaussian 09, Revision A.01,
 M. J. Frisch, G. W. Trucks, H. B. Schlegel, G. E. Scuseria, 
 M. A. Robb, J. R. Cheeseman, G. Scalmani, V. Barone, B. Mennucci, 
 G. A. Petersson, H. Nakatsuji, M. Caricato, X. Li, H. P. Hratchian, 
 A. F. Izmaylov, J. Bloino, G. Zheng, J. L. Sonnenberg, M. Hada, 
 M. Ehara, K. Toyota, R. Fukuda, J. Hasegawa, M. Ishida, T. Nakajima, 
 Y. Honda, O. Kitao, H. Nakai, T. Vreven, J. A. Montgomery, Jr., 
 J. E. Peralta, F. Ogliaro, M. Bearpark, J. J. Heyd, E. Brothers, 
 K. N. Kudin, V. N. Staroverov, R. Kobayashi, J. Normand, 
 K. Raghavachari, A. Rendell, J. C. Burant, S. S. Iyengar, J. Tomasi, 
 M. Cossi, N. Rega, J. M. Millam, M. Klene, J. E. Knox, J. B. Cross, 
 V. Bakken, C. Adamo, J. Jaramillo, R. Gomperts, R. E. Stratmann, 
 O. Yazyev, A. J. Austin, R. Cammi, C. Pomelli, J. W. Ochterski, 
 R. L. Martin, K. Morokuma, V. G. Zakrzewski, G. A. Voth, 
 P. Salvador, J. J. Dannenberg, S. Dapprich, A. D. Daniels, 
 O. Farkas, J. B. Foresman, J. V. Ortiz, J. Cioslowski, 
 and D. J. Fox, Gaussian, Inc., Wallingford CT, 2009.
 
 ******************************************
 Gaussian 09:  EM64L-G09RevA.01  8-May-2009
                24-Sep-2021 
 ******************************************
 %NPROC=4
 Will use up to    4 processors via shared memory.
 %NoSave
 ------------------------------
 #HF/6-31G* Opt=Z-matrix NoSymm
 ------------------------------
 1/10=7,18=40,38=1/1,3;
 2/12=2,15=1,17=6,18=5,29=3,40=1/2;
 3/5=1,6=6,7=1,11=9,16=1,25=1,30=1,71=1/1,2,3;
 4//1;
 5/5=2,38=5/2;
 6/7=2,8=2,9=2,10=2,28=1/1;
 7/29=1,30=1/1,2,3,16;
 1/10=7,18=40/3(2);
 2/15=1,29=3/2;
 99//99;
 2/15=1,29=3/2;
 3/5=1,6=6,7=1,11=9,16=1,25=1,30=1,71=1/1,2,3;
 4/5=5,16=3/1;
 5/5=2,38=5/2;
 7/30=1/1,2,3,16;
 1/18=40/3(-5);
 2/15=1,29=3/2;
 6/7=2,8=2,9=2,10=2,19=2,28=1/1;
 99/9=1/99;
 -------------------------------
 water interaction with atom H13
 -------------------------------
 Symbolic Z-matrix:
 Charge =  0 Multiplicity = 1
 9                    -1   -1.9693    2.05368   0.00007 
 6                    -1   -1.22225   0.94423   0.00003 
 6                    -1    0.14003   1.0574   -0.00002 
 6                    -1    0.92795  -0.12364  -0.00008 
 6                    -1    2.41466  -0.01865  -0.00001 
 9                    -1    3.00708  -1.23461  -0.00056 
 9                    -1    2.85829   0.65448  -1.08602 
 9                    -1    2.85827   0.6535    1.08665 
 6                    -1    0.30654  -1.34149  -0.00009 
 7                    -1   -1.05417  -1.38997  -0.00006 
 6                    -1   -1.9305   -0.3121    0. 
 16                   -1   -3.57098  -0.50661   0.00003 
 1                    -1    0.59686   2.0431   -0.00002 
 1                    -1    0.83176  -2.28899  -0.00015 
 1                    -1   -1.52148  -2.29639  -0.00009 
 X                    13   RDUM     3    ADUM     2    DOH      0
 X                    16   RDUM     13   ADUM     3    DD1      0
 OH2                  13   RX       16   ADUM     17   DD2      0
 H1                   18   ROH      13   AHOA     16   DH1      0
 H2                   18   ROH      13   AHOA     16   DH2      0
       Variables:
  RX                    3.0518                   
       Constants:
  RDUM                  1.                       
  ROH                   0.9572                   
  ADUM                 90.                       
  AHOA                127.74                     
  DOH                 180.                       
  DD1                   0.                       
  DD2                 180.                       
  DH1                   0.                       
  DH2                -180.                       
 

 GradGradGradGradGradGradGradGradGradGradGradGradGradGradGradGradGradGrad
 Berny optimization.
 Initialization pass.
                       ----------------------------
                       !    Initial Parameters    !
                       ! (Angstroms and Degrees)  !
 ----------------------                            ----------------------
 !      Name          Value   Derivative information (Atomic Units)     !
 ------------------------------------------------------------------------
 !       RX          3.0518   estimate D2E/DX2                          !
 !      RDUM         1.0      Frozen                                    !
 !       ROH         0.9572   Frozen                                    !
 !      ADUM        90.0      Frozen                                    !
 !      AHOA       127.74     Frozen                                    !
 !       DOH       180.0      Frozen                                    !
 !       DD1         0.0      Frozen                                    !
 !       DD2       180.0      Frozen                                    !
 !       DH1         0.0      Frozen                                    !
 !       DH2      -180.0      Frozen                                    !
 ------------------------------------------------------------------------
 Trust Radius=3.00D-01 FncErr=1.00D-07 GrdErr=1.00D-07
 Number of steps in this run=  20 maximum allowed number of steps= 100.
 GradGradGradGradGradGradGradGradGradGradGradGradGradGradGradGradGradGrad

 ---------------------------------------------------------------------------------------------------
                            Z-MATRIX (ANGSTROMS AND DEGREES)
   CD    Cent   Atom    N1       Length/X        N2       Alpha/Y        N3        Beta/Z          J
 ---------------------------------------------------------------------------------------------------
      1      1  F       -1  -1.969300          2.053680          0.000070
      2      2  C       -1  -1.222250          0.944230          0.000030
      3      3  C       -1   0.140030          1.057400         -0.000020
      4      4  C       -1   0.927950         -0.123640         -0.000080
      5      5  C       -1   2.414660         -0.018650         -0.000010
      6      6  F       -1   3.007080         -1.234610         -0.000560
      7      7  F       -1   2.858290          0.654480         -1.086020
      8      8  F       -1   2.858270          0.653500          1.086650
      9      9  C       -1   0.306540         -1.341490         -0.000090
     10     10  N       -1  -1.054170         -1.389970         -0.000060
     11     11  C       -1  -1.930500         -0.312100          0.000000
     12     12  S       -1  -3.570980         -0.506610          0.000030
     13     13  H       -1   0.596860          2.043100         -0.000020
     14     14  H       -1   0.831760         -2.288990         -0.000150
     15     15  H       -1  -1.521480         -2.296390         -0.000090
     16         X       13   1.000000(    15)      3   90.000(    33)      2  180.000(    50)      0
     17         X       16   1.000000(    16)     13   90.000(    34)      3    0.000(    51)      0
     18     16  O       13   3.051800(    17)     16   90.000(    35)     17  180.000(    52)      0
     19     17  H       18   0.957200(    18)     13  127.740(    36)     16    0.000(    53)      0
     20     18  H       18   0.957200(    19)     13  127.740(    37)     16 -180.000(    54)      0
 ---------------------------------------------------------------------------------------------------
                         Z-Matrix orientation:                         
 ---------------------------------------------------------------------
 Center     Atomic      Atomic             Coordinates (Angstroms)
 Number     Number       Type             X           Y           Z
 ---------------------------------------------------------------------
      1          9           0       -1.969300    2.053680    0.000070
      2          6           0       -1.222250    0.944230    0.000030
      3          6           0        0.140030    1.057400   -0.000020
      4          6           0        0.927950   -0.123640   -0.000080
      5          6           0        2.414660   -0.018650   -0.000010
      6          9           0        3.007080   -1.234610   -0.000560
      7          9           0        2.858290    0.654480   -1.086020
      8          9           0        2.858270    0.653500    1.086650
      9          6           0        0.306540   -1.341490   -0.000090
     10          7           0       -1.054170   -1.389970   -0.000060
     11          6           0       -1.930500   -0.312100    0.000000
     12         16           0       -3.570980   -0.506610    0.000030
     13          1           0        0.596860    2.043100   -0.000020
     14          1           0        0.831760   -2.288990   -0.000150
     15          1           0       -1.521480   -2.296390   -0.000090
     16         -1           0        1.504156    1.622607   -0.000062
     17         -1           0        1.083663    0.715311   -0.000062
     18          8           0        1.880120    4.811985   -0.000020
     19          1           0        2.813258    5.025262   -0.000052
     20          1           0        1.439702    5.661846    0.000012
 ---------------------------------------------------------------------
                    Distance matrix (angstroms):
                    1          2          3          4          5
     1  F    0.000000
     2  C    1.337521   0.000000
     3  C    2.332777   1.366973   0.000000
     4  C    3.624194   2.400772   1.419744   0.000000
     5  C    4.849088   3.762214   2.516312   1.490413   0.000000
     6  F    5.964663   4.757581   3.670597   2.357337   1.352598
     7  F    5.142274   4.232525   2.954772   2.347541   1.352527
     8  F    5.142625   4.232719   2.955134   2.347566   1.352555
     9  C    4.087374   2.749857   2.404662   1.367227   2.488790
    10  N    3.563171   2.340244   2.723184   2.352104   3.730054
    11  C    2.366098   1.442215   2.482463   2.864656   4.355058
    12  S    3.020011   2.760701   4.027123   4.515201   6.005497
    13  H    2.566182   2.125247   1.086415   2.191890   2.748674
    14  H    5.167661   3.830492   3.417136   2.167485   2.767673
    15  H    4.373060   3.254406   3.742796   3.274225   4.547669
    16  X    3.500103   2.809534   1.476583   1.838856   1.876897
    17  X    3.333439   2.317248   1.003727   0.853279   1.519952
    18  O    4.735640   4.958249   4.138215   5.026632   4.860120
    19  H    5.630555   5.739350   4.784357   5.483208   5.059637
    20  H    4.963885   5.416816   4.784357   5.808075   5.763556
                    6          7          8          9         10
     6  F    0.000000
     7  F    2.183809   0.000000
     8  F    2.183834   2.172670   0.000000
     9  C    2.702654   3.416807   3.416477   0.000000
    10  N    4.064221   4.546034   4.545756   1.361573   0.000000
    11  C    5.023019   5.004620   5.004549   2.462517   1.389157
    12  S    6.618222   6.622926   6.622828   3.966382   2.667332
    13  H    4.068482   2.867355   2.868068   3.397019   3.809445
    14  H    2.417382   3.734964   3.734451   1.083334   2.089251
    15  H    4.651369   5.391592   5.391203   2.062399   1.019792
    16  X    3.228385   1.987525   1.988401   3.196898   3.952297
    17  X    2.738928   2.081419   2.081825   2.198716   3.000423
    18  O    6.150720   4.406933   4.408019   6.351489   6.861072
    19  H    6.262871   4.503897   4.505024   6.842453   7.490807
    20  H    7.072325   5.316538   5.317579   7.094418   7.479807
                   11         12         13         14         15
    11  C    0.000000
    12  S    1.651971   0.000000
    13  H    3.454637   4.885889   0.000000
    14  H    3.396789   4.749842   4.338454   0.000000
    15  H    2.026007   2.720986   4.828927   2.353252   0.000000
    16  X    3.942075   5.503687   1.000000   3.968968   4.951061
    17  X    3.184455   4.812358   1.414214   3.014843   3.982099
    18  O    6.385693   7.615901   3.051800   7.177946   7.880348
    19  H    7.140775   8.447490   3.715603   7.577903   8.508615
    20  H    6.859030   7.947124   3.715603   7.974045   8.491297
                   16         17         18         19         20
    16  X    0.000000
    17  X    1.000000   0.000000
    18  O    3.211461   4.173378   0.000000
    19  H    3.645793   4.644047   0.957200   0.000000
    20  H    4.039753   4.959332   0.957200   1.513901   0.000000
 Symmetry turned off by external request.
 Stoichiometry    C6H5F4NOS
 Framework group  C1[X(C6H5F4NOS)]
 Deg. of freedom    48
 Full point group                 C1      NOp   1
 Rotational constants (GHZ):      0.8121215      0.3998846      0.2813248
 Standard basis: 6-31G(d) (6D, 7F)
 Integral buffers will be    131072 words long.
 Raffenetti 1 integral format.
 Two-electron integral symmetry is turned off.
   209 basis functions,   408 primitive gaussians,   209 cartesian basis functions
    54 alpha electrons       54 beta electrons
       nuclear repulsion energy       907.0048961936 Hartrees.
 NAtoms=   18 NActive=   18 NUniq=   18 SFac= 7.50D-01 NAtFMM=   80 NAOKFM=F Big=F
 One-electron integrals computed using PRISM.
 NBasis=   209 RedAO= T  NBF=   209
 NBsUse=   209 1.00D-06 NBFU=   209
 Harris functional with IExCor=  205 diagonalized for initial guess.
 ExpMin= 1.17D-01 ExpMax= 2.19D+04 ExpMxC= 3.30D+03 IAcc=1 IRadAn=         1 AccDes= 0.00D+00
 HarFok:  IExCor=  205 AccDes= 0.00D+00 IRadAn=         1 IDoV= 1
 ScaDFX=  1.000000  1.000000  1.000000  1.000000
 FoFCou: FMM=F IPFlag=           0 FMFlag=      100000 FMFlg1=           0
         NFxFlg=           0 DoJE=T BraDBF=F KetDBF=T FulRan=T
         Omega=  0.000000  0.000000  1.000000  0.000000  0.000000 ICntrl=     500 IOpCl=  0
         NMat0=    1 NMatS0=    1 NMatT0=    0 NMatD0=    1 NMtDS0=    0 NMtDT0=    0
         I1Cent=           4 NGrid=           0.
 Symmetry not used in FoFCou.
 Requested convergence on RMS density matrix=1.00D-08 within 128 cycles.
 Requested convergence on MAX density matrix=1.00D-06.
 Requested convergence on             energy=1.00D-06.
 No special actions if energy rises.
 Integral accuracy reduced to 1.0D-05 until final iterations.
 Initial convergence to 1.0D-05 achieved.  Increase integral accuracy.
 SCF Done:  E(RHF) =  -1154.67683016     A.U. after   15 cycles
             Convg  =    0.8248D-08             -V/T =  2.0019

 **********************************************************************

            Population analysis using the SCF density.

 **********************************************************************

 Alpha  occ. eigenvalues --  -91.89622 -26.36088 -26.34996 -26.34994 -26.32406
 Alpha  occ. eigenvalues --  -20.57207 -15.67931 -11.53311 -11.36974 -11.36089
 Alpha  occ. eigenvalues --  -11.35273 -11.30004 -11.29427  -8.90717  -6.59049
 Alpha  occ. eigenvalues --   -6.58769  -6.58647  -1.73240  -1.64286  -1.63666
 Alpha  occ. eigenvalues --   -1.63493  -1.35277  -1.34716  -1.16150  -1.11137
 Alpha  occ. eigenvalues --   -1.02071  -0.96278  -0.91644  -0.87348  -0.83944
 Alpha  occ. eigenvalues --   -0.82847  -0.82459  -0.76062  -0.74935  -0.72917
 Alpha  occ. eigenvalues --   -0.71781  -0.71404  -0.70731  -0.70303  -0.69091
 Alpha  occ. eigenvalues --   -0.66647  -0.66646  -0.65209  -0.63008  -0.61681
 Alpha  occ. eigenvalues --   -0.59771  -0.58534  -0.58151  -0.51722  -0.50932
 Alpha  occ. eigenvalues --   -0.45545  -0.42365  -0.33321  -0.30155
 Alpha virt. eigenvalues --    0.05451   0.09620   0.18380   0.19839   0.25913
 Alpha virt. eigenvalues --    0.26835   0.27543   0.28023   0.29689   0.31101
 Alpha virt. eigenvalues --    0.35111   0.36386   0.40253   0.41590   0.43510
 Alpha virt. eigenvalues --    0.43896   0.47478   0.50561   0.55078   0.56412
 Alpha virt. eigenvalues --    0.57410   0.60707   0.62047   0.65322   0.67708
 Alpha virt. eigenvalues --    0.68797   0.72851   0.74060   0.74586   0.76471
 Alpha virt. eigenvalues --    0.78162   0.78873   0.83799   0.85380   0.88469
 Alpha virt. eigenvalues --    0.90094   0.90909   0.93199   0.96102   1.00376
 Alpha virt. eigenvalues --    1.00601   1.01191   1.03395   1.03929   1.07358
 Alpha virt. eigenvalues --    1.10019   1.10671   1.14262   1.14976   1.15628
 Alpha virt. eigenvalues --    1.16095   1.16766   1.18815   1.25289   1.29005
 Alpha virt. eigenvalues --    1.29997   1.32542   1.32614   1.34267   1.35167
 Alpha virt. eigenvalues --    1.37009   1.37241   1.40044   1.42964   1.43102
 Alpha virt. eigenvalues --    1.43343   1.47414   1.48472   1.53043   1.61566
 Alpha virt. eigenvalues --    1.61654   1.62580   1.64732   1.65203   1.65478
 Alpha virt. eigenvalues --    1.66463   1.67433   1.68521   1.70605   1.71067
 Alpha virt. eigenvalues --    1.73197   1.77101   1.77304   1.82142   1.87589
 Alpha virt. eigenvalues --    1.90760   1.93391   1.94535   2.01096   2.02235
 Alpha virt. eigenvalues --    2.02424   2.05316   2.05547   2.07104   2.10286
 Alpha virt. eigenvalues --    2.11027   2.13306   2.13579   2.18997   2.21247
 Alpha virt. eigenvalues --    2.23548   2.23561   2.25571   2.29356   2.30635
 Alpha virt. eigenvalues --    2.31833   2.33560   2.34620   2.35803   2.36987
 Alpha virt. eigenvalues --    2.38788   2.40169   2.44328   2.46142   2.46480
 Alpha virt. eigenvalues --    2.48045   2.53126   2.61417   2.61883   2.62902
 Alpha virt. eigenvalues --    2.66462   2.69315   2.76129   2.83769   2.85522
 Alpha virt. eigenvalues --    2.85751   2.92606   2.93509   2.93914   2.94258
 Alpha virt. eigenvalues --    3.01343   3.08274   3.10508   3.18254   3.22988
 Alpha virt. eigenvalues --    3.30528   3.38337   3.39304   3.43946   3.45411
 Alpha virt. eigenvalues --    3.50396   3.72157   3.98590   4.37259   4.40894
 Alpha virt. eigenvalues --    4.46347   4.49208   4.61173   4.65248   4.69631
 Alpha virt. eigenvalues --    4.82902   5.02581   5.16414   5.59059   6.02730
          Condensed to atoms (all electrons):
              1          2          3          4          5          6
     1  F    9.161960   0.266555  -0.033303   0.002203  -0.000015   0.000000
     2  C    0.266555   4.582672   0.565967  -0.025354   0.000925  -0.000019
     3  C   -0.033303   0.565967   5.094905   0.351124  -0.011629   0.002152
     4  C    0.002203  -0.025354   0.351124   5.211140   0.415197  -0.045603
     5  C   -0.000015   0.000925  -0.011629   0.415197   3.549707   0.288160
     6  F    0.000000  -0.000019   0.002152  -0.045603   0.288160   9.191432
     7  F    0.000000   0.000289   0.004879  -0.054975   0.284904  -0.030744
     8  F    0.000000   0.000288   0.004873  -0.054982   0.284909  -0.030744
     9  C    0.000134  -0.023666  -0.053180   0.589857  -0.021283   0.005600
    10  N    0.001383  -0.052436  -0.021825  -0.035184   0.001226   0.000240
    11  C   -0.041041   0.382114  -0.078619  -0.001488   0.000069   0.000002
    12  S    0.003628  -0.083582   0.001648  -0.000075   0.000006   0.000000
    13  H   -0.000288  -0.016435   0.356080  -0.028152  -0.000409   0.000035
    14  H    0.000000  -0.000137   0.001915  -0.022841  -0.000216   0.005060
    15  H   -0.000019   0.003878  -0.000608   0.002389  -0.000014   0.000001
    16  O    0.000000   0.000005  -0.001478   0.000007  -0.000008   0.000000
    17  H    0.000000   0.000000   0.000055  -0.000002   0.000003   0.000000
    18  H    0.000000  -0.000001   0.000054   0.000000   0.000000   0.000000
              7          8          9         10         11         12
     1  F    0.000000   0.000000   0.000134   0.001383  -0.041041   0.003628
     2  C    0.000289   0.000288  -0.023666  -0.052436   0.382114  -0.083582
     3  C    0.004879   0.004873  -0.053180  -0.021825  -0.078619   0.001648
     4  C   -0.054975  -0.054982   0.589857  -0.035184  -0.001488  -0.000075
     5  C    0.284904   0.284909  -0.021283   0.001226   0.000069   0.000006
     6  F   -0.030744  -0.030744   0.005600   0.000240   0.000002   0.000000
     7  F    9.201310  -0.033872   0.000516  -0.000006  -0.000002   0.000000
     8  F   -0.033872   9.201333   0.000512  -0.000006  -0.000002   0.000000
     9  C    0.000516   0.000512   4.741354   0.264540  -0.038745   0.003395
    10  N   -0.000006  -0.000006   0.264540   7.233112   0.214877  -0.104535
    11  C   -0.000002  -0.000002  -0.038745   0.214877   4.951439   0.441586
    12  S    0.000000   0.000000   0.003395  -0.104535   0.441586  15.968976
    13  H    0.000848   0.000845   0.002366  -0.000268   0.002543  -0.000045
    14  H    0.000084   0.000084   0.380599  -0.032583   0.000978  -0.000136
    15  H    0.000000   0.000000  -0.021792   0.310312  -0.018121   0.013961
    16  O    0.000000   0.000000   0.000000   0.000000   0.000000   0.000000
    17  H    0.000001   0.000001   0.000000   0.000000   0.000000   0.000000
    18  H    0.000000   0.000000   0.000000   0.000000   0.000000   0.000000
             13         14         15         16         17         18
     1  F   -0.000288   0.000000  -0.000019   0.000000   0.000000   0.000000
     2  C   -0.016435  -0.000137   0.003878   0.000005   0.000000  -0.000001
     3  C    0.356080   0.001915  -0.000608  -0.001478   0.000055   0.000054
     4  C   -0.028152  -0.022841   0.002389   0.000007  -0.000002   0.000000
     5  C   -0.000409  -0.000216  -0.000014  -0.000008   0.000003   0.000000
     6  F    0.000035   0.005060   0.000001   0.000000   0.000000   0.000000
     7  F    0.000848   0.000084   0.000000   0.000000   0.000001   0.000000
     8  F    0.000845   0.000084   0.000000   0.000000   0.000001   0.000000
     9  C    0.002366   0.380599  -0.021792   0.000000   0.000000   0.000000
    10  N   -0.000268  -0.032583   0.310312   0.000000   0.000000   0.000000
    11  C    0.002543   0.000978  -0.018121   0.000000   0.000000   0.000000
    12  S   -0.000045  -0.000136   0.013961   0.000000   0.000000   0.000000
    13  H    0.365314  -0.000055   0.000007   0.006556  -0.000223  -0.000219
    14  H   -0.000055   0.384795  -0.002167   0.000000   0.000000   0.000000
    15  H    0.000007  -0.002167   0.272543   0.000000   0.000000   0.000000
    16  O    0.006556   0.000000   0.000000   8.335859   0.265636   0.265788
    17  H   -0.000223   0.000000   0.000000   0.265636   0.314016  -0.018233
    18  H   -0.000219   0.000000   0.000000   0.265788  -0.018233   0.313167
 Mulliken atomic charges:
              1
     1  F   -0.361199
     2  C    0.398937
     3  C   -0.183009
     4  C   -0.303261
     5  C    1.208466
     6  F   -0.385571
     7  F   -0.373231
     8  F   -0.373238
     9  C    0.169795
    10  N   -0.778846
    11  C    0.184410
    12  S   -0.244826
    13  H    0.311500
    14  H    0.284620
    15  H    0.439628
    16  O   -0.872364
    17  H    0.438746
    18  H    0.439444
 Sum of Mulliken atomic charges =   0.00000
 Mulliken charges with hydrogens summed into heavy atoms:
              1
     1  F   -0.361199
     2  C    0.398937
     3  C    0.128491
     4  C   -0.303261
     5  C    1.208466
     6  F   -0.385571
     7  F   -0.373231
     8  F   -0.373238
     9  C    0.454415
    10  N   -0.339218
    11  C    0.184410
    12  S   -0.244826
    16  O    0.005826
 Sum of Mulliken charges with hydrogens summed into heavy atoms =   0.00000
 Electronic spatial extent (au):  <R**2>=           3629.5545
 Charge=              0.0000 electrons
 Dipole moment (field-independent basis, Debye):
    X=              4.7825    Y=             -0.2276    Z=             -0.0004  Tot=              4.7879
 Quadrupole moment (field-independent basis, Debye-Ang):
   XX=           -100.5888   YY=            -49.4278   ZZ=            -82.5657
   XY=             10.2007   XZ=             -0.0003   YZ=              0.0003
 Traceless Quadrupole moment (field-independent basis, Debye-Ang):
   XX=            -23.0613   YY=             28.0996   ZZ=             -5.0383
   XY=             10.2007   XZ=             -0.0003   YZ=              0.0003
 Octapole moment (field-independent basis, Debye-Ang**2):
  XXX=             93.1008  YYY=             63.8894  ZZZ=             -0.0007  XYY=             68.0238
  XXY=              7.2284  XXZ=             -0.0022  XZZ=              3.2812  YZZ=            -30.5477
  YYZ=              0.0006  XYZ=             -0.0010
 Hexadecapole moment (field-independent basis, Debye-Ang**3):
 XXXX=          -2755.5354 YYYY=           -238.1231 ZZZZ=           -143.5544 XXXY=            -94.7781
 XXXZ=              0.0035 YYYX=            191.1625 YYYZ=             -0.0005 ZZZX=              0.0017
 ZZZY=             -0.0046 XXYY=           -497.0475 XXZZ=           -472.4389 YYZZ=           -283.8656
 XXYZ=             -0.0056 YYXZ=              0.0047 ZZXY=            -83.3890
 N-N= 9.070048961936D+02 E-N=-4.552685656039D+03  KE= 1.152541566641D+03
 Calling FoFJK, ICntrl=      2127 FMM=F ISym2X=0 I1Cent= 0 IOpClX= 0 NMat=1 NMatS=1 NMatT=0.
 -------------------------------------------------------------------
 Center     Atomic                   Forces (Hartrees/Bohr)
 Number     Number              X              Y              Z
 -------------------------------------------------------------------
      1        9           0.000000000    0.000000000    0.000000000
      2        6           0.000000000    0.000000000    0.000000000
      3        6           0.000000000    0.000000000    0.000000000
      4        6           0.000000000    0.000000000    0.000000000
      5        6           0.000000000    0.000000000    0.000000000
      6        9           0.000000000    0.000000000    0.000000000
      7        9           0.000000000    0.000000000    0.000000000
      8        9           0.000000000    0.000000000    0.000000000
      9        6           0.000000000    0.000000000    0.000000000
     10        7           0.000000000    0.000000000    0.000000000
     11        6           0.000000000    0.000000000    0.000000000
     12       16           0.000000000    0.000000000    0.000000000
     13        1           0.000000000    0.000000000    0.000000000
     14        1           0.000000000    0.000000000    0.000000000
     15        1           0.000000000    0.000000000    0.000000000
     16        8           0.005867713    0.012357497    0.000000093
     17        1          -0.009611281   -0.004018879    0.000000235
     18        1           0.003038194   -0.009946101   -0.000000275
 -------------------------------------------------------------------
 Cartesian Forces:  Max     0.012357497 RMS     0.002734625
 -----------------------------------------------------------------------------------------------
                       Internal Coordinate Forces (Hartree/Bohr or radian)
  Cent   Atom   N1       Length/X         N2         Alpha/Y        N3         Beta/Z          J
 -----------------------------------------------------------------------------------------------
      1  F 
      2  C 
      3  C 
      4  C 
      5  C 
      6  F 
      7  F 
      8  F 
      9  C 
     10  N 
     11  C 
     12  S 
     13  H 
     14  H 
     15  H 
         X       13   0.000000(     1)      3  -0.000022(     6)      2   0.000000(    11)     0
         X       16   0.000000(     2)     13   0.000000(     7)      3   0.000000(    12)     0
     16  O       13  -0.001755(     3)     16  -0.000022(     8)     17   0.000000(    13)     0
     17  H       18  -0.010265(     4)     13  -0.003213(     9)     16   0.000000(    14)     0
     18  H       18  -0.010229(     5)     13  -0.003398(    10)     16   0.000000(    15)     0
 -----------------------------------------------------------------------------------------------
 Internal  Forces:  Max     0.010265122 RMS     0.003957722

 GradGradGradGradGradGradGradGradGradGradGradGradGradGradGradGradGradGrad
 Berny optimization.
 Search for a local minimum.
 Step number   1 out of a maximum of   20
 All quantities printed in internal units (Hartrees-Bohrs-Radians)
 Second derivative matrix not updated -- first step.
 The second derivative matrix:
                          RX       RDUM       ROH      ADUM      AHOA
           RX           0.01092
           RDUM         0.00000   0.00000
           ROH          0.00000   0.00000   1.12160
           ADUM         0.00000   0.00000   0.00000   1.00000
           AHOA         0.00000   0.00000   0.00000   0.00000   0.96000
           DOH          0.00000   0.00000   0.00000   0.00000   0.00000
           DD1          0.00000   0.00000   0.00000   0.00000   0.00000
           DD2          0.00000   0.00000   0.00000   0.00000   0.00000
           DH1          0.00000   0.00000   0.00000   0.00000   0.00000
           DH2          0.00000   0.00000   0.00000   0.00000   0.00000
                          DOH       DD1       DD2       DH1       DH2
           DOH          0.00000
           DD1          0.00000   0.30596
           DD2          0.00000  -0.30596   0.30596
           DH1          0.00000  -0.00798   0.00798   0.02814
           DH2          0.00000   0.00798  -0.00798  -0.02814   0.02814
     Eigenvalues ---    0.010921000.000001000.000001000.000001000.00000
     Eigenvalues --- 1000.000001000.000001000.000001000.000001000.00000
 RFO step:  Lambda=-2.75137469D-04 EMin= 1.09203807D-02
 Linear search not attempted -- first point.
 Variable       Old X    -DE/DX   Delta X   Delta X   Delta X     New X
                                 (Linear)    (Quad)   (Total)
    RX        5.76707  -0.00176   0.00000  -0.15677  -0.15677   5.61030
   RDUM       1.88973   0.00000   0.00000   0.00000   0.00000   1.88973
   ROH        1.80885  -0.02049   0.00000   0.00000   0.00000   1.80885
   ADUM       1.57080  -0.00004   0.00000   0.00000   0.00000   1.57080
   AHOA       2.22948  -0.00661   0.00000   0.00000   0.00000   2.22948
   DOH        3.14159   0.00000   0.00000   0.00000   0.00000   3.14159
   DD1        0.00000   0.00000   0.00000   0.00000   0.00000   0.00000
   DD2        3.14159   0.00000   0.00000   0.00000   0.00000   3.14159
   DH1        0.00000   0.00000   0.00000   0.00000   0.00000   0.00000
   DH2       -3.14159   0.00000   0.00000   0.00000   0.00000  -3.14159
         Item               Value     Threshold  Converged?
 Maximum Force            0.001755     0.000450     NO 
 RMS     Force            0.001755     0.000300     NO 
 Maximum Displacement     0.156765     0.001800     NO 
 RMS     Displacement     0.049573     0.001200     NO 
 Predicted change in Energy=-1.409474D-04
 GradGradGradGradGradGradGradGradGradGradGradGradGradGradGradGradGradGrad

 ---------------------------------------------------------------------------------------------------
                            Z-MATRIX (ANGSTROMS AND DEGREES)
   CD    Cent   Atom    N1       Length/X        N2       Alpha/Y        N3        Beta/Z          J
 ---------------------------------------------------------------------------------------------------
      1      1  F       -1  -1.969300          2.053680          0.000070
      2      2  C       -1  -1.222250          0.944230          0.000030
      3      3  C       -1   0.140030          1.057400         -0.000020
      4      4  C       -1   0.927950         -0.123640         -0.000080
      5      5  C       -1   2.414660         -0.018650         -0.000010
      6      6  F       -1   3.007080         -1.234610         -0.000560
      7      7  F       -1   2.858290          0.654480         -1.086020
      8      8  F       -1   2.858270          0.653500          1.086650
      9      9  C       -1   0.306540         -1.341490         -0.000090
     10     10  N       -1  -1.054170         -1.389970         -0.000060
     11     11  C       -1  -1.930500         -0.312100          0.000000
     12     12  S       -1  -3.570980         -0.506610          0.000030
     13     13  H       -1   0.596860          2.043100         -0.000020
     14     14  H       -1   0.831760         -2.288990         -0.000150
     15     15  H       -1  -1.521480         -2.296390         -0.000090
     16         X       13   1.000000(    15)      3   90.000(    33)      2  180.000(    50)      0
     17         X       16   1.000000(    16)     13   90.000(    34)      3    0.000(    51)      0
     18     16  O       13   2.968843(    17)     16   90.000(    35)     17  180.000(    52)      0
     19     17  H       18   0.957200(    18)     13  127.740(    36)     16    0.000(    53)      0
     20     18  H       18   0.957200(    19)     13  127.740(    37)     16 -180.000(    54)      0
 ---------------------------------------------------------------------------------------------------
                         Z-Matrix orientation:                         
 ---------------------------------------------------------------------
 Center     Atomic      Atomic             Coordinates (Angstroms)
 Number     Number       Type             X           Y           Z
 ---------------------------------------------------------------------
      1          9           0       -1.969300    2.053680    0.000070
      2          6           0       -1.222250    0.944230    0.000030
      3          6           0        0.140030    1.057400   -0.000020
      4          6           0        0.927950   -0.123640   -0.000080
      5          6           0        2.414660   -0.018650   -0.000010
      6          9           0        3.007080   -1.234610   -0.000560
      7          9           0        2.858290    0.654480   -1.086020
      8          9           0        2.858270    0.653500    1.086650
      9          6           0        0.306540   -1.341490   -0.000090
     10          7           0       -1.054170   -1.389970   -0.000060
     11          6           0       -1.930500   -0.312100    0.000000
     12         16           0       -3.570980   -0.506610    0.000030
     13          1           0        0.596860    2.043100   -0.000020
     14          1           0        0.831760   -2.288990   -0.000150
     15          1           0       -1.521480   -2.296390   -0.000090
     16         -1           0        1.504156    1.622607   -0.000062
     17         -1           0        1.083663    0.715311   -0.000062
     18          8           0        1.845238    4.736719   -0.000020
     19          1           0        2.778375    4.949995   -0.000052
     20          1           0        1.404819    5.586580    0.000012
 ---------------------------------------------------------------------
                    Distance matrix (angstroms):
                    1          2          3          4          5
     1  F    0.000000
     2  C    1.337521   0.000000
     3  C    2.332777   1.366973   0.000000
     4  C    3.624194   2.400772   1.419744   0.000000
     5  C    4.849088   3.762214   2.516312   1.490413   0.000000
     6  F    5.964663   4.757581   3.670597   2.357337   1.352598
     7  F    5.142274   4.232525   2.954772   2.347541   1.352527
     8  F    5.142625   4.232719   2.955134   2.347566   1.352555
     9  C    4.087374   2.749857   2.404662   1.367227   2.488790
    10  N    3.563171   2.340244   2.723184   2.352104   3.730054
    11  C    2.366098   1.442215   2.482463   2.864656   4.355058
    12  S    3.020011   2.760701   4.027123   4.515201   6.005497
    13  H    2.566182   2.125247   1.086415   2.191890   2.748674
    14  H    5.167661   3.830492   3.417136   2.167485   2.767673
    15  H    4.373060   3.254406   3.742796   3.274225   4.547669
    16  X    3.500103   2.809534   1.476583   1.838856   1.876897
    17  X    3.333439   2.317248   1.003727   0.853279   1.519952
    18  O    4.663625   4.877751   4.055259   4.946161   4.789340
    19  H    5.561390   5.661374   4.702464   5.400542   4.981940
    20  H    4.885291   5.334127   4.702464   5.730097   5.695470
                    6          7          8          9         10
     6  F    0.000000
     7  F    2.183809   0.000000
     8  F    2.183834   2.172670   0.000000
     9  C    2.702654   3.416807   3.416477   0.000000
    10  N    4.064221   4.546034   4.545756   1.361573   0.000000
    11  C    5.023019   5.004620   5.004549   2.462517   1.389157
    12  S    6.618222   6.622926   6.622828   3.966382   2.667332
    13  H    4.068482   2.867355   2.868068   3.397019   3.809445
    14  H    2.417382   3.734964   3.734451   1.083334   2.089251
    15  H    4.651369   5.391592   5.391203   2.062399   1.019792
    16  X    3.228385   1.987525   1.988401   3.196898   3.952297
    17  X    2.738928   2.081419   2.081825   2.198716   3.000423
    18  O    6.083309   4.344001   4.345085   6.269946   6.778118
    19  H    6.188833   4.431384   4.432514   6.759642   7.408344
    20  H    7.006845   5.255250   5.256290   7.014583   7.397221
                   11         12         13         14         15
    11  C    0.000000
    12  S    1.651971   0.000000
    13  H    3.454637   4.885889   0.000000
    14  H    3.396789   4.749842   4.338454   0.000000
    15  H    2.026007   2.720986   4.828927   2.353252   0.000000
    16  X    3.942075   5.503687   1.000000   3.968968   4.951061
    17  X    3.184455   4.812358   1.414214   3.014843   3.982099
    18  O    6.304504   7.538429   2.968843   7.098431   7.797398
    19  H    7.061385   8.371909   3.634426   7.496147   8.426082
    20  H    6.776340   7.866737   3.634426   7.896392   8.408593
                   16         17         18         19         20
    16  X    0.000000
    17  X    1.000000   0.000000
    18  O    3.132735   4.092886   0.000000
    19  H    3.563025   4.561206   0.957200   0.000000
    20  H    3.965217   4.881844   0.957200   1.513901   0.000000
 Symmetry turned off by external request.
 Stoichiometry    C6H5F4NOS
 Framework group  C1[X(C6H5F4NOS)]
 Deg. of freedom    48
 Full point group                 C1      NOp   1
 Rotational constants (GHZ):      0.8243786      0.4014194      0.2835479
 Standard basis: 6-31G(d) (6D, 7F)
 Integral buffers will be    131072 words long.
 Raffenetti 1 integral format.
 Two-electron integral symmetry is turned off.
   209 basis functions,   408 primitive gaussians,   209 cartesian basis functions
    54 alpha electrons       54 beta electrons
       nuclear repulsion energy       908.3470771338 Hartrees.
 NAtoms=   18 NActive=   18 NUniq=   18 SFac= 7.50D-01 NAtFMM=   80 NAOKFM=F Big=F
 One-electron integrals computed using PRISM.
 NBasis=   209 RedAO= T  NBF=   209
 NBsUse=   209 1.00D-06 NBFU=   209
 Initial guess read from the read-write file.
 B after Tr=     0.000000    0.000000    0.000000
         Rot=    1.000000    0.000000    0.000000    0.000000 Ang=   0.00 deg.
 Harris functional with IExCor=  205 diagonalized for initial guess.
 ExpMin= 1.17D-01 ExpMax= 2.19D+04 ExpMxC= 3.30D+03 IAcc=1 IRadAn=         1 AccDes= 0.00D+00
 HarFok:  IExCor=  205 AccDes= 0.00D+00 IRadAn=         1 IDoV= 1
 ScaDFX=  1.000000  1.000000  1.000000  1.000000
 FoFCou: FMM=F IPFlag=           0 FMFlag=      100000 FMFlg1=           0
         NFxFlg=           0 DoJE=T BraDBF=F KetDBF=T FulRan=T
         Omega=  0.000000  0.000000  1.000000  0.000000  0.000000 ICntrl=     500 IOpCl=  0
         NMat0=    1 NMatS0=    1 NMatT0=    0 NMatD0=    1 NMtDS0=    0 NMtDT0=    0
         I1Cent=           4 NGrid=           0.
 Symmetry not used in FoFCou.
 Requested convergence on RMS density matrix=1.00D-08 within 128 cycles.
 Requested convergence on MAX density matrix=1.00D-06.
 Requested convergence on             energy=1.00D-06.
 No special actions if energy rises.
 Integral accuracy reduced to 1.0D-05 until final iterations.
 Initial convergence to 1.0D-05 achieved.  Increase integral accuracy.
 SCF Done:  E(RHF) =  -1154.67710850     A.U. after   10 cycles
             Convg  =    0.3830D-08             -V/T =  2.0019
 Calling FoFJK, ICntrl=      2127 FMM=F ISym2X=0 I1Cent= 0 IOpClX= 0 NMat=1 NMatS=1 NMatT=0.
 -------------------------------------------------------------------
 Center     Atomic                   Forces (Hartrees/Bohr)
 Number     Number              X              Y              Z
 -------------------------------------------------------------------
      1        9           0.000000000    0.000000000    0.000000000
      2        6           0.000000000    0.000000000    0.000000000
      3        6           0.000000000    0.000000000    0.000000000
      4        6           0.000000000    0.000000000    0.000000000
      5        6           0.000000000    0.000000000    0.000000000
      6        9           0.000000000    0.000000000    0.000000000
      7        9           0.000000000    0.000000000    0.000000000
      8        9           0.000000000    0.000000000    0.000000000
      9        6           0.000000000    0.000000000    0.000000000
     10        7           0.000000000    0.000000000    0.000000000
     11        6           0.000000000    0.000000000    0.000000000
     12       16           0.000000000    0.000000000    0.000000000
     13        1           0.000000000    0.000000000    0.000000000
     14        1           0.000000000    0.000000000    0.000000000
     15        1           0.000000000    0.000000000    0.000000000
     16        8           0.005892458    0.012385699    0.000000102
     17        1          -0.009580669   -0.004073443    0.000000223
     18        1           0.002973548   -0.009958958   -0.000000270
 -------------------------------------------------------------------
 Cartesian Forces:  Max     0.012385699 RMS     0.002737029
 -----------------------------------------------------------------------------------------------
                       Internal Coordinate Forces (Hartree/Bohr or radian)
  Cent   Atom   N1       Length/X         N2         Alpha/Y        N3         Beta/Z          J
 -----------------------------------------------------------------------------------------------
      1  F 
      2  C 
      3  C 
      4  C 
      5  C 
      6  F 
      7  F 
      8  F 
      9  C 
     10  N 
     11  C 
     12  S 
     13  H 
     14  H 
     15  H 
         X       13   0.000000(     1)      3  -0.000056(     6)      2   0.000000(    11)     0
         X       16   0.000000(     2)     13   0.000000(     7)      3   0.000000(    12)     0
     16  O       13  -0.001795(     3)     16  -0.000056(     8)     17   0.000000(    13)     0
     17  H       18  -0.010247(     4)     13  -0.003322(     9)     16   0.000000(    14)     0
     18  H       18  -0.010210(     5)     13  -0.003513(    10)     16   0.000000(    15)     0
 -----------------------------------------------------------------------------------------------
 Internal  Forces:  Max     0.010247438 RMS     0.003965369

 GradGradGradGradGradGradGradGradGradGradGradGradGradGradGradGradGradGrad
 Berny optimization.
 Search for a local minimum.
 Step number   2 out of a maximum of   20
 All quantities printed in internal units (Hartrees-Bohrs-Radians)
 Update second derivatives using D2CorN and points    1    2
 DE= -2.78D-04 DEPred=-1.41D-04 R= 1.97D+00
 SS=  1.41D+00  RLast= 1.57D-01 DXNew= 5.0454D-01 4.7030D-01
 Trust test= 1.97D+00 RLast= 1.57D-01 DXMaxT set to 4.70D-01
 The second derivative matrix:
                          RX       RDUM       ROH      ADUM      AHOA
           RX          -0.00025
           RDUM         0.00000   0.00000
           ROH          0.00011   0.00000   1.12160
           ADUM        -0.00021   0.00000   0.00000   1.00000
           AHOA        -0.00071   0.00000   0.00000   0.00000   0.96000
           DOH          0.00000   0.00000   0.00000   0.00000   0.00000
           DD1          0.00000   0.00000   0.00000   0.00000   0.00000
           DD2          0.00000   0.00000   0.00000   0.00000   0.00000
           DH1          0.00000   0.00000   0.00000   0.00000   0.00000
           DH2          0.00000   0.00000   0.00000   0.00000   0.00000
                          DOH       DD1       DD2       DH1       DH2
           DOH          0.00000
           DD1          0.00000   0.30596
           DD2          0.00000  -0.30596   0.30596
           DH1          0.00000  -0.00798   0.00798   0.02814
           DH2          0.00000   0.00798  -0.00798  -0.02814   0.02814
     Eigenvalues ---   -0.000251000.000001000.000001000.000001000.00000
     Eigenvalues --- 1000.000001000.000001000.000001000.000001000.00000
 RFO step:  Lambda=-1.92492244D-03 EMin=-2.51903511D-04
 Skip linear search -- no minimum in search direction.
 Maximum step size (   0.470) exceeded in Quadratic search.
    -- Step size scaled by   0.470
 Variable       Old X    -DE/DX   Delta X   Delta X   Delta X     New X
                                 (Linear)    (Quad)   (Total)
    RX        5.61030  -0.00179   0.00000  -0.47030  -0.47030   5.14001
   RDUM       1.88973   0.00000   0.00000   0.00000   0.00000   1.88973
   ROH        1.80885  -0.02046   0.00000   0.00000   0.00000   1.80885
   ADUM       1.57080  -0.00011   0.00000   0.00000   0.00000   1.57080
   AHOA       2.22948  -0.00683   0.00000   0.00000   0.00000   2.22948
   DOH        3.14159   0.00000   0.00000   0.00000   0.00000   3.14159
   DD1        0.00000   0.00000   0.00000   0.00000   0.00000   0.00000
   DD2        3.14159   0.00000   0.00000   0.00000   0.00000   3.14159
   DH1        0.00000   0.00000   0.00000   0.00000   0.00000   0.00000
   DH2       -3.14159   0.00000   0.00000   0.00000   0.00000  -3.14159
         Item               Value     Threshold  Converged?
 Maximum Force            0.001795     0.000450     NO 
 RMS     Force            0.001795     0.000300     NO 
 Maximum Displacement     0.470295     0.001800     NO 
 RMS     Displacement     0.148720     0.001200     NO 
 Predicted change in Energy=-8.718291D-04
 GradGradGradGradGradGradGradGradGradGradGradGradGradGradGradGradGradGrad

 ---------------------------------------------------------------------------------------------------
                            Z-MATRIX (ANGSTROMS AND DEGREES)
   CD    Cent   Atom    N1       Length/X        N2       Alpha/Y        N3        Beta/Z          J
 ---------------------------------------------------------------------------------------------------
      1      1  F       -1  -1.969300          2.053680          0.000070
      2      2  C       -1  -1.222250          0.944230          0.000030
      3      3  C       -1   0.140030          1.057400         -0.000020
      4      4  C       -1   0.927950         -0.123640         -0.000080
      5      5  C       -1   2.414660         -0.018650         -0.000010
      6      6  F       -1   3.007080         -1.234610         -0.000560
      7      7  F       -1   2.858290          0.654480         -1.086020
      8      8  F       -1   2.858270          0.653500          1.086650
      9      9  C       -1   0.306540         -1.341490         -0.000090
     10     10  N       -1  -1.054170         -1.389970         -0.000060
     11     11  C       -1  -1.930500         -0.312100          0.000000
     12     12  S       -1  -3.570980         -0.506610          0.000030
     13     13  H       -1   0.596860          2.043100         -0.000020
     14     14  H       -1   0.831760         -2.288990         -0.000150
     15     15  H       -1  -1.521480         -2.296390         -0.000090
     16         X       13   1.000000(    15)      3   90.000(    33)      2  180.000(    50)      0
     17         X       16   1.000000(    16)     13   90.000(    34)      3    0.000(    51)      0
     18     16  O       13   2.719974(    17)     16   90.000(    35)     17  180.000(    52)      0
     19     17  H       18   0.957200(    18)     13  127.740(    36)     16    0.000(    53)      0
     20     18  H       18   0.957200(    19)     13  127.740(    37)     16 -180.000(    54)      0
 ---------------------------------------------------------------------------------------------------
                         Z-Matrix orientation:                         
 ---------------------------------------------------------------------
 Center     Atomic      Atomic             Coordinates (Angstroms)
 Number     Number       Type             X           Y           Z
 ---------------------------------------------------------------------
      1          9           0       -1.969300    2.053680    0.000070
      2          6           0       -1.222250    0.944230    0.000030
      3          6           0        0.140030    1.057400   -0.000020
      4          6           0        0.927950   -0.123640   -0.000080
      5          6           0        2.414660   -0.018650   -0.000010
      6          9           0        3.007080   -1.234610   -0.000560
      7          9           0        2.858290    0.654480   -1.086020
      8          9           0        2.858270    0.653500    1.086650
      9          6           0        0.306540   -1.341490   -0.000090
     10          7           0       -1.054170   -1.389970   -0.000060
     11          6           0       -1.930500   -0.312100    0.000000
     12         16           0       -3.570980   -0.506610    0.000030
     13          1           0        0.596860    2.043100   -0.000020
     14          1           0        0.831760   -2.288990   -0.000150
     15          1           0       -1.521480   -2.296390   -0.000090
     16         -1           0        1.504156    1.622607   -0.000062
     17         -1           0        1.083663    0.715311   -0.000062
     18          8           0        1.740590    4.510921   -0.000020
     19          1           0        2.673727    4.724197   -0.000052
     20          1           0        1.300171    5.360782    0.000012
 ---------------------------------------------------------------------
                    Distance matrix (angstroms):
                    1          2          3          4          5
     1  F    0.000000
     2  C    1.337521   0.000000
     3  C    2.332777   1.366973   0.000000
     4  C    3.624194   2.400772   1.419744   0.000000
     5  C    4.849088   3.762214   2.516312   1.490413   0.000000
     6  F    5.964663   4.757581   3.670597   2.357337   1.352598
     7  F    5.142274   4.232525   2.954772   2.347541   1.352527
     8  F    5.142625   4.232719   2.955134   2.347566   1.352555
     9  C    4.087374   2.749857   2.404662   1.367227   2.488790
    10  N    3.563171   2.340244   2.723184   2.352104   3.730054
    11  C    2.366098   1.442215   2.482463   2.864656   4.355058
    12  S    3.020011   2.760701   4.027123   4.515201   6.005497
    13  H    2.566182   2.125247   1.086415   2.191890   2.748674
    14  H    5.167661   3.830492   3.417136   2.167485   2.767673
    15  H    4.373060   3.254406   3.742796   3.274225   4.547669
    16  X    3.500103   2.809534   1.476583   1.838856   1.876897
    17  X    3.333439   2.317248   1.003727   0.853279   1.519952
    18  O    4.449867   4.636777   3.806389   4.705267   4.579452
    19  H    5.356245   5.428332   4.457019   5.152598   4.749917
    20  H    4.650416   5.086112   4.457019   5.497038   5.493666
                    6          7          8          9         10
     6  F    0.000000
     7  F    2.183809   0.000000
     8  F    2.183834   2.172670   0.000000
     9  C    2.702654   3.416807   3.416477   0.000000
    10  N    4.064221   4.546034   4.545756   1.361573   0.000000
    11  C    5.023019   5.004620   5.004549   2.462517   1.389157
    12  S    6.618222   6.622926   6.622828   3.966382   2.667332
    13  H    4.068482   2.867355   2.868068   3.397019   3.809445
    14  H    2.417382   3.734964   3.734451   1.083334   2.089251
    15  H    4.651369   5.391592   5.391203   2.062399   1.019792
    16  X    3.228385   1.987525   1.988401   3.196898   3.952297
    17  X    2.738928   2.081419   2.081825   2.198716   3.000423
    18  O    5.883462   4.159421   4.160500   6.025547   6.529257
    19  H    5.968124   4.216158   4.217292   6.511231   7.161023
    20  H    6.812689   5.075084   5.076116   6.775526   7.149516
                   11         12         13         14         15
    11  C    0.000000
    12  S    1.651971   0.000000
    13  H    3.454637   4.885889   0.000000
    14  H    3.396789   4.749842   4.338454   0.000000
    15  H    2.026007   2.720986   4.828927   2.353252   0.000000
    16  X    3.942075   5.503687   1.000000   3.968968   4.951061
    17  X    3.184455   4.812358   1.414214   3.014843   3.982099
    18  O    6.061224   7.306736   2.719974   6.860376   7.548548
    19  H    6.823723   8.146024   3.391410   7.251044   8.178533
    20  H    6.528310   7.625903   3.391410   7.664099   8.160514
                   16         17         18         19         20
    16  X    0.000000
    17  X    1.000000   0.000000
    18  O    2.897975   3.852039   0.000000
    19  H    3.314779   4.312710   0.957200   0.000000
    20  H    3.743736   4.650513   0.957200   1.513901   0.000000
 Symmetry turned off by external request.
 Stoichiometry    C6H5F4NOS
 Framework group  C1[X(C6H5F4NOS)]
 Deg. of freedom    48
 Full point group                 C1      NOp   1
 Rotational constants (GHZ):      0.8633562      0.4056772      0.2902059
 Standard basis: 6-31G(d) (6D, 7F)
 Integral buffers will be    131072 words long.
 Raffenetti 1 integral format.
 Two-electron integral symmetry is turned off.
   209 basis functions,   408 primitive gaussians,   209 cartesian basis functions
    54 alpha electrons       54 beta electrons
       nuclear repulsion energy       912.5911785493 Hartrees.
 NAtoms=   18 NActive=   18 NUniq=   18 SFac= 7.50D-01 NAtFMM=   80 NAOKFM=F Big=F
 One-electron integrals computed using PRISM.
 NBasis=   209 RedAO= T  NBF=   209
 NBsUse=   209 1.00D-06 NBFU=   209
 Initial guess read from the read-write file.
 B after Tr=     0.000000    0.000000    0.000000
         Rot=    1.000000    0.000000    0.000000    0.000000 Ang=   0.00 deg.
 Harris functional with IExCor=  205 diagonalized for initial guess.
 ExpMin= 1.17D-01 ExpMax= 2.19D+04 ExpMxC= 3.30D+03 IAcc=1 IRadAn=         1 AccDes= 0.00D+00
 HarFok:  IExCor=  205 AccDes= 0.00D+00 IRadAn=         1 IDoV= 1
 ScaDFX=  1.000000  1.000000  1.000000  1.000000
 FoFCou: FMM=F IPFlag=           0 FMFlag=      100000 FMFlg1=           0
         NFxFlg=           0 DoJE=T BraDBF=F KetDBF=T FulRan=T
         Omega=  0.000000  0.000000  1.000000  0.000000  0.000000 ICntrl=     500 IOpCl=  0
         NMat0=    1 NMatS0=    1 NMatT0=    0 NMatD0=    1 NMtDS0=    0 NMtDT0=    0
         I1Cent=           4 NGrid=           0.
 Symmetry not used in FoFCou.
 Requested convergence on RMS density matrix=1.00D-08 within 128 cycles.
 Requested convergence on MAX density matrix=1.00D-06.
 Requested convergence on             energy=1.00D-06.
 No special actions if energy rises.
 Integral accuracy reduced to 1.0D-05 until final iterations.
 Initial convergence to 1.0D-05 achieved.  Increase integral accuracy.
 SCF Done:  E(RHF) =  -1154.67797105     A.U. after   10 cycles
             Convg  =    0.8245D-08             -V/T =  2.0019
 Calling FoFJK, ICntrl=      2127 FMM=F ISym2X=0 I1Cent= 0 IOpClX= 0 NMat=1 NMatS=1 NMatT=0.
 -------------------------------------------------------------------
 Center     Atomic                   Forces (Hartrees/Bohr)
 Number     Number              X              Y              Z
 -------------------------------------------------------------------
      1        9           0.000000000    0.000000000    0.000000000
      2        6           0.000000000    0.000000000    0.000000000
      3        6           0.000000000    0.000000000    0.000000000
      4        6           0.000000000    0.000000000    0.000000000
      5        6           0.000000000    0.000000000    0.000000000
      6        9           0.000000000    0.000000000    0.000000000
      7        9           0.000000000    0.000000000    0.000000000
      8        9           0.000000000    0.000000000    0.000000000
      9        6           0.000000000    0.000000000    0.000000000
     10        7           0.000000000    0.000000000    0.000000000
     11        6           0.000000000    0.000000000    0.000000000
     12       16           0.000000000    0.000000000    0.000000000
     13        1           0.000000000    0.000000000    0.000000000
     14        1           0.000000000    0.000000000    0.000000000
     15        1           0.000000000    0.000000000    0.000000000
     16        8           0.005993256    0.012488549    0.000000133
     17        1          -0.009476130   -0.004225838    0.000000179
     18        1           0.002776673   -0.009979852   -0.000000252
 -------------------------------------------------------------------
 Cartesian Forces:  Max     0.012488549 RMS     0.002744844
 -----------------------------------------------------------------------------------------------
                       Internal Coordinate Forces (Hartree/Bohr or radian)
  Cent   Atom   N1       Length/X         N2         Alpha/Y        N3         Beta/Z          J
 -----------------------------------------------------------------------------------------------
      1  F 
      2  C 
      3  C 
      4  C 
      5  C 
      6  F 
      7  F 
      8  F 
      9  C 
     10  N 
     11  C 
     12  S 
     13  H 
     14  H 
     15  H 
         X       13   0.000000(     1)      3  -0.000204(     6)      2   0.000000(    11)     0
         X       16   0.000000(     2)     13   0.000000(     7)      3   0.000000(    12)     0
     16  O       13  -0.001855(     3)     16  -0.000204(     8)     17   0.000000(    13)     0
     17  H       18  -0.010179(     4)     13  -0.003633(     9)     16   0.000000(    14)     0
     18  H       18  -0.010138(     5)     13  -0.003847(    10)     16   0.000000(    15)     0
 -----------------------------------------------------------------------------------------------
 Internal  Forces:  Max     0.010179482 RMS     0.003982649

 GradGradGradGradGradGradGradGradGradGradGradGradGradGradGradGradGradGrad
 Berny optimization.
 Search for a local minimum.
 Step number   3 out of a maximum of   20
 All quantities printed in internal units (Hartrees-Bohrs-Radians)
 Update second derivatives using D2CorN and points    2    3
 DE= -8.63D-04 DEPred=-8.72D-04 R= 9.89D-01
 SS=  1.41D+00  RLast= 4.70D-01 DXNew= 7.9094D-01 1.4109D+00
 Trust test= 9.89D-01 RLast= 4.70D-01 DXMaxT set to 7.91D-01
 The second derivative matrix:
                          RX       RDUM       ROH      ADUM      AHOA
           RX          -0.00013
           RDUM         0.00000   0.00000
           ROH          0.00021   0.00000   1.12160
           ADUM        -0.00042   0.00000   0.00000   1.00000
           AHOA        -0.00104   0.00000   0.00000   0.00000   0.96000
           DOH          0.00000   0.00000   0.00000   0.00000   0.00000
           DD1          0.00000   0.00000   0.00000   0.00000   0.00000
           DD2          0.00000   0.00000   0.00000   0.00000   0.00000
           DH1          0.00000   0.00000   0.00000   0.00000   0.00000
           DH2          0.00000   0.00000   0.00000   0.00000   0.00000
                          DOH       DD1       DD2       DH1       DH2
           DOH          0.00000
           DD1          0.00000   0.30596
           DD2          0.00000  -0.30596   0.30596
           DH1          0.00000  -0.00798   0.00798   0.02814
           DH2          0.00000   0.00798  -0.00798  -0.02814   0.02814
     Eigenvalues ---   -0.000131000.000001000.000001000.000001000.00000
     Eigenvalues --- 1000.000001000.000001000.000001000.000001000.00000
 RFO step:  Lambda=-1.92017725D-03 EMin=-1.28324538D-04
 Skip linear search -- no minimum in search direction.
 Maximum step size (   0.791) exceeded in Quadratic search.
    -- Step size scaled by   0.791
 Variable       Old X    -DE/DX   Delta X   Delta X   Delta X     New X
                                 (Linear)    (Quad)   (Total)
    RX        5.14001  -0.00185   0.00000  -0.79094  -0.79094   4.34907
   RDUM       1.88973   0.00000   0.00000   0.00000   0.00000   1.88973
   ROH        1.80885  -0.02032   0.00000   0.00000   0.00000   1.80885
   ADUM       1.57080  -0.00041   0.00000   0.00000   0.00000   1.57080
   AHOA       2.22948  -0.00748   0.00000   0.00000   0.00000   2.22948
   DOH        3.14159   0.00000   0.00000   0.00000   0.00000   3.14159
   DD1        0.00000   0.00000   0.00000   0.00000   0.00000   0.00000
   DD2        3.14159   0.00000   0.00000   0.00000   0.00000   3.14159
   DH1        0.00000   0.00000   0.00000   0.00000   0.00000   0.00000
   DH2       -3.14159   0.00000   0.00000   0.00000   0.00000  -3.14159
         Item               Value     Threshold  Converged?
 Maximum Force            0.001855     0.000450     NO 
 RMS     Force            0.001855     0.000300     NO 
 Maximum Displacement     0.790939     0.001800     NO 
 RMS     Displacement     0.250117     0.001200     NO 
 Predicted change in Energy=-1.507257D-03
 GradGradGradGradGradGradGradGradGradGradGradGradGradGradGradGradGradGrad

 ---------------------------------------------------------------------------------------------------
                            Z-MATRIX (ANGSTROMS AND DEGREES)
   CD    Cent   Atom    N1       Length/X        N2       Alpha/Y        N3        Beta/Z          J
 ---------------------------------------------------------------------------------------------------
      1      1  F       -1  -1.969300          2.053680          0.000070
      2      2  C       -1  -1.222250          0.944230          0.000030
      3      3  C       -1   0.140030          1.057400         -0.000020
      4      4  C       -1   0.927950         -0.123640         -0.000080
      5      5  C       -1   2.414660         -0.018650         -0.000010
      6      6  F       -1   3.007080         -1.234610         -0.000560
      7      7  F       -1   2.858290          0.654480         -1.086020
      8      8  F       -1   2.858270          0.653500          1.086650
      9      9  C       -1   0.306540         -1.341490         -0.000090
     10     10  N       -1  -1.054170         -1.389970         -0.000060
     11     11  C       -1  -1.930500         -0.312100          0.000000
     12     12  S       -1  -3.570980         -0.506610          0.000030
     13     13  H       -1   0.596860          2.043100         -0.000020
     14     14  H       -1   0.831760         -2.288990         -0.000150
     15     15  H       -1  -1.521480         -2.296390         -0.000090
     16         X       13   1.000000(    15)      3   90.000(    33)      2  180.000(    50)      0
     17         X       16   1.000000(    16)     13   90.000(    34)      3    0.000(    51)      0
     18     16  O       13   2.301427(    17)     16   90.000(    35)     17  180.000(    52)      0
     19     17  H       18   0.957200(    18)     13  127.740(    36)     16    0.000(    53)      0
     20     18  H       18   0.957200(    19)     13  127.740(    37)     16 -180.000(    54)      0
 ---------------------------------------------------------------------------------------------------
                         Z-Matrix orientation:                         
 ---------------------------------------------------------------------
 Center     Atomic      Atomic             Coordinates (Angstroms)
 Number     Number       Type             X           Y           Z
 ---------------------------------------------------------------------
      1          9           0       -1.969300    2.053680    0.000070
      2          6           0       -1.222250    0.944230    0.000030
      3          6           0        0.140030    1.057400   -0.000020
      4          6           0        0.927950   -0.123640   -0.000080
      5          6           0        2.414660   -0.018650   -0.000010
      6          9           0        3.007080   -1.234610   -0.000560
      7          9           0        2.858290    0.654480   -1.086020
      8          9           0        2.858270    0.653500    1.086650
      9          6           0        0.306540   -1.341490   -0.000090
     10          7           0       -1.054170   -1.389970   -0.000060
     11          6           0       -1.930500   -0.312100    0.000000
     12         16           0       -3.570980   -0.506610    0.000030
     13          1           0        0.596860    2.043100   -0.000020
     14          1           0        0.831760   -2.288990   -0.000150
     15          1           0       -1.521480   -2.296390   -0.000090
     16         -1           0        1.504156    1.622607   -0.000062
     17         -1           0        1.083663    0.715311   -0.000062
     18          8           0        1.564594    4.131175   -0.000020
     19          1           0        2.497731    4.344451   -0.000052
     20          1           0        1.124175    4.981036    0.000012
 ---------------------------------------------------------------------
                    Distance matrix (angstroms):
                    1          2          3          4          5
     1  F    0.000000
     2  C    1.337521   0.000000
     3  C    2.332777   1.366973   0.000000
     4  C    3.624194   2.400772   1.419744   0.000000
     5  C    4.849088   3.762214   2.516312   1.490413   0.000000
     6  F    5.964663   4.757581   3.670597   2.357337   1.352598
     7  F    5.142274   4.232525   2.954772   2.347541   1.352527
     8  F    5.142625   4.232719   2.955134   2.347566   1.352555
     9  C    4.087374   2.749857   2.404662   1.367227   2.488790
    10  N    3.563171   2.340244   2.723184   2.352104   3.730054
    11  C    2.366098   1.442215   2.482463   2.864656   4.355058
    12  S    3.020011   2.760701   4.027123   4.515201   6.005497
    13  H    2.566182   2.125247   1.086415   2.191890   2.748674
    14  H    5.167661   3.830492   3.417136   2.167485   2.767673
    15  H    4.373060   3.254406   3.742796   3.274225   4.547669
    16  X    3.500103   2.809534   1.476583   1.838856   1.876897
    17  X    3.333439   2.317248   1.003727   0.853279   1.519952
    18  O    4.099316   4.233570   3.387842   4.302181   4.235996
    19  H    5.020159   5.039818   4.045177   4.735826   4.363892
    20  H    4.258991   4.669209   4.045177   5.108446   5.163546
                    6          7          8          9         10
     6  F    0.000000
     7  F    2.183809   0.000000
     8  F    2.183834   2.172670   0.000000
     9  C    2.702654   3.416807   3.416477   0.000000
    10  N    4.064221   4.546034   4.545756   1.361573   0.000000
    11  C    5.023019   5.004620   5.004549   2.462517   1.389157
    12  S    6.618222   6.622926   6.622828   3.966382   2.667332
    13  H    4.068482   2.867355   2.868068   3.397019   3.809445
    14  H    2.417382   3.734964   3.734451   1.083334   2.089251
    15  H    4.651369   5.391592   5.391203   2.062399   1.019792
    16  X    3.228385   1.987525   1.988401   3.196898   3.952297
    17  X    2.738928   2.081419   2.081825   2.198716   3.000423
    18  O    5.556295   3.865288   3.866351   5.615404   6.110725
    19  H    5.602264   3.863317   3.864457   6.093541   6.745338
    20  H    6.494581   4.785990   4.787007   6.375175   6.733120
                   11         12         13         14         15
    11  C    0.000000
    12  S    1.651971   0.000000
    13  H    3.454637   4.885889   0.000000
    14  H    3.396789   4.749842   4.338454   0.000000
    15  H    2.026007   2.720986   4.828927   2.353252   0.000000
    16  X    3.942075   5.503687   1.000000   3.968968   4.951061
    17  X    3.184455   4.812358   1.414214   3.014843   3.982099
    18  O    5.653174   6.919766   2.301427   6.461854   7.130038
    19  H    6.425940   7.769302   2.984883   6.839445   7.762398
    20  H    6.111328   7.222101   2.984883   7.275904   7.743411
                   16         17         18         19         20
    16  X    0.000000
    17  X    1.000000   0.000000
    18  O    2.509296   3.449554   0.000000
    19  H    2.897521   3.894900   0.957200   0.000000
    20  H    3.379856   4.265917   0.957200   1.513901   0.000000
 Symmetry turned off by external request.
 Stoichiometry    C6H5F4NOS
 Framework group  C1[X(C6H5F4NOS)]
 Deg. of freedom    48
 Full point group                 C1      NOp   1
 Rotational constants (GHZ):      0.9365251      0.4117678      0.3013069
 Standard basis: 6-31G(d) (6D, 7F)
 Integral buffers will be    131072 words long.
 Raffenetti 1 integral format.
 Two-electron integral symmetry is turned off.
   209 basis functions,   408 primitive gaussians,   209 cartesian basis functions
    54 alpha electrons       54 beta electrons
       nuclear repulsion energy       920.5523242033 Hartrees.
 NAtoms=   18 NActive=   18 NUniq=   18 SFac= 7.50D-01 NAtFMM=   80 NAOKFM=F Big=F
 One-electron integrals computed using PRISM.
 NBasis=   209 RedAO= T  NBF=   209
 NBsUse=   209 1.00D-06 NBFU=   209
 Initial guess read from the read-write file.
 B after Tr=     0.000000    0.000000    0.000000
         Rot=    1.000000    0.000000    0.000000    0.000000 Ang=   0.00 deg.
 Harris functional with IExCor=  205 diagonalized for initial guess.
 ExpMin= 1.17D-01 ExpMax= 2.19D+04 ExpMxC= 3.30D+03 IAcc=1 IRadAn=         1 AccDes= 0.00D+00
 HarFok:  IExCor=  205 AccDes= 0.00D+00 IRadAn=         1 IDoV= 1
 ScaDFX=  1.000000  1.000000  1.000000  1.000000
 FoFCou: FMM=F IPFlag=           0 FMFlag=      100000 FMFlg1=           0
         NFxFlg=           0 DoJE=T BraDBF=F KetDBF=T FulRan=T
         Omega=  0.000000  0.000000  1.000000  0.000000  0.000000 ICntrl=     500 IOpCl=  0
         NMat0=    1 NMatS0=    1 NMatT0=    0 NMatD0=    1 NMtDS0=    0 NMtDT0=    0
         I1Cent=           4 NGrid=           0.
 Symmetry not used in FoFCou.
 Requested convergence on RMS density matrix=1.00D-08 within 128 cycles.
 Requested convergence on MAX density matrix=1.00D-06.
 Requested convergence on             energy=1.00D-06.
 No special actions if energy rises.
 Integral accuracy reduced to 1.0D-05 until final iterations.
 Initial convergence to 1.0D-05 achieved.  Increase integral accuracy.
 SCF Done:  E(RHF) =  -1154.67922234     A.U. after   11 cycles
             Convg  =    0.9411D-08             -V/T =  2.0018
 Calling FoFJK, ICntrl=      2127 FMM=F ISym2X=0 I1Cent= 0 IOpClX= 0 NMat=1 NMatS=1 NMatT=0.
 -------------------------------------------------------------------
 Center     Atomic                   Forces (Hartrees/Bohr)
 Number     Number              X              Y              Z
 -------------------------------------------------------------------
      1        9           0.000000000    0.000000000    0.000000000
      2        6           0.000000000    0.000000000    0.000000000
      3        6           0.000000000    0.000000000    0.000000000
      4        6           0.000000000    0.000000000    0.000000000
      5        6           0.000000000    0.000000000    0.000000000
      6        9           0.000000000    0.000000000    0.000000000
      7        9           0.000000000    0.000000000    0.000000000
      8        9           0.000000000    0.000000000    0.000000000
      9        6           0.000000000    0.000000000    0.000000000
     10        7           0.000000000    0.000000000    0.000000000
     11        6           0.000000000    0.000000000    0.000000000
     12       16           0.000000000    0.000000000    0.000000000
     13        1           0.000000000    0.000000000    0.000000000
     14        1           0.000000000    0.000000000    0.000000000
     15        1           0.000000000    0.000000000    0.000000000
     16        8           0.006642876    0.013541788    0.000000193
     17        1          -0.009178849   -0.004461215    0.000000051
     18        1           0.002367553   -0.009911449   -0.000000199
 -------------------------------------------------------------------
 Cartesian Forces:  Max     0.013541788 RMS     0.002839874
 -----------------------------------------------------------------------------------------------
                       Internal Coordinate Forces (Hartree/Bohr or radian)
  Cent   Atom   N1       Length/X         N2         Alpha/Y        N3         Beta/Z          J
 -----------------------------------------------------------------------------------------------
      1  F 
      2  C 
      3  C 
      4  C 
      5  C 
      6  F 
      7  F 
      8  F 
      9  C 
     10  N 
     11  C 
     12  S 
     13  H 
     14  H 
     15  H 
         X       13   0.000000(     1)      3  -0.000576(     6)      2   0.000000(    11)     0
         X       16   0.000000(     2)     13   0.000000(     7)      3   0.000000(    12)     0
     16  O       13  -0.000825(     3)     16  -0.000576(     8)     17   0.000000(    13)     0
     17  H       18  -0.009942(     4)     13  -0.004167(     9)     16   0.000000(    14)     0
     18  H       18  -0.009889(     5)     13  -0.004447(    10)     16   0.000000(    15)     0
 -----------------------------------------------------------------------------------------------
 Internal  Forces:  Max     0.009942120 RMS     0.003959190

 GradGradGradGradGradGradGradGradGradGradGradGradGradGradGradGradGradGrad
 Berny optimization.
 Search for a local minimum.
 Step number   4 out of a maximum of   20
 All quantities printed in internal units (Hartrees-Bohrs-Radians)
 Update second derivatives using D2CorN and points    4
 DE= -1.25D-03 DEPred=-1.51D-03 R= 8.30D-01
 SS=  1.41D+00  RLast= 7.91D-01 DXNew= 1.3302D+00 2.3728D+00
 Trust test= 8.30D-01 RLast= 7.91D-01 DXMaxT set to 1.33D+00
 The second derivative matrix:
                          RX       RDUM       ROH      ADUM      AHOA
           RX          -0.00013
           RDUM         0.00000   0.00000
           ROH          0.00021   0.00000   1.12160
           ADUM        -0.00042   0.00000   0.00000   1.00000
           AHOA        -0.00104   0.00000   0.00000   0.00000   0.96000
           DOH          0.00000   0.00000   0.00000   0.00000   0.00000
           DD1          0.00000   0.00000   0.00000   0.00000   0.00000
           DD2          0.00000   0.00000   0.00000   0.00000   0.00000
           DH1          0.00000   0.00000   0.00000   0.00000   0.00000
           DH2          0.00000   0.00000   0.00000   0.00000   0.00000
                          DOH       DD1       DD2       DH1       DH2
           DOH          0.00000
           DD1          0.00000   0.30596
           DD2          0.00000  -0.30596   0.30596
           DH1          0.00000  -0.00798   0.00798   0.02814
           DH2          0.00000   0.00798  -0.00798  -0.02814   0.02814
     Eigenvalues ---   -0.000131000.000001000.000001000.000001000.00000
     Eigenvalues --- 1000.000001000.000001000.000001000.000001000.00000
 RFO step:  Lambda=-1.28327519D-04 EMin=-1.28324538D-04
 RFO eigenvector is Hessian eigenvector with negative curvature.
 Taking step of  1.00D+00 in eigenvector direction.  Step.Grad=  0.00D+00.
 Quartic linear search produced a step of  0.22950.
 Variable       Old X    -DE/DX   Delta X   Delta X   Delta X     New X
                                 (Linear)    (Quad)   (Total)
    RX        4.34907  -0.00082  -0.18152   1.00000   0.81848   5.16755
   RDUM       1.88973   0.00000   0.00000   0.00000   0.00000   1.88973
   ROH        1.80885  -0.01983   0.00000   0.00000   0.00000   1.80885
   ADUM       1.57080  -0.00115   0.00000   0.00000   0.00000   1.57080
   AHOA       2.22948  -0.00861   0.00000   0.00000   0.00000   2.22948
   DOH        3.14159   0.00000   0.00000   0.00000   0.00000   3.14159
   DD1        0.00000   0.00000   0.00000   0.00000   0.00000   0.00000
   DD2        3.14159   0.00000   0.00000   0.00000   0.00000   3.14159
   DH1        0.00000   0.00000   0.00000   0.00000   0.00000   0.00000
   DH2       -3.14159   0.00000   0.00000   0.00000   0.00000  -3.14159
         Item               Value     Threshold  Converged?
 Maximum Force            0.000825     0.000450     NO 
 RMS     Force            0.000825     0.000300     NO 
 Maximum Displacement     0.818479     0.001800     NO 
 RMS     Displacement     0.258826     0.001200     NO 
 Predicted change in Energy=-6.319923D-04
 GradGradGradGradGradGradGradGradGradGradGradGradGradGradGradGradGradGrad

 ---------------------------------------------------------------------------------------------------
                            Z-MATRIX (ANGSTROMS AND DEGREES)
   CD    Cent   Atom    N1       Length/X        N2       Alpha/Y        N3        Beta/Z          J
 ---------------------------------------------------------------------------------------------------
      1      1  F       -1  -1.969300          2.053680          0.000070
      2      2  C       -1  -1.222250          0.944230          0.000030
      3      3  C       -1   0.140030          1.057400         -0.000020
      4      4  C       -1   0.927950         -0.123640         -0.000080
      5      5  C       -1   2.414660         -0.018650         -0.000010
      6      6  F       -1   3.007080         -1.234610         -0.000560
      7      7  F       -1   2.858290          0.654480         -1.086020
      8      8  F       -1   2.858270          0.653500          1.086650
      9      9  C       -1   0.306540         -1.341490         -0.000090
     10     10  N       -1  -1.054170         -1.389970         -0.000060
     11     11  C       -1  -1.930500         -0.312100          0.000000
     12     12  S       -1  -3.570980         -0.506610          0.000030
     13     13  H       -1   0.596860          2.043100         -0.000020
[...]
 !       RX          2.2144   -DE/DX =    0.0                           !
 !      RDUM         1.0      -DE/DX =    0.0                           !
 !       ROH         0.9572   -DE/DX =   -0.0196                        !
 !      ADUM        90.0      -DE/DX =   -0.0013                        !
 !      AHOA       127.74     -DE/DX =   -0.0089                        !
 !       DOH       180.0      -DE/DX =    0.0                           !
 !       DD1         0.0      -DE/DX =    0.0                           !
 !       DD2       180.0      -DE/DX =    0.0                           !
 !       DH1         0.0      -DE/DX =    0.0                           !
 !       DH2      -180.0      -DE/DX =    0.0                           !
 ------------------------------------------------------------------------
 GradGradGradGradGradGradGradGradGradGradGradGradGradGradGradGradGradGrad

 ---------------------------------------------------------------------------------------------------
                            Z-MATRIX (ANGSTROMS AND DEGREES)
   CD    Cent   Atom    N1       Length/X        N2       Alpha/Y        N3        Beta/Z          J
 ---------------------------------------------------------------------------------------------------
      1      1  F       -1  -1.969300          2.053680          0.000070
      2      2  C       -1  -1.222250          0.944230          0.000030
      3      3  C       -1   0.140030          1.057400         -0.000020
      4      4  C       -1   0.927950         -0.123640         -0.000080
      5      5  C       -1   2.414660         -0.018650         -0.000010
      6      6  F       -1   3.007080         -1.234610         -0.000560
      7      7  F       -1   2.858290          0.654480         -1.086020
      8      8  F       -1   2.858270          0.653500          1.086650
      9      9  C       -1   0.306540         -1.341490         -0.000090
     10     10  N       -1  -1.054170         -1.389970         -0.000060
     11     11  C       -1  -1.930500         -0.312100          0.000000
     12     12  S       -1  -3.570980         -0.506610          0.000030
     13     13  H       -1   0.596860          2.043100         -0.000020
     14     14  H       -1   0.831760         -2.288990         -0.000150
     15     15  H       -1  -1.521480         -2.296390         -0.000090
     16         X       13   1.000000(    15)      3   90.000(    33)      2  180.000(    50)      0
     17         X       16   1.000000(    16)     13   90.000(    34)      3    0.000(    51)      0
     18     16  O       13   2.214394(    17)     16   90.000(    35)     17  180.000(    52)      0
     19     17  H       18   0.957200(    18)     13  127.740(    36)     16    0.000(    53)      0
     20     18  H       18   0.957200(    19)     13  127.740(    37)     16 -180.000(    54)      0
 ---------------------------------------------------------------------------------------------------
                         Z-Matrix orientation:                         
 ---------------------------------------------------------------------
 Center     Atomic      Atomic             Coordinates (Angstroms)
 Number     Number       Type             X           Y           Z
 ---------------------------------------------------------------------
      1          9           0       -1.969300    2.053680    0.000070
      2          6           0       -1.222250    0.944230    0.000030
      3          6           0        0.140030    1.057400   -0.000020
      4          6           0        0.927950   -0.123640   -0.000080
      5          6           0        2.414660   -0.018650   -0.000010
      6          9           0        3.007080   -1.234610   -0.000560
      7          9           0        2.858290    0.654480   -1.086020
      8          9           0        2.858270    0.653500    1.086650
      9          6           0        0.306540   -1.341490   -0.000090
     10          7           0       -1.054170   -1.389970   -0.000060
     11          6           0       -1.930500   -0.312100    0.000000
     12         16           0       -3.570980   -0.506610    0.000030
     13          1           0        0.596860    2.043100   -0.000020
     14          1           0        0.831760   -2.288990   -0.000150
     15          1           0       -1.521480   -2.296390   -0.000090
     16         -1           0        1.504156    1.622607   -0.000062
     17         -1           0        1.083663    0.715311   -0.000062
     18          8           0        1.527997    4.052210   -0.000020
     19          1           0        2.461134    4.265486   -0.000052
     20          1           0        1.087579    4.902071    0.000012
 ---------------------------------------------------------------------
                    Distance matrix (angstroms):
                    1          2          3          4          5
     1  F    0.000000
     2  C    1.337521   0.000000
     3  C    2.332777   1.366973   0.000000
     4  C    3.624194   2.400772   1.419744   0.000000
     5  C    4.849088   3.762214   2.516312   1.490413   0.000000
     6  F    5.964663   4.757581   3.670597   2.357337   1.352598
     7  F    5.142274   4.232525   2.954772   2.347541   1.352527
     8  F    5.142625   4.232719   2.955134   2.347566   1.352555
     9  C    4.087374   2.749857   2.404662   1.367227   2.488790
    10  N    3.563171   2.340244   2.723184   2.352104   3.730054
    11  C    2.366098   1.442215   2.482463   2.864656   4.355058
    12  S    3.020011   2.760701   4.027123   4.515201   6.005497
    13  H    2.566182   2.125247   1.086415   2.191890   2.748674
    14  H    5.167661   3.830492   3.417136   2.167485   2.767673
    15  H    4.373060   3.254406   3.742796   3.274225   4.547669
    16  X    3.500103   2.809534   1.476583   1.838856   1.876897
    17  X    3.333439   2.317248   1.003727   0.853279   1.519952
    18  O    4.028053   4.150108   3.300809   4.218741   4.166302
    19  H    4.951852   4.959643   3.959715   4.649202   4.284388
    20  H    4.178258   4.582555   3.959715   5.028245   5.096532
                    6          7          8          9         10
     6  F    0.000000
     7  F    2.183809   0.000000
     8  F    2.183834   2.172670   0.000000
     9  C    2.702654   3.416807   3.416477   0.000000
    10  N    4.064221   4.546034   4.545756   1.361573   0.000000
    11  C    5.023019   5.004620   5.004549   2.462517   1.389157
    12  S    6.618222   6.622926   6.622828   3.966382   2.667332
    13  H    4.068482   2.867355   2.868068   3.397019   3.809445
    14  H    2.417382   3.734964   3.734451   1.083334   2.089251
    15  H    4.651369   5.391592   5.391203   2.062399   1.019792
    16  X    3.228385   1.987525   1.988401   3.196898   3.952297
    17  X    2.738928   2.081419   2.081825   2.198716   3.000423
    18  O    5.489823   3.807052   3.808111   5.530276   6.023696
    19  H    5.527125   3.791626   3.792767   6.006701   6.658945
    20  H    6.429878   4.728310   4.729322   6.292223   6.646568
                   11         12         13         14         15
    11  C    0.000000
    12  S    1.651971   0.000000
    13  H    3.454637   4.885889   0.000000
    14  H    3.396789   4.749842   4.338454   0.000000
    15  H    2.026007   2.720986   4.828927   2.353252   0.000000
    16  X    3.942075   5.503687   1.000000   3.968968   4.951061
    17  X    3.184455   4.812358   1.414214   3.014843   3.982099
    18  O    5.568519   6.839766   2.214394   6.379307   7.043013
    19  H    6.343559   7.691509   2.900779   6.753963   7.675900
    20  H    6.024647   7.138347   2.900779   7.195610   7.656698
                   16         17         18         19         20
    16  X    0.000000
    17  X    1.000000   0.000000
    18  O    2.429720   3.366352   0.000000
    19  H    2.810804   3.808040   0.957200   0.000000
    20  H    3.305816   4.186761   0.957200   1.513901   0.000000
 Symmetry turned off by external request.
 Stoichiometry    C6H5F4NOS
 Framework group  C1[X(C6H5F4NOS)]
 Deg. of freedom    48
 Full point group                 C1      NOp   1
 Rotational constants (GHZ):      0.9529560      0.4128817      0.3035903

 **********************************************************************

            Population analysis using the SCF density.

 **********************************************************************

 Alpha  occ. eigenvalues --  -91.89254 -26.35950 -26.34899 -26.34897 -26.32001
 Alpha  occ. eigenvalues --  -20.58369 -15.67605 -11.53135 -11.36590 -11.35510
 Alpha  occ. eigenvalues --  -11.34944 -11.29138 -11.29014  -8.90353  -6.58687
 Alpha  occ. eigenvalues --   -6.58405  -6.58285  -1.73129  -1.64169  -1.63402
 Alpha  occ. eigenvalues --   -1.63272  -1.36463  -1.34370  -1.15718  -1.10718
 Alpha  occ. eigenvalues --   -1.01750  -0.95970  -0.91282  -0.86980  -0.83681
 Alpha  occ. eigenvalues --   -0.82694  -0.82364  -0.75729  -0.74604  -0.72917
 Alpha  occ. eigenvalues --   -0.72584  -0.71294  -0.70586  -0.69932  -0.68746
 Alpha  occ. eigenvalues --   -0.66544  -0.66520  -0.65123  -0.62697  -0.61351
 Alpha  occ. eigenvalues --   -0.60783  -0.58681  -0.57327  -0.52132  -0.51289
 Alpha  occ. eigenvalues --   -0.45073  -0.41966  -0.32986  -0.29814
 Alpha virt. eigenvalues --    0.05927   0.09956   0.18522   0.19431   0.26172
 Alpha virt. eigenvalues --    0.27287   0.27971   0.28974   0.30690   0.32185
 Alpha virt. eigenvalues --    0.35848   0.38977   0.40990   0.41813   0.44015
 Alpha virt. eigenvalues --    0.44623   0.47783   0.50841   0.55370   0.56778
 Alpha virt. eigenvalues --    0.57701   0.61083   0.62413   0.65689   0.67994
 Alpha virt. eigenvalues --    0.68962   0.73596   0.74414   0.75035   0.76907
 Alpha virt. eigenvalues --    0.78538   0.79371   0.84672   0.85731   0.88862
 Alpha virt. eigenvalues --    0.90305   0.90867   0.93468   0.97266   1.00211
 Alpha virt. eigenvalues --    1.00891   1.03634   1.04432   1.07281   1.10354
 Alpha virt. eigenvalues --    1.10988   1.11262   1.13984   1.14566   1.14895
 Alpha virt. eigenvalues --    1.16783   1.17243   1.19062   1.25562   1.29213
 Alpha virt. eigenvalues --    1.31995   1.32657   1.34479   1.35375   1.36140
 Alpha virt. eigenvalues --    1.38073   1.40043   1.41660   1.43516   1.43950
 Alpha virt. eigenvalues --    1.47412   1.48311   1.53464   1.55910   1.61678
 Alpha virt. eigenvalues --    1.62037   1.62679   1.64985   1.65362   1.66001
 Alpha virt. eigenvalues --    1.67151   1.67708   1.68957   1.70980   1.71404
 Alpha virt. eigenvalues --    1.74150   1.77508   1.77824   1.82751   1.88386
 Alpha virt. eigenvalues --    1.90966   1.93619   1.94853   2.01015   2.01264
 Alpha virt. eigenvalues --    2.04152   2.05616   2.07363   2.10393   2.11375
 Alpha virt. eigenvalues --    2.13334   2.13386   2.16464   2.19565   2.21737
 Alpha virt. eigenvalues --    2.23802   2.24031   2.25947   2.29580   2.31012
 Alpha virt. eigenvalues --    2.33654   2.33832   2.35026   2.36002   2.37147
 Alpha virt. eigenvalues --    2.39152   2.40629   2.44960   2.46538   2.46822
 Alpha virt. eigenvalues --    2.48327   2.53499   2.60381   2.62329   2.63357
 Alpha virt. eigenvalues --    2.67018   2.69719   2.76388   2.84248   2.85936
 Alpha virt. eigenvalues --    2.86617   2.92414   2.93844   2.94539   2.94675
 Alpha virt. eigenvalues --    3.01712   3.08458   3.10919   3.18775   3.23424
 Alpha virt. eigenvalues --    3.30927   3.38445   3.39726   3.44616   3.45866
 Alpha virt. eigenvalues --    3.51032   3.72750   4.06923   4.37762   4.41299
 Alpha virt. eigenvalues --    4.47690   4.49764   4.62311   4.66115   4.69721
 Alpha virt. eigenvalues --    4.83738   5.04367   5.16838   5.61682   6.03021
          Condensed to atoms (all electrons):
              1          2          3          4          5          6
     1  F    9.164608   0.266680  -0.034015   0.002233  -0.000015   0.000000
     2  C    0.266680   4.597473   0.567128  -0.023048   0.001049  -0.000021
     3  C   -0.034015   0.567128   5.125003   0.355768  -0.010752   0.002136
     4  C    0.002233  -0.023048   0.355768   5.213091   0.416092  -0.045173
     5  C   -0.000015   0.001049  -0.010752   0.416092   3.552500   0.287217
     6  F    0.000000  -0.000021   0.002136  -0.045173   0.287217   9.192382
     7  F    0.000000   0.000280   0.004684  -0.054138   0.282712  -0.030660
     8  F    0.000000   0.000279   0.004678  -0.054147   0.282719  -0.030660
     9  C    0.000114  -0.025291  -0.053203   0.586963  -0.022709   0.005671
    10  N    0.001409  -0.050393  -0.022948  -0.033362   0.001297   0.000238
    11  C   -0.041819   0.379833  -0.077793  -0.002808   0.000024   0.000002
    12  S    0.003666  -0.083874   0.001681  -0.000065   0.000007   0.000000
    13  H    0.000648  -0.015651   0.341726  -0.026023   0.000518   0.000042
    14  H    0.000000  -0.000128   0.001847  -0.022664  -0.000130   0.005057
    15  H   -0.000019   0.003840  -0.000592   0.002335  -0.000016   0.000001
    16  O   -0.000009   0.000172  -0.006932  -0.000185   0.000355   0.000000
    17  H    0.000000  -0.000005   0.000314  -0.000004  -0.000008   0.000000
    18  H    0.000006  -0.000004   0.000281   0.000004  -0.000008   0.000000
              7          8          9         10         11         12
     1  F    0.000000   0.000000   0.000114   0.001409  -0.041819   0.003666
     2  C    0.000280   0.000279  -0.025291  -0.050393   0.379833  -0.083874
     3  C    0.004684   0.004678  -0.053203  -0.022948  -0.077793   0.001681
     4  C   -0.054138  -0.054147   0.586963  -0.033362  -0.002808  -0.000065
     5  C    0.282712   0.282719  -0.022709   0.001297   0.000024   0.000007
     6  F   -0.030660  -0.030660   0.005671   0.000238   0.000002   0.000000
     7  F    9.204281  -0.033692   0.000554  -0.000006  -0.000001   0.000000
     8  F   -0.033692   9.204302   0.000550  -0.000006  -0.000001   0.000000
     9  C    0.000554   0.000550   4.747354   0.263021  -0.037706   0.003374
    10  N   -0.000006  -0.000006   0.263021   7.234204   0.213696  -0.104327
    11  C   -0.000001  -0.000001  -0.037706   0.213696   4.954313   0.439025
    12  S    0.000000   0.000000   0.003374  -0.104327   0.439025  15.979841
    13  H    0.001014   0.001010   0.002083  -0.000296   0.002591  -0.000025
    14  H    0.000083   0.000083   0.380574  -0.032750   0.000972  -0.000141
    15  H    0.000000   0.000000  -0.021804   0.310396  -0.018151   0.014092
    16  O   -0.000022  -0.000022  -0.000005   0.000000  -0.000001   0.000000
    17  H    0.000047   0.000047   0.000000   0.000000   0.000000   0.000000
    18  H    0.000000   0.000000   0.000000   0.000000   0.000000   0.000000
             13         14         15         16         17         18
     1  F    0.000648   0.000000  -0.000019  -0.000009   0.000000   0.000006
     2  C   -0.015651  -0.000128   0.003840   0.000172  -0.000005  -0.000004
     3  C    0.341726   0.001847  -0.000592  -0.006932   0.000314   0.000281
     4  C   -0.026023  -0.022664   0.002335  -0.000185  -0.000004   0.000004
     5  C    0.000518  -0.000130  -0.000016   0.000355  -0.000008  -0.000008
     6  F    0.000042   0.005057   0.000001   0.000000   0.000000   0.000000
     7  F    0.001014   0.000083   0.000000  -0.000022   0.000047   0.000000
     8  F    0.001010   0.000083   0.000000  -0.000022   0.000047   0.000000
     9  C    0.002083   0.380574  -0.021804  -0.000005   0.000000   0.000000
    10  N   -0.000296  -0.032750   0.310396   0.000000   0.000000   0.000000
    11  C    0.002591   0.000972  -0.018151  -0.000001   0.000000   0.000000
    12  S   -0.000025  -0.000141   0.014092   0.000000   0.000000   0.000000
    13  H    0.317792  -0.000054   0.000007   0.013891  -0.000350  -0.000260
    14  H   -0.000054   0.386508  -0.002173   0.000000   0.000000   0.000000
    15  H    0.000007  -0.002173   0.273518   0.000000   0.000000   0.000000
    16  O    0.013891   0.000000   0.000000   8.339541   0.265278   0.265592
    17  H   -0.000350   0.000000   0.000000   0.265278   0.306024  -0.017326
    18  H   -0.000260   0.000000   0.000000   0.265592  -0.017326   0.304670
 Mulliken atomic charges:
              1
     1  F   -0.363486
     2  C    0.381680
     3  C   -0.199013
     4  C   -0.314870
     5  C    1.209148
     6  F   -0.386233
     7  F   -0.375135
     8  F   -0.375141
     9  C    0.170459
    10  N   -0.780172
    11  C    0.187824
    12  S   -0.253252
    13  H    0.361337
    14  H    0.282915
    15  H    0.438565
    16  O   -0.877652
    17  H    0.445983
    18  H    0.447044
 Sum of Mulliken atomic charges =   0.00000
 Mulliken charges with hydrogens summed into heavy atoms:
              1
     1  F   -0.363486
     2  C    0.381680
     3  C    0.162324
     4  C   -0.314870
     5  C    1.209148
     6  F   -0.386233
     7  F   -0.375135
     8  F   -0.375141
     9  C    0.453374
    10  N   -0.341607
    11  C    0.187824
    12  S   -0.253252
    16  O    0.015374
 Sum of Mulliken charges with hydrogens summed into heavy atoms =   0.00000
 Electronic spatial extent (au):  <R**2>=           3341.8247
 Charge=              0.0000 electrons
 Dipole moment (field-independent basis, Debye):
    X=              5.0216    Y=              0.1021    Z=             -0.0004  Tot=              5.0227
 Quadrupole moment (field-independent basis, Debye-Ang):
   XX=           -101.9042   YY=            -51.6183   ZZ=            -82.6078
   XY=              9.1137   XZ=             -0.0003   YZ=              0.0003
 Traceless Quadrupole moment (field-independent basis, Debye-Ang):
   XX=            -23.1941   YY=             27.0918   ZZ=             -3.8977
   XY=              9.1137   XZ=             -0.0003   YZ=              0.0003
 Octapole moment (field-independent basis, Debye-Ang**2):
  XXX=             96.4629  YYY=             38.7768  ZZZ=             -0.0007  XYY=             54.1278
  XXY=              3.7880  XXZ=             -0.0021  XZZ=              5.9821  YZZ=            -24.9209
  YYZ=              0.0006  XYZ=             -0.0009
 Hexadecapole moment (field-independent basis, Debye-Ang**3):
 XXXX=          -2748.5535 YYYY=           -379.9505 ZZZZ=           -143.6884 XXXY=            -84.2109
 XXXZ=              0.0042 YYYX=             96.6725 YYYZ=             -0.0012 ZZZX=              0.0015
 ZZZY=             -0.0049 XXYY=           -520.5178 XXZZ=           -464.4826 YYZZ=           -234.2805
 XXYZ=             -0.0048 YYXZ=              0.0056 ZZXY=            -62.4394
 N-N= 9.223534102963D+02 E-N=-4.583589088034D+03  KE= 1.152557214814D+03
 1\1\GINC-B1\FOpt\RHF\6-31G(d)\C6H5F4N1O1S1\ANA\24-Sep-2021\1\\#HF/6-31
 G* Opt=Z-matrix NoSymm\\water interaction with atom H13\\0,1\F,-1,-1.9
 693,2.05368,0.00007\C,-1,-1.22225,0.94423,0.00003\C,-1,0.14003,1.0574,
 -0.00002\C,-1,0.92795,-0.12364,-0.00008\C,-1,2.41466,-0.01865,-0.00001
 \F,-1,3.00708,-1.23461,-0.00056\F,-1,2.85829,0.65448,-1.08602\F,-1,2.8
 5827,0.6535,1.08665\C,-1,0.30654,-1.34149,-0.00009\N,-1,-1.05417,-1.38
 997,-0.00006\C,-1,-1.9305,-0.3121,0.\S,-1,-3.57098,-0.50661,0.00003\H,
 -1,0.59686,2.0431,-0.00002\H,-1,0.83176,-2.28899,-0.00015\H,-1,-1.5214
 8,-2.29639,-0.00009\X,13,RDUM,3,ADUM,2,DOH,0\X,16,RDUM,13,ADUM,3,DD1,0
 \O,13,RX,16,ADUM,17,DD2,0\H,18,ROH,13,AHOA,16,DH1,0\H,18,ROH,13,AHOA,1
 6,DH2,0\\RX=2.21439356\RDUM=1.\ROH=0.9572\ADUM=90.\AHOA=127.74\DOH=180
 .\DD1=0.\DD2=180.\DH1=0.\DH2=-180.\\Version=EM64L-G09RevA.01\HF=-1154.
 6792953\RMSD=5.607e-09\RMSF=2.914e-03\Dipole=1.9756632,0.0401776,-0.00
 01644\Quadrupole=-17.2442582,20.1421001,-2.897842,6.7757931,-0.0002317
 ,0.0002355\PG=C01 [X(C6H5F4N1O1S1)]\\@


 IF YOU GIVE A BOY AND A PIG EVERYTHING THEY WANT,
 YOU'LL GET A BAD BOY AND A GOOD PIG.
 Job cpu time:  0 days  0 hours 10 minutes 50.5 seconds.
 File lengths (MBytes):  RWF=     33 Int=      0 D2E=      0 Chk=      3 Scr=      1
 Normal termination of Gaussian 09 at Fri Sep 24 08:26:19 2021.
