 Entering Gaussian System, Link 0=g09
 Initial command:
 /home/ana/programs/g09/l1.exe /home/ana/programs/g09/scratch/Gau-708006.inp -scrdir=/home/ana/programs/g09/scratch/
 Entering Link 1 = /home/ana/programs/g09/l1.exe PID=    708008.
  
 Copyright (c) 1988,1990,1992,1993,1995,1998,2003,2009, Gaussian, Inc.
                  All Rights Reserved.
  
 This is part of the Gaussian(R) 09 program.  It is based on
 the Gaussian(R) 03 system (copyright 2003, Gaussian, Inc.),
 the Gaussian(R) 98 system (copyright 1998, Gaussian, Inc.),
 the Gaussian(R) 94 system (copyright 1995, Gaussian, Inc.),
 the Gaussian 92(TM) system (copyright 1992, Gaussian, Inc.),
 the Gaussian 90(TM) system (copyright 1990, Gaussian, Inc.),
 the Gaussian 88(TM) system (copyright 1988, Gaussian, Inc.),
 the Gaussian 86(TM) system (copyright 1986, Carnegie Mellon
 University), and the Gaussian 82(TM) system (copyright 1983,
 Carnegie Mellon University). Gaussian is a federally registered
 trademark of Gaussian, Inc.
  
 This software contains proprietary and confidential information,
 including trade secrets, belonging to Gaussian, Inc.
  
 This software is provided under written license and may be
 used, copied, transmitted, or stored only in accord with that
 written license.
  
 The following legend is applicable only to US Government
 contracts under FAR:
  
                    RESTRICTED RIGHTS LEGEND
  
 Use, reproduction and disclosure by the US Government is
 subject to restrictions as set forth in subparagraphs (a)
 and (c) of the Commercial Computer Software - Restricted
 Rights clause in FAR 52.227-19.
  
 Gaussian, Inc.
 340 Quinnipiac St., Bldg. 40, Wallingford CT 06492
  
  
 ---------------------------------------------------------------
 Warning -- This program may not be used in any manner that
 competes with the business of Gaussian, Inc. or will provide
 assistance to any competitor of Gaussian, Inc.  The licensee
 of this program is prohibited from giving any competitor of
 Gaussian, Inc. access to this program.  By using this program,
 the user acknowledges that Gaussian, Inc. is engaged in the
 business of creating and licensing software in the field of
 computational chemistry and represents and warrants to the
 licensee that it is not a competitor of Gaussian, Inc. and that
 it will not use this program in any manner prohibited above.
 ---------------------------------------------------------------
  

 Cite this work as:
 Gaussian 09, Revision A.01,
 M. J. Frisch, G. W. Trucks, H. B. Schlegel, G. E. Scuseria, 
 M. A. Robb, J. R. Cheeseman, G. Scalmani, V. Barone, B. Mennucci, 
 G. A. Petersson, H. Nakatsuji, M. Caricato, X. Li, H. P. Hratchian, 
 A. F. Izmaylov, J. Bloino, G. Zheng, J. L. Sonnenberg, M. Hada, 
 M. Ehara, K. Toyota, R. Fukuda, J. Hasegawa, M. Ishida, T. Nakajima, 
 Y. Honda, O. Kitao, H. Nakai, T. Vreven, J. A. Montgomery, Jr., 
 J. E. Peralta, F. Ogliaro, M. Bearpark, J. J. Heyd, E. Brothers, 
 K. N. Kudin, V. N. Staroverov, R. Kobayashi, J. Normand, 
 K. Raghavachari, A. Rendell, J. C. Burant, S. S. Iyengar, J. Tomasi, 
 M. Cossi, N. Rega, J. M. Millam, M. Klene, J. E. Knox, J. B. Cross, 
 V. Bakken, C. Adamo, J. Jaramillo, R. Gomperts, R. E. Stratmann, 
 O. Yazyev, A. J. Austin, R. Cammi, C. Pomelli, J. W. Ochterski, 
 R. L. Martin, K. Morokuma, V. G. Zakrzewski, G. A. Voth, 
 P. Salvador, J. J. Dannenberg, S. Dapprich, A. D. Daniels, 
 O. Farkas, J. B. Foresman, J. V. Ortiz, J. Cioslowski, 
 and D. J. Fox, Gaussian, Inc., Wallingford CT, 2009.
 
 ******************************************
 Gaussian 09:  EM64L-G09RevA.01  8-May-2009
                24-Sep-2021 
 ******************************************
 %NPROC=4
 Will use up to    4 processors via shared memory.
 %NoSave
 ------------------------------
 #HF/6-31G* Opt=Z-matrix NoSymm
 ------------------------------
 1/10=7,18=40,38=1/1,3;
 2/12=2,15=1,17=6,18=5,29=3,40=1/2;
 3/5=1,6=6,7=1,11=9,16=1,25=1,30=1,71=1/1,2,3;
 4//1;
 5/5=2,38=5/2;
 6/7=2,8=2,9=2,10=2,28=1/1;
 7/29=1,30=1/1,2,3,16;
 1/10=7,18=40/3(2);
 2/15=1,29=3/2;
 99//99;
 2/15=1,29=3/2;
 3/5=1,6=6,7=1,11=9,16=1,25=1,30=1,71=1/1,2,3;
 4/5=5,16=3/1;
 5/5=2,38=5/2;
 7/30=1/1,2,3,16;
 1/18=40/3(-5);
 2/15=1,29=3/2;
 6/7=2,8=2,9=2,10=2,19=2,28=1/1;
 99/9=1/99;
 -------------------------------
 water interaction with atom H13
 -------------------------------
 Symbolic Z-matrix:
 Charge =  0 Multiplicity = 1
 9                    -1   -1.9693    2.05368   0.00007 
 6                    -1   -1.22225   0.94423   0.00003 
 6                    -1    0.14003   1.0574   -0.00002 
 6                    -1    0.92795  -0.12364  -0.00008 
 6                    -1    2.41466  -0.01865  -0.00001 
 9                    -1    3.00708  -1.23461  -0.00056 
 9                    -1    2.85829   0.65448  -1.08602 
 9                    -1    2.85827   0.6535    1.08665 
 6                    -1    0.30654  -1.34149  -0.00009 
 7                    -1   -1.05417  -1.38997  -0.00006 
 6                    -1   -1.9305   -0.3121    0. 
 16                   -1   -3.57098  -0.50661   0.00003 
 1                    -1    0.59686   2.0431   -0.00002 
 1                    -1    0.83176  -2.28899  -0.00015 
 1                    -1   -1.52148  -2.29639  -0.00009 
 X                    13   RDUM     3    ADUM     2    DOH      0
 X                    16   RDUM     13   ADUM     3    DD1      0
 OH2                  13   RX       16   ADUM     17   DD2      0
 H1                   18   ROH      13   AHOA     16   DH1      0
 H2                   18   ROH      13   AHOA     16   DH2      0
       Variables:
  RX                    2.2144                   
       Constants:
  RDUM                  1.                       
  ROH                   0.9572                   
  ADUM                 90.                       
  AHOA                127.74                     
  DOH                 180.                       
  DD1                   0.                       
  DD2                 180.                       
  DH1                  90.                       
  DH2                 -90.                       
 

 GradGradGradGradGradGradGradGradGradGradGradGradGradGradGradGradGradGrad
 Berny optimization.
 Initialization pass.
                       ----------------------------
                       !    Initial Parameters    !
                       ! (Angstroms and Degrees)  !
 ----------------------                            ----------------------
 !      Name          Value   Derivative information (Atomic Units)     !
 ------------------------------------------------------------------------
 !       RX          2.2144   estimate D2E/DX2                          !
 !      RDUM         1.0      Frozen                                    !
 !       ROH         0.9572   Frozen                                    !
 !      ADUM        90.0      Frozen                                    !
 !      AHOA       127.74     Frozen                                    !
 !       DOH       180.0      Frozen                                    !
 !       DD1         0.0      Frozen                                    !
 !       DD2       180.0      Frozen                                    !
 !       DH1        90.0      Frozen                                    !
 !       DH2       -90.0      Frozen                                    !
 ------------------------------------------------------------------------
 Trust Radius=3.00D-01 FncErr=1.00D-07 GrdErr=1.00D-07
 Number of steps in this run=  20 maximum allowed number of steps= 100.
 GradGradGradGradGradGradGradGradGradGradGradGradGradGradGradGradGradGrad

 ---------------------------------------------------------------------------------------------------
                            Z-MATRIX (ANGSTROMS AND DEGREES)
   CD    Cent   Atom    N1       Length/X        N2       Alpha/Y        N3        Beta/Z          J
 ---------------------------------------------------------------------------------------------------
      1      1  F       -1  -1.969300          2.053680          0.000070
      2      2  C       -1  -1.222250          0.944230          0.000030
      3      3  C       -1   0.140030          1.057400         -0.000020
      4      4  C       -1   0.927950         -0.123640         -0.000080
      5      5  C       -1   2.414660         -0.018650         -0.000010
      6      6  F       -1   3.007080         -1.234610         -0.000560
      7      7  F       -1   2.858290          0.654480         -1.086020
      8      8  F       -1   2.858270          0.653500          1.086650
      9      9  C       -1   0.306540         -1.341490         -0.000090
     10     10  N       -1  -1.054170         -1.389970         -0.000060
     11     11  C       -1  -1.930500         -0.312100          0.000000
     12     12  S       -1  -3.570980         -0.506610          0.000030
     13     13  H       -1   0.596860          2.043100         -0.000020
     14     14  H       -1   0.831760         -2.288990         -0.000150
     15     15  H       -1  -1.521480         -2.296390         -0.000090
     16         X       13   1.000000(    15)      3   90.000(    33)      2  180.000(    50)      0
     17         X       16   1.000000(    16)     13   90.000(    34)      3    0.000(    51)      0
     18     16  O       13   2.214400(    17)     16   90.000(    35)     17  180.000(    52)      0
     19     17  H       18   0.957200(    18)     13  127.740(    36)     16   90.000(    53)      0
     20     18  H       18   0.957200(    19)     13  127.740(    37)     16  -90.000(    54)      0
 ---------------------------------------------------------------------------------------------------
                         Z-Matrix orientation:                         
 ---------------------------------------------------------------------
 Center     Atomic      Atomic             Coordinates (Angstroms)
 Number     Number       Type             X           Y           Z
 ---------------------------------------------------------------------
      1          9           0       -1.969300    2.053680    0.000070
      2          6           0       -1.222250    0.944230    0.000030
      3          6           0        0.140030    1.057400   -0.000020
      4          6           0        0.927950   -0.123640   -0.000080
      5          6           0        2.414660   -0.018650   -0.000010
      6          9           0        3.007080   -1.234610   -0.000560
      7          9           0        2.858290    0.654480   -1.086020
      8          9           0        2.858270    0.653500    1.086650
      9          6           0        0.306540   -1.341490   -0.000090
     10          7           0       -1.054170   -1.389970   -0.000060
     11          6           0       -1.930500   -0.312100    0.000000
     12         16           0       -3.570980   -0.506610    0.000030
     13          1           0        0.596860    2.043100   -0.000020
     14          1           0        0.831760   -2.288990   -0.000150
     15          1           0       -1.521480   -2.296390   -0.000090
     16         -1           0        1.504156    1.622607   -0.000062
     17         -1           0        1.083663    0.715311   -0.000062
     18          8           0        1.528000    4.052216   -0.000020
     19          1           0        1.774330    4.583798   -0.756970
     20          1           0        1.774388    4.583771    0.756930
 ---------------------------------------------------------------------
                    Distance matrix (angstroms):
                    1          2          3          4          5
     1  F    0.000000
     2  C    1.337521   0.000000
     3  C    2.332777   1.366973   0.000000
     4  C    3.624194   2.400772   1.419744   0.000000
     5  C    4.849088   3.762214   2.516312   1.490413   0.000000
     6  F    5.964663   4.757581   3.670597   2.357337   1.352598
     7  F    5.142274   4.232525   2.954772   2.347541   1.352527
     8  F    5.142625   4.232719   2.955134   2.347566   1.352555
     9  C    4.087374   2.749857   2.404662   1.367227   2.488790
    10  N    3.563171   2.340244   2.723184   2.352104   3.730054
    11  C    2.366098   1.442215   2.482463   2.864656   4.355058
    12  S    3.020011   2.760701   4.027123   4.515201   6.005497
    13  H    2.566182   2.125247   1.086415   2.191890   2.748674
    14  H    5.167661   3.830492   3.417136   2.167485   2.767673
    15  H    4.373060   3.254406   3.742796   3.274225   4.547669
    16  X    3.500103   2.809534   1.476583   1.838856   1.876897
    17  X    3.333439   2.317248   1.003727   0.853279   1.519952
    18  O    4.028058   4.150114   3.300815   4.218748   4.166307
    19  H    4.581416   4.774829   3.959721   4.842439   4.708029
    20  H    4.581419   4.774829   3.959721   4.842441   4.707992
                    6          7          8          9         10
     6  F    0.000000
     7  F    2.183809   0.000000
     8  F    2.183834   2.172670   0.000000
     9  C    2.702654   3.416807   3.416477   0.000000
    10  N    4.064221   4.546034   4.545756   1.361573   0.000000
    11  C    5.023019   5.004620   5.004549   2.462517   1.389157
    12  S    6.618222   6.622926   6.622828   3.966382   2.667332
    13  H    4.068482   2.867355   2.868068   3.397019   3.809445
    14  H    2.417382   3.734964   3.734451   1.083334   2.089251
    15  H    4.651369   5.391592   5.391203   2.062399   1.019792
    16  X    3.228385   1.987525   1.988401   3.196898   3.952297
    17  X    2.738928   2.081419   2.081825   2.198716   3.000423
    18  O    5.489827   3.807056   3.808115   5.530283   6.023702
    19  H    5.995473   4.089350   4.474495   6.151123   6.652761
    20  H    5.995572   4.473325   4.090299   6.151128   6.652770
                   11         12         13         14         15
    11  C    0.000000
    12  S    1.651971   0.000000
    13  H    3.454637   4.885889   0.000000
    14  H    3.396789   4.749842   4.338454   0.000000
    15  H    2.026007   2.720986   4.828927   2.353252   0.000000
    16  X    3.942075   5.503687   1.000000   3.968968   4.951061
    17  X    3.184455   4.812358   1.414214   3.014843   3.982099
    18  O    5.568525   6.839772   2.214400   6.379313   7.043019
    19  H    6.186161   7.420084   2.900785   6.978282   7.666304
    20  H    6.186169   7.420097   2.900785   6.978292   7.666319
                   16         17         18         19         20
    16  X    0.000000
    17  X    1.000000   0.000000
    18  O    2.429726   3.366358   0.000000
    19  H    3.068315   4.001889   0.957200   0.000000
    20  H    3.068315   4.001889   0.957200   1.513901   0.000000
 Symmetry turned off by external request.
 Stoichiometry    C6H5F4NOS
 Framework group  C1[X(C6H5F4NOS)]
 Deg. of freedom    48
 Full point group                 C1      NOp   1
 Rotational constants (GHZ):      0.9514929      0.4127669      0.3038009
 Standard basis: 6-31G(d) (6D, 7F)
 Integral buffers will be    131072 words long.
 Raffenetti 1 integral format.
 Two-electron integral symmetry is turned off.
   209 basis functions,   408 primitive gaussians,   209 cartesian basis functions
    54 alpha electrons       54 beta electrons
       nuclear repulsion energy       922.2207949609 Hartrees.
 NAtoms=   18 NActive=   18 NUniq=   18 SFac= 7.50D-01 NAtFMM=   80 NAOKFM=F Big=F
 One-electron integrals computed using PRISM.
 NBasis=   209 RedAO= T  NBF=   209
 NBsUse=   209 1.00D-06 NBFU=   209
 Harris functional with IExCor=  205 diagonalized for initial guess.
 ExpMin= 1.17D-01 ExpMax= 2.19D+04 ExpMxC= 3.30D+03 IAcc=1 IRadAn=         1 AccDes= 0.00D+00
 HarFok:  IExCor=  205 AccDes= 0.00D+00 IRadAn=         1 IDoV= 1
 ScaDFX=  1.000000  1.000000  1.000000  1.000000
 FoFCou: FMM=F IPFlag=           0 FMFlag=      100000 FMFlg1=           0
         NFxFlg=           0 DoJE=T BraDBF=F KetDBF=T FulRan=T
         Omega=  0.000000  0.000000  1.000000  0.000000  0.000000 ICntrl=     500 IOpCl=  0
         NMat0=    1 NMatS0=    1 NMatT0=    0 NMatD0=    1 NMtDS0=    0 NMtDT0=    0
         I1Cent=           4 NGrid=           0.
 Symmetry not used in FoFCou.
 Requested convergence on RMS density matrix=1.00D-08 within 128 cycles.
 Requested convergence on MAX density matrix=1.00D-06.
 Requested convergence on             energy=1.00D-06.
 No special actions if energy rises.
 Integral accuracy reduced to 1.0D-05 until final iterations.
 Initial convergence to 1.0D-05 achieved.  Increase integral accuracy.
 SCF Done:  E(RHF) =  -1154.67894134     A.U. after   15 cycles
             Convg  =    0.9246D-08             -V/T =  2.0018

 **********************************************************************

            Population analysis using the SCF density.

 **********************************************************************

 Alpha  occ. eigenvalues --  -91.89225 -26.35825 -26.34685 -26.34683 -26.31892
 Alpha  occ. eigenvalues --  -20.58424 -15.67570 -11.52986 -11.36555 -11.35480
 Alpha  occ. eigenvalues --  -11.34883 -11.29086 -11.28959  -8.90324  -6.58658
 Alpha  occ. eigenvalues --   -6.58376  -6.58256  -1.72946  -1.64008  -1.63188
 Alpha  occ. eigenvalues --   -1.63158  -1.36508  -1.34333  -1.15658  -1.10675
 Alpha  occ. eigenvalues --   -1.01659  -0.95887  -0.91199  -0.86926  -0.83565
 Alpha  occ. eigenvalues --   -0.82533  -0.82174  -0.75640  -0.74507  -0.72972
 Alpha  occ. eigenvalues --   -0.72500  -0.71113  -0.70419  -0.69825  -0.68700
 Alpha  occ. eigenvalues --   -0.66369  -0.66349  -0.64914  -0.62579  -0.61306
 Alpha  occ. eigenvalues --   -0.60780  -0.58594  -0.57293  -0.52146  -0.51253
 Alpha  occ. eigenvalues --   -0.45038  -0.41929  -0.32955  -0.29777
 Alpha virt. eigenvalues --    0.05939   0.10007   0.18537   0.19406   0.26216
 Alpha virt. eigenvalues --    0.27324   0.28009   0.28895   0.30774   0.32251
 Alpha virt. eigenvalues --    0.35963   0.39027   0.41071   0.41922   0.44099
 Alpha virt. eigenvalues --    0.44733   0.47828   0.51057   0.55498   0.56838
 Alpha virt. eigenvalues --    0.57726   0.61149   0.62455   0.65769   0.68049
 Alpha virt. eigenvalues --    0.69134   0.73719   0.74463   0.75159   0.76987
 Alpha virt. eigenvalues --    0.78483   0.79435   0.84747   0.85728   0.88775
 Alpha virt. eigenvalues --    0.90545   0.91348   0.93089   0.97343   1.00029
 Alpha virt. eigenvalues --    1.01799   1.03508   1.04023   1.07324   1.10396
 Alpha virt. eigenvalues --    1.10563   1.11320   1.13615   1.14117   1.15191
 Alpha virt. eigenvalues --    1.16460   1.18101   1.19139   1.26252   1.29971
 Alpha virt. eigenvalues --    1.32669   1.32824   1.34578   1.35485   1.36007
 Alpha virt. eigenvalues --    1.36250   1.40133   1.41616   1.43566   1.43717
 Alpha virt. eigenvalues --    1.47523   1.48279   1.53548   1.55925   1.61853
 Alpha virt. eigenvalues --    1.62120   1.62857   1.65104   1.65536   1.66081
 Alpha virt. eigenvalues --    1.67259   1.67803   1.69012   1.71080   1.71449
 Alpha virt. eigenvalues --    1.74198   1.77544   1.77704   1.82754   1.88463
 Alpha virt. eigenvalues --    1.91111   1.93765   1.94914   2.00977   2.01421
 Alpha virt. eigenvalues --    2.04219   2.05785   2.07679   2.10585   2.11502
 Alpha virt. eigenvalues --    2.13457   2.13611   2.16509   2.19659   2.21819
 Alpha virt. eigenvalues --    2.23940   2.24138   2.26045   2.29729   2.31089
 Alpha virt. eigenvalues --    2.33788   2.33941   2.35106   2.36154   2.37342
 Alpha virt. eigenvalues --    2.39220   2.40686   2.45081   2.46666   2.46874
 Alpha virt. eigenvalues --    2.48434   2.53552   2.60347   2.62425   2.63402
 Alpha virt. eigenvalues --    2.67091   2.69898   2.76496   2.84346   2.86014
 Alpha virt. eigenvalues --    2.86668   2.92282   2.93838   2.94342   2.94732
 Alpha virt. eigenvalues --    3.01813   3.08611   3.10979   3.18799   3.23507
 Alpha virt. eigenvalues --    3.31004   3.38630   3.39868   3.44706   3.46004
 Alpha virt. eigenvalues --    3.51054   3.72812   4.06580   4.37792   4.41326
 Alpha virt. eigenvalues --    4.47767   4.49805   4.62380   4.66161   4.69942
 Alpha virt. eigenvalues --    4.83825   5.04414   5.16924   5.61798   6.03172
          Condensed to atoms (all electrons):
              1          2          3          4          5          6
     1  F    9.162371   0.267539  -0.034209   0.002233  -0.000015   0.000000
     2  C    0.267539   4.599119   0.565310  -0.024742   0.001159  -0.000021
     3  C   -0.034209   0.565310   5.134078   0.353097  -0.010115   0.002146
     4  C    0.002233  -0.024742   0.353097   5.218662   0.414694  -0.045125
     5  C   -0.000015   0.001159  -0.010115   0.414694   3.551234   0.286950
     6  F    0.000000  -0.000021   0.002146  -0.045125   0.286950   9.193003
     7  F    0.000000   0.000277   0.004566  -0.053696   0.282538  -0.030650
     8  F    0.000000   0.000276   0.004561  -0.053704   0.282544  -0.030651
     9  C    0.000113  -0.025622  -0.054017   0.586559  -0.022852   0.005692
    10  N    0.001408  -0.050302  -0.022964  -0.033419   0.001296   0.000239
    11  C   -0.041824   0.379586  -0.077737  -0.002771   0.000016   0.000002
    12  S    0.003690  -0.083799   0.001684  -0.000068   0.000007   0.000000
    13  H    0.000638  -0.016117   0.342026  -0.025770   0.000353   0.000042
    14  H    0.000000  -0.000131   0.001846  -0.022645  -0.000130   0.005080
    15  H   -0.000019   0.003843  -0.000594   0.002335  -0.000016   0.000001
    16  O   -0.000007   0.000046  -0.006267  -0.000416   0.000617   0.000000
    17  H    0.000000  -0.000007   0.000306   0.000003  -0.000015   0.000000
    18  H    0.000000  -0.000007   0.000306   0.000003  -0.000015   0.000000
              7          8          9         10         11         12
     1  F    0.000000   0.000000   0.000113   0.001408  -0.041824   0.003690
     2  C    0.000277   0.000276  -0.025622  -0.050302   0.379586  -0.083799
     3  C    0.004566   0.004561  -0.054017  -0.022964  -0.077737   0.001684
     4  C   -0.053696  -0.053704   0.586559  -0.033419  -0.002771  -0.000068
     5  C    0.282538   0.282544  -0.022852   0.001296   0.000016   0.000007
     6  F   -0.030650  -0.030651   0.005692   0.000239   0.000002   0.000000
     7  F    9.203730  -0.033543   0.000554  -0.000006  -0.000001   0.000000
     8  F   -0.033543   9.203756   0.000550  -0.000006  -0.000001   0.000000
     9  C    0.000554   0.000550   4.750204   0.262453  -0.037595   0.003384
    10  N   -0.000006  -0.000006   0.262453   7.234788   0.213630  -0.104450
    11  C   -0.000001  -0.000001  -0.037595   0.213630   4.954982   0.438989
    12  S    0.000000   0.000000   0.003384  -0.104450   0.438989  15.980001
    13  H    0.001045   0.001041   0.002111  -0.000297   0.002568  -0.000026
    14  H    0.000083   0.000083   0.380625  -0.032796   0.000976  -0.000141
    15  H    0.000000   0.000000  -0.021815   0.310417  -0.018170   0.014103
    16  O   -0.000036  -0.000036  -0.000006   0.000000  -0.000001   0.000000
    17  H    0.000009   0.000001   0.000000   0.000000   0.000000   0.000000
    18  H    0.000001   0.000009   0.000000   0.000000   0.000000   0.000000
             13         14         15         16         17         18
     1  F    0.000638   0.000000  -0.000019  -0.000007   0.000000   0.000000
     2  C   -0.016117  -0.000131   0.003843   0.000046  -0.000007  -0.000007
     3  C    0.342026   0.001846  -0.000594  -0.006267   0.000306   0.000306
     4  C   -0.025770  -0.022645   0.002335  -0.000416   0.000003   0.000003
     5  C    0.000353  -0.000130  -0.000016   0.000617  -0.000015  -0.000015
     6  F    0.000042   0.005080   0.000001   0.000000   0.000000   0.000000
     7  F    0.001045   0.000083   0.000000  -0.000036   0.000009   0.000001
     8  F    0.001041   0.000083   0.000000  -0.000036   0.000001   0.000009
     9  C    0.002111   0.380625  -0.021815  -0.000006   0.000000   0.000000
    10  N   -0.000297  -0.032796   0.310417   0.000000   0.000000   0.000000
    11  C    0.002568   0.000976  -0.018170  -0.000001   0.000000   0.000000
    12  S   -0.000026  -0.000141   0.014103   0.000000   0.000000   0.000000
    13  H    0.317826  -0.000054   0.000007   0.013855  -0.000314  -0.000314
    14  H   -0.000054   0.386609  -0.002174   0.000000   0.000000   0.000000
    15  H    0.000007  -0.002174   0.273657   0.000000   0.000000   0.000000
    16  O    0.013855   0.000000   0.000000   8.337180   0.265570   0.265570
    17  H   -0.000314   0.000000   0.000000   0.265570   0.305799  -0.017431
    18  H   -0.000314   0.000000   0.000000   0.265570  -0.017431   0.305800
 Mulliken atomic charges:
              1
     1  F   -0.361920
     2  C    0.383589
     3  C   -0.204022
     4  C   -0.315232
     5  C    1.211749
     6  F   -0.386709
     7  F   -0.374872
     8  F   -0.374881
     9  C    0.169659
    10  N   -0.779990
    11  C    0.187351
    12  S   -0.253375
    13  H    0.361376
    14  H    0.282768
    15  H    0.438423
    16  O   -0.876070
    17  H    0.446078
    18  H    0.446078
 Sum of Mulliken atomic charges =   0.00000
 Mulliken charges with hydrogens summed into heavy atoms:
              1
     1  F   -0.361920
     2  C    0.383589
     3  C    0.157354
     4  C   -0.315232
     5  C    1.211749
     6  F   -0.386709
     7  F   -0.374872
     8  F   -0.374881
     9  C    0.452427
    10  N   -0.341567
    11  C    0.187351
    12  S   -0.253375
    16  O    0.016086
 Sum of Mulliken charges with hydrogens summed into heavy atoms =   0.00000
 Electronic spatial extent (au):  <R**2>=           3341.7405
 Charge=              0.0000 electrons
 Dipole moment (field-independent basis, Debye):
    X=              5.0359    Y=              0.1402    Z=             -0.0004  Tot=              5.0379
 Quadrupole moment (field-independent basis, Debye-Ang):
   XX=           -104.4074   YY=            -52.1297   ZZ=            -79.4773
   XY=             10.3500   XZ=             -0.0001   YZ=              0.0002
 Traceless Quadrupole moment (field-independent basis, Debye-Ang):
   XX=            -25.7359   YY=             26.5418   ZZ=             -0.8058
   XY=             10.3500   XZ=             -0.0001   YZ=              0.0002
 Octapole moment (field-independent basis, Debye-Ang**2):
  XXX=             83.4059  YYY=             31.5656  ZZZ=             -0.0009  XYY=             63.9494
  XXY=             -3.3440  XXZ=             -0.0013  XZZ=             11.3647  YZZ=            -10.8658
  YYZ=             -0.0004  XYZ=             -0.0001
 Hexadecapole moment (field-independent basis, Debye-Ang**3):
 XXXX=          -2793.3844 YYYY=           -446.0280 ZZZZ=           -143.8777 XXXY=           -132.7288
 XXXZ=              0.0064 YYYX=            155.8312 YYYZ=             -0.0080 ZZZX=              0.0012
 ZZZY=             -0.0058 XXYY=           -536.4382 XXZZ=           -455.2533 YYZZ=           -171.6484
 XXYZ=             -0.0015 YYXZ=              0.0083 ZZXY=            -38.3164
 N-N= 9.222207949609D+02 E-N=-4.583409717768D+03  KE= 1.152555071668D+03
 Calling FoFJK, ICntrl=      2127 FMM=F ISym2X=0 I1Cent= 0 IOpClX= 0 NMat=1 NMatS=1 NMatT=0.
 -------------------------------------------------------------------
 Center     Atomic                   Forces (Hartrees/Bohr)
 Number     Number              X              Y              Z
 -------------------------------------------------------------------
      1        9           0.000000000    0.000000000    0.000000000
      2        6           0.000000000    0.000000000    0.000000000
      3        6           0.000000000    0.000000000    0.000000000
      4        6           0.000000000    0.000000000    0.000000000
      5        6           0.000000000    0.000000000    0.000000000
      6        9           0.000000000    0.000000000    0.000000000
      7        9           0.000000000    0.000000000    0.000000000
      8        9           0.000000000    0.000000000    0.000000000
      9        6           0.000000000    0.000000000    0.000000000
     10        7           0.000000000    0.000000000    0.000000000
     11        6           0.000000000    0.000000000    0.000000000
     12       16           0.000000000    0.000000000    0.000000000
     13        1           0.000000000    0.000000000    0.000000000
     14        1           0.000000000    0.000000000    0.000000000
     15        1           0.000000000    0.000000000    0.000000000
     16        8           0.006855018    0.014062754    0.000000413
     17        1          -0.003295720   -0.007056263    0.006487951
     18        1          -0.003296356   -0.007055686   -0.006488020
 -------------------------------------------------------------------
 Cartesian Forces:  Max     0.014062754 RMS     0.002887526
 -----------------------------------------------------------------------------------------------
                       Internal Coordinate Forces (Hartree/Bohr or radian)
  Cent   Atom   N1       Length/X         N2         Alpha/Y        N3         Beta/Z          J
 -----------------------------------------------------------------------------------------------
      1  F 
      2  C 
      3  C 
      4  C 
      5  C 
      6  F 
      7  F 
      8  F 
      9  C 
     10  N 
     11  C 
     12  S 
     13  H 
     14  H 
     15  H 
         X       13   0.000000(     1)      3  -0.001033(     6)      2   0.000000(    11)     0
         X       16   0.000000(     2)     13   0.000000(     7)      3   0.000001(    12)     0
     16  O       13   0.000066(     3)     16  -0.001033(     8)     17  -0.000001(    13)     0
     17  H       18  -0.009897(     4)     13  -0.003957(     9)     16   0.000033(    14)     0
     18  H       18  -0.009897(     5)     13  -0.003956(    10)     16  -0.000034(    15)     0
 -----------------------------------------------------------------------------------------------
 Internal  Forces:  Max     0.009897488 RMS     0.003910410

 GradGradGradGradGradGradGradGradGradGradGradGradGradGradGradGradGradGrad
 Berny optimization.
 Search for a local minimum.
 Step number   1 out of a maximum of   20
 All quantities printed in internal units (Hartrees-Bohrs-Radians)
 Second derivative matrix not updated -- first step.
 The second derivative matrix:
                          RX       RDUM       ROH      ADUM      AHOA
           RX           0.03080
           RDUM         0.00000   0.00000
           ROH          0.00000   0.00000   1.12160
           ADUM         0.00000   0.00000   0.00000   1.00904
           AHOA         0.00000   0.00000   0.00000   0.00000   0.96000
           DOH          0.00000   0.00000   0.00000   0.00000   0.00000
           DD1          0.00000   0.00000   0.00000   0.00000   0.00000
           DD2          0.00000   0.00000   0.00000   0.00000   0.00000
           DH1          0.00000   0.00000   0.00000   0.01595   0.00000
           DH2          0.00000   0.00000   0.00000  -0.01595   0.00000
                          DOH       DD1       DD2       DH1       DH2
           DOH          0.00000
           DD1          0.00000   0.30370
           DD2          0.00000  -0.30370   0.30370
           DH1          0.00000   0.00000   0.00000   0.02814
           DH2          0.00000   0.00000   0.00000  -0.02814   0.02814
     Eigenvalues ---    0.030801000.000001000.000001000.000001000.00000
     Eigenvalues --- 1000.000001000.000001000.000001000.000001000.00000
 RFO step:  Lambda=-1.41124885D-07 EMin= 3.08010386D-02
 Linear search not attempted -- first point.
 Variable       Old X    -DE/DX   Delta X   Delta X   Delta X     New X
                                 (Linear)    (Quad)   (Total)
    RX        4.18461   0.00007   0.00000   0.00214   0.00214   4.18675
   RDUM       1.88973   0.00000   0.00000   0.00000   0.00000   1.88973
   ROH        1.80885  -0.01979   0.00000   0.00000   0.00000   1.80885
   ADUM       1.57080  -0.00207   0.00000   0.00000   0.00000   1.57080
   AHOA       2.22948  -0.00791   0.00000   0.00000   0.00000   2.22948
   DOH        3.14159   0.00000   0.00000   0.00000   0.00000   3.14159
   DD1        0.00000   0.00000   0.00000   0.00000   0.00000   0.00000
   DD2        3.14159   0.00000   0.00000   0.00000   0.00000   3.14159
   DH1        1.57080   0.00003   0.00000   0.00000   0.00000   1.57080
   DH2       -1.57080  -0.00003   0.00000   0.00000   0.00000  -1.57080
         Item               Value     Threshold  Converged?
 Maximum Force            0.000066     0.000450     YES
 RMS     Force            0.000066     0.000300     YES
 Maximum Displacement     0.002141     0.001800     NO 
 RMS     Displacement     0.000677     0.001200     YES
 Predicted change in Energy=-7.056244D-08
 GradGradGradGradGradGradGradGradGradGradGradGradGradGradGradGradGradGrad

 ---------------------------------------------------------------------------------------------------
                            Z-MATRIX (ANGSTROMS AND DEGREES)
   CD    Cent   Atom    N1       Length/X        N2       Alpha/Y        N3        Beta/Z          J
 ---------------------------------------------------------------------------------------------------
      1      1  F       -1  -1.969300          2.053680          0.000070
      2      2  C       -1  -1.222250          0.944230          0.000030
      3      3  C       -1   0.140030          1.057400         -0.000020
      4      4  C       -1   0.927950         -0.123640         -0.000080
      5      5  C       -1   2.414660         -0.018650         -0.000010
      6      6  F       -1   3.007080         -1.234610         -0.000560
      7      7  F       -1   2.858290          0.654480         -1.086020
      8      8  F       -1   2.858270          0.653500          1.086650
      9      9  C       -1   0.306540         -1.341490         -0.000090
     10     10  N       -1  -1.054170         -1.389970         -0.000060
     11     11  C       -1  -1.930500         -0.312100          0.000000
     12     12  S       -1  -3.570980         -0.506610          0.000030
     13     13  H       -1   0.596860          2.043100         -0.000020
     14     14  H       -1   0.831760         -2.288990         -0.000150
     15     15  H       -1  -1.521480         -2.296390         -0.000090
     16         X       13   1.000000(    15)      3   90.000(    33)      2  180.000(    50)      0
     17         X       16   1.000000(    16)     13   90.000(    34)      3    0.000(    51)      0
     18     16  O       13   2.215533(    17)     16   90.000(    35)     17  180.000(    52)      0
     19     17  H       18   0.957200(    18)     13  127.740(    36)     16   90.000(    53)      0
     20     18  H       18   0.957200(    19)     13  127.740(    37)     16  -90.000(    54)      0
 ---------------------------------------------------------------------------------------------------
                         Z-Matrix orientation:                         
 ---------------------------------------------------------------------
 Center     Atomic      Atomic             Coordinates (Angstroms)
 Number     Number       Type             X           Y           Z
 ---------------------------------------------------------------------
      1          9           0       -1.969300    2.053680    0.000070
      2          6           0       -1.222250    0.944230    0.000030
      3          6           0        0.140030    1.057400   -0.000020
      4          6           0        0.927950   -0.123640   -0.000080
      5          6           0        2.414660   -0.018650   -0.000010
      6          9           0        3.007080   -1.234610   -0.000560
      7          9           0        2.858290    0.654480   -1.086020
      8          9           0        2.858270    0.653500    1.086650
      9          6           0        0.306540   -1.341490   -0.000090
     10          7           0       -1.054170   -1.389970   -0.000060
     11          6           0       -1.930500   -0.312100    0.000000
     12         16           0       -3.570980   -0.506610    0.000030
     13          1           0        0.596860    2.043100   -0.000020
     14          1           0        0.831760   -2.288990   -0.000150
     15          1           0       -1.521480   -2.296390   -0.000090
     16         -1           0        1.504156    1.622607   -0.000062
     17         -1           0        1.083663    0.715311   -0.000062
     18          8           0        1.528476    4.053243   -0.000020
     19          1           0        1.774806    4.584825   -0.756970
     20          1           0        1.774864    4.584799    0.756930
 ---------------------------------------------------------------------
                    Distance matrix (angstroms):
                    1          2          3          4          5
     1  F    0.000000
     2  C    1.337521   0.000000
     3  C    2.332777   1.366973   0.000000
     4  C    3.624194   2.400772   1.419744   0.000000
     5  C    4.849088   3.762214   2.516312   1.490413   0.000000
     6  F    5.964663   4.757581   3.670597   2.357337   1.352598
     7  F    5.142274   4.232525   2.954772   2.347541   1.352527
     8  F    5.142625   4.232719   2.955134   2.347566   1.352555
     9  C    4.087374   2.749857   2.404662   1.367227   2.488790
    10  N    3.563171   2.340244   2.723184   2.352104   3.730054
    11  C    2.366098   1.442215   2.482463   2.864656   4.355058
    12  S    3.020011   2.760701   4.027123   4.515201   6.005497
    13  H    2.566182   2.125247   1.086415   2.191890   2.748674
    14  H    5.167661   3.830492   3.417136   2.167485   2.767673
    15  H    4.373060   3.254406   3.742796   3.274225   4.547669
    16  X    3.500103   2.809534   1.476583   1.838856   1.876897
    17  X    3.333439   2.317248   1.003727   0.853279   1.519952
    18  O    4.028981   4.151200   3.301948   4.219833   4.167210
    19  H    4.582373   4.775912   3.960833   4.843521   4.708969
    20  H    4.582375   4.775912   3.960833   4.843524   4.708932
                    6          7          8          9         10
     6  F    0.000000
     7  F    2.183809   0.000000
     8  F    2.183834   2.172670   0.000000
     9  C    2.702654   3.416807   3.416477   0.000000
    10  N    4.064221   4.546034   4.545756   1.361573   0.000000
    11  C    5.023019   5.004620   5.004549   2.462517   1.389157
    12  S    6.618222   6.622926   6.622828   3.966382   2.667332
    13  H    4.068482   2.867355   2.868068   3.397019   3.809445
    14  H    2.417382   3.734964   3.734451   1.083334   2.089251
    15  H    4.651369   5.391592   5.391203   2.062399   1.019792
    16  X    3.228385   1.987525   1.988401   3.196898   3.952297
    17  X    2.738928   2.081419   2.081825   2.198716   3.000423
    18  O    5.490689   3.807807   3.808866   5.531390   6.024835
    19  H    5.996373   4.090211   4.475282   6.152226   6.653886
    20  H    5.996471   4.474112   4.091160   6.152232   6.653896
                   11         12         13         14         15
    11  C    0.000000
    12  S    1.651971   0.000000
    13  H    3.454637   4.885889   0.000000
    14  H    3.396789   4.749842   4.338454   0.000000
    15  H    2.026007   2.720986   4.828927   2.353252   0.000000
    16  X    3.942075   5.503687   1.000000   3.968968   4.951061
    17  X    3.184455   4.812358   1.414214   3.014843   3.982099
    18  O    5.569626   6.840812   2.215533   6.380387   7.044152
    19  H    6.187259   7.421132   2.901879   6.979359   7.667431
    20  H    6.187268   7.421145   2.901879   6.979369   7.667446
                   16         17         18         19         20
    16  X    0.000000
    17  X    1.000000   0.000000
    18  O    2.430758   3.367440   0.000000
    19  H    3.069348   4.002965   0.957200   0.000000
    20  H    3.069348   4.002965   0.957200   1.513901   0.000000
 Symmetry turned off by external request.
 Stoichiometry    C6H5F4NOS
 Framework group  C1[X(C6H5F4NOS)]
 Deg. of freedom    48
 Full point group                 C1      NOp   1
 Rotational constants (GHZ):      0.9512772      0.4127527      0.3037712
 Standard basis: 6-31G(d) (6D, 7F)
 Integral buffers will be    131072 words long.
 Raffenetti 1 integral format.
 Two-electron integral symmetry is turned off.
   209 basis functions,   408 primitive gaussians,   209 cartesian basis functions
    54 alpha electrons       54 beta electrons
       nuclear repulsion energy       922.1971348113 Hartrees.
 NAtoms=   18 NActive=   18 NUniq=   18 SFac= 7.50D-01 NAtFMM=   80 NAOKFM=F Big=F
 One-electron integrals computed using PRISM.
 NBasis=   209 RedAO= T  NBF=   209
 NBsUse=   209 1.00D-06 NBFU=   209
 Initial guess read from the read-write file.
 B after Tr=     0.000000    0.000000    0.000000
         Rot=    1.000000    0.000000    0.000000    0.000000 Ang=   0.00 deg.
 Requested convergence on RMS density matrix=1.00D-08 within 128 cycles.
 Requested convergence on MAX density matrix=1.00D-06.
 Requested convergence on             energy=1.00D-06.
 No special actions if energy rises.
 SCF Done:  E(RHF) =  -1154.67894147     A.U. after    5 cycles
             Convg  =    0.6101D-08             -V/T =  2.0018
 Calling FoFJK, ICntrl=      2127 FMM=F ISym2X=0 I1Cent= 0 IOpClX= 0 NMat=1 NMatS=1 NMatT=0.
 -------------------------------------------------------------------
 Center     Atomic                   Forces (Hartrees/Bohr)
 Number     Number              X              Y              Z
 -------------------------------------------------------------------
      1        9           0.000000000    0.000000000    0.000000000
      2        6           0.000000000    0.000000000    0.000000000
      3        6           0.000000000    0.000000000    0.000000000
      4        6           0.000000000    0.000000000    0.000000000
      5        6           0.000000000    0.000000000    0.000000000
      6        9           0.000000000    0.000000000    0.000000000
      7        9           0.000000000    0.000000000    0.000000000
      8        9           0.000000000    0.000000000    0.000000000
      9        6           0.000000000    0.000000000    0.000000000
     10        7           0.000000000    0.000000000    0.000000000
     11        6           0.000000000    0.000000000    0.000000000
     12       16           0.000000000    0.000000000    0.000000000
     13        1           0.000000000    0.000000000    0.000000000
     14        1           0.000000000    0.000000000    0.000000000
     15        1           0.000000000    0.000000000    0.000000000
     16        8           0.006849346    0.014051015    0.000000412
     17        1          -0.003295881   -0.007056395    0.006489514
     18        1          -0.003296517   -0.007055818   -0.006489583
 -------------------------------------------------------------------
 Cartesian Forces:  Max     0.014051015 RMS     0.002886367
 -----------------------------------------------------------------------------------------------
                       Internal Coordinate Forces (Hartree/Bohr or radian)
  Cent   Atom   N1       Length/X         N2         Alpha/Y        N3         Beta/Z          J
 -----------------------------------------------------------------------------------------------
      1  F 
      2  C 
      3  C 
      4  C 
      5  C 
      6  F 
      7  F 
      8  F 
      9  C 
     10  N 
     11  C 
     12  S 
     13  H 
     14  H 
     15  H 
         X       13   0.000000(     1)      3  -0.001032(     6)      2   0.000000(    11)     0
         X       16   0.000000(     2)     13   0.000000(     7)      3   0.000001(    12)     0
     16  O       13   0.000053(     3)     16  -0.001032(     8)     17  -0.000001(    13)     0
     17  H       18  -0.009899(     4)     13  -0.003955(     9)     16   0.000034(    14)     0
     18  H       18  -0.009899(     5)     13  -0.003955(    10)     16  -0.000034(    15)     0
 -----------------------------------------------------------------------------------------------
 Internal  Forces:  Max     0.009898838 RMS     0.003910610

 GradGradGradGradGradGradGradGradGradGradGradGradGradGradGradGradGradGrad
 Berny optimization.
 Search for a local minimum.
 Step number   2 out of a maximum of   20
 All quantities printed in internal units (Hartrees-Bohrs-Radians)
 Update second derivatives using D2CorN and points    1    2
 DE= -1.27D-07 DEPred=-7.06D-08 R= 1.80D+00
 Trust test= 1.80D+00 RLast= 2.14D-03 DXMaxT set to 3.00D-01
 The second derivative matrix:
                          RX       RDUM       ROH      ADUM      AHOA
           RX           0.00627
           RDUM         0.00000   0.00000
           ROH          0.00063   0.00000   1.12160
           ADUM        -0.00060   0.00000   0.00000   1.00904
           AHOA        -0.00068   0.00000   0.00000   0.00000   0.96000
           DOH          0.00000   0.00000   0.00000   0.00000   0.00000
           DD1          0.00000   0.00000   0.00000   0.00000   0.00000
           DD2          0.00000   0.00000   0.00000   0.00000   0.00000
           DH1         -0.00003   0.00000   0.00000   0.01595   0.00000
           DH2          0.00003   0.00000   0.00000  -0.01595   0.00000
                          DOH       DD1       DD2       DH1       DH2
           DOH          0.00000
           DD1          0.00000   0.30370
           DD2          0.00000  -0.30370   0.30370
           DH1          0.00000   0.00000   0.00000   0.02814
           DH2          0.00000   0.00000   0.00000  -0.02814   0.02814
     Eigenvalues ---    0.006271000.000001000.000001000.000001000.00000
     Eigenvalues --- 1000.000001000.000001000.000001000.000001000.00000
 RFO step:  Lambda= 0.00000000D+00 EMin= 6.26518557D-03
 Quartic linear search produced a step of  2.00000.
 Variable       Old X    -DE/DX   Delta X   Delta X   Delta X     New X
                                 (Linear)    (Quad)   (Total)
    RX        4.18675   0.00005   0.00428   0.00000   0.00428   4.19103
   RDUM       1.88973   0.00000   0.00000   0.00000   0.00000   1.88973
   ROH        1.80885  -0.01980   0.00000   0.00000   0.00000   1.80885
   ADUM       1.57080  -0.00206   0.00000   0.00000   0.00000   1.57080
   AHOA       2.22948  -0.00791   0.00000   0.00000   0.00000   2.22948
   DOH        3.14159   0.00000   0.00000   0.00000   0.00000   3.14159
   DD1        0.00000   0.00000   0.00000   0.00000   0.00000   0.00000
   DD2        3.14159   0.00000   0.00000   0.00000   0.00000   3.14159
   DH1        1.57080   0.00003   0.00000   0.00000   0.00000   1.57080
   DH2       -1.57080  -0.00003   0.00000   0.00000   0.00000  -1.57080
         Item               Value     Threshold  Converged?
 Maximum Force            0.000053     0.000450     YES
 RMS     Force            0.000053     0.000300     YES
 Maximum Displacement     0.004281     0.001800     NO 
 RMS     Displacement     0.001354     0.001200     NO 
 Predicted change in Energy=-1.674257D-07
 GradGradGradGradGradGradGradGradGradGradGradGradGradGradGradGradGradGrad

 ---------------------------------------------------------------------------------------------------
                            Z-MATRIX (ANGSTROMS AND DEGREES)
   CD    Cent   Atom    N1       Length/X        N2       Alpha/Y        N3        Beta/Z          J
 ---------------------------------------------------------------------------------------------------
      1      1  F       -1  -1.969300          2.053680          0.000070
      2      2  C       -1  -1.222250          0.944230          0.000030
      3      3  C       -1   0.140030          1.057400         -0.000020
      4      4  C       -1   0.927950         -0.123640         -0.000080
      5      5  C       -1   2.414660         -0.018650         -0.000010
      6      6  F       -1   3.007080         -1.234610         -0.000560
      7      7  F       -1   2.858290          0.654480         -1.086020
      8      8  F       -1   2.858270          0.653500          1.086650
      9      9  C       -1   0.306540         -1.341490         -0.000090
     10     10  N       -1  -1.054170         -1.389970         -0.000060
     11     11  C       -1  -1.930500         -0.312100          0.000000
     12     12  S       -1  -3.570980         -0.506610          0.000030
     13     13  H       -1   0.596860          2.043100         -0.000020
     14     14  H       -1   0.831760         -2.288990         -0.000150
     15     15  H       -1  -1.521480         -2.296390         -0.000090
     16         X       13   1.000000(    15)      3   90.000(    33)      2  180.000(    50)      0
     17         X       16   1.000000(    16)     13   90.000(    34)      3    0.000(    51)      0
     18     16  O       13   2.217798(    17)     16   90.000(    35)     17  180.000(    52)      0
     19     17  H       18   0.957200(    18)     13  127.740(    36)     16   90.000(    53)      0
     20     18  H       18   0.957200(    19)     13  127.740(    37)     16  -90.000(    54)      0
 ---------------------------------------------------------------------------------------------------
                         Z-Matrix orientation:                         
 ---------------------------------------------------------------------
 Center     Atomic      Atomic             Coordinates (Angstroms)
 Number     Number       Type             X           Y           Z
 ---------------------------------------------------------------------
      1          9           0       -1.969300    2.053680    0.000070
      2          6           0       -1.222250    0.944230    0.000030
      3          6           0        0.140030    1.057400   -0.000020
      4          6           0        0.927950   -0.123640   -0.000080
      5          6           0        2.414660   -0.018650   -0.000010
      6          9           0        3.007080   -1.234610   -0.000560
      7          9           0        2.858290    0.654480   -1.086020
      8          9           0        2.858270    0.653500    1.086650
      9          6           0        0.306540   -1.341490   -0.000090
     10          7           0       -1.054170   -1.389970   -0.000060
     11          6           0       -1.930500   -0.312100    0.000000
     12         16           0       -3.570980   -0.506610    0.000030
     13          1           0        0.596860    2.043100   -0.000020
     14          1           0        0.831760   -2.288990   -0.000150
     15          1           0       -1.521480   -2.296390   -0.000090
     16         -1           0        1.504156    1.622607   -0.000062
     17         -1           0        1.083663    0.715311   -0.000062
     18          8           0        1.529429    4.055299   -0.000020
     19          1           0        1.775759    4.586881   -0.756970
     20          1           0        1.775817    4.586854    0.756930
 ---------------------------------------------------------------------
                    Distance matrix (angstroms):
                    1          2          3          4          5
     1  F    0.000000
     2  C    1.337521   0.000000
     3  C    2.332777   1.366973   0.000000
     4  C    3.624194   2.400772   1.419744   0.000000
     5  C    4.849088   3.762214   2.516312   1.490413   0.000000
     6  F    5.964663   4.757581   3.670597   2.357337   1.352598
     7  F    5.142274   4.232525   2.954772   2.347541   1.352527
     8  F    5.142625   4.232719   2.955134   2.347566   1.352555
     9  C    4.087374   2.749857   2.404662   1.367227   2.488790
    10  N    3.563171   2.340244   2.723184   2.352104   3.730054
    11  C    2.366098   1.442215   2.482463   2.864656   4.355058
    12  S    3.020011   2.760701   4.027123   4.515201   6.005497
    13  H    2.566182   2.125247   1.086415   2.191890   2.748674
    14  H    5.167661   3.830492   3.417136   2.167485   2.767673
    15  H    4.373060   3.254406   3.742796   3.274225   4.547669
    16  X    3.500103   2.809534   1.476583   1.838856   1.876897
    17  X    3.333439   2.317248   1.003727   0.853279   1.519952
    18  O    4.030829   4.153370   3.304213   4.222003   4.169016
    19  H    4.584287   4.778076   3.963057   4.845686   4.710849
    20  H    4.584289   4.778076   3.963057   4.845688   4.710812
                    6          7          8          9         10
     6  F    0.000000
     7  F    2.183809   0.000000
     8  F    2.183834   2.172670   0.000000
     9  C    2.702654   3.416807   3.416477   0.000000
    10  N    4.064221   4.546034   4.545756   1.361573   0.000000
    11  C    5.023019   5.004620   5.004549   2.462517   1.389157
    12  S    6.618222   6.622926   6.622828   3.966382   2.667332
    13  H    4.068482   2.867355   2.868068   3.397019   3.809445
    14  H    2.417382   3.734964   3.734451   1.083334   2.089251
    15  H    4.651369   5.391592   5.391203   2.062399   1.019792
    16  X    3.228385   1.987525   1.988401   3.196898   3.952297
    17  X    2.738928   2.081419   2.081825   2.198716   3.000423
    18  O    5.492412   3.809309   3.810368   5.533605   6.027100
    19  H    5.998172   4.091934   4.476857   6.154434   6.656137
    20  H    5.998270   4.475688   4.092883   6.154439   6.656146
                   11         12         13         14         15
    11  C    0.000000
    12  S    1.651971   0.000000
    13  H    3.454637   4.885889   0.000000
    14  H    3.396789   4.749842   4.338454   0.000000
    15  H    2.026007   2.720986   4.828927   2.353252   0.000000
    16  X    3.942075   5.503687   1.000000   3.968968   4.951061
    17  X    3.184455   4.812358   1.414214   3.014843   3.982099
    18  O    5.571829   6.842893   2.217798   6.382534   7.046417
    19  H    6.189457   7.423228   2.904066   6.981512   7.669685
    20  H    6.189465   7.423241   2.904066   6.981522   7.669700
                   16         17         18         19         20
    16  X    0.000000
    17  X    1.000000   0.000000
    18  O    2.432823   3.369603   0.000000
    19  H    3.071416   4.005117   0.957200   0.000000
    20  H    3.071416   4.005117   0.957200   1.513901   0.000000
 Symmetry turned off by external request.
 Stoichiometry    C6H5F4NOS
 Framework group  C1[X(C6H5F4NOS)]
 Deg. of freedom    48
 Full point group                 C1      NOp   1
 Rotational constants (GHZ):      0.9508460      0.4127242      0.3037118
 Standard basis: 6-31G(d) (6D, 7F)
 Integral buffers will be    131072 words long.
 Raffenetti 1 integral format.
 Two-electron integral symmetry is turned off.
   209 basis functions,   408 primitive gaussians,   209 cartesian basis functions
    54 alpha electrons       54 beta electrons
       nuclear repulsion energy       922.1498420984 Hartrees.
 NAtoms=   18 NActive=   18 NUniq=   18 SFac= 7.50D-01 NAtFMM=   80 NAOKFM=F Big=F
 One-electron integrals computed using PRISM.
 NBasis=   209 RedAO= T  NBF=   209
 NBsUse=   209 1.00D-06 NBFU=   209
 Initial guess read from the read-write file.
 B after Tr=     0.000000    0.000000    0.000000
         Rot=    1.000000    0.000000    0.000000    0.000000 Ang=   0.00 deg.
 Requested convergence on RMS density matrix=1.00D-08 within 128 cycles.
 Requested convergence on MAX density matrix=1.00D-06.
 Requested convergence on             energy=1.00D-06.
 No special actions if energy rises.
 SCF Done:  E(RHF) =  -1154.67894163     A.U. after    6 cycles
             Convg  =    0.6867D-08             -V/T =  2.0018
 Calling FoFJK, ICntrl=      2127 FMM=F ISym2X=0 I1Cent= 0 IOpClX= 0 NMat=1 NMatS=1 NMatT=0.
 -------------------------------------------------------------------
 Center     Atomic                   Forces (Hartrees/Bohr)
 Number     Number              X              Y              Z
 -------------------------------------------------------------------
      1        9           0.000000000    0.000000000    0.000000000
      2        6           0.000000000    0.000000000    0.000000000
      3        6           0.000000000    0.000000000    0.000000000
      4        6           0.000000000    0.000000000    0.000000000
      5        6           0.000000000    0.000000000    0.000000000
      6        9           0.000000000    0.000000000    0.000000000
      7        9           0.000000000    0.000000000    0.000000000
      8        9           0.000000000    0.000000000    0.000000000
      9        6           0.000000000    0.000000000    0.000000000
     10        7           0.000000000    0.000000000    0.000000000
     11        6           0.000000000    0.000000000    0.000000000
     12       16           0.000000000    0.000000000    0.000000000
     13        1           0.000000000    0.000000000    0.000000000
     14        1           0.000000000    0.000000000    0.000000000
     15        1           0.000000000    0.000000000    0.000000000
     16        8           0.006838078    0.014027694    0.000000411
     17        1          -0.003296189   -0.007056628    0.006492636
     18        1          -0.003296824   -0.007056052   -0.006492705
 -------------------------------------------------------------------
 Cartesian Forces:  Max     0.014027694 RMS     0.002884065
 -----------------------------------------------------------------------------------------------
                       Internal Coordinate Forces (Hartree/Bohr or radian)
  Cent   Atom   N1       Length/X         N2         Alpha/Y        N3         Beta/Z          J
 -----------------------------------------------------------------------------------------------
      1  F 
      2  C 
      3  C 
      4  C 
      5  C 
      6  F 
      7  F 
      8  F 
      9  C 
     10  N 
     11  C 
     12  S 
     13  H 
     14  H 
     15  H 
         X       13   0.000000(     1)      3  -0.001029(     6)      2   0.000000(    11)     0
         X       16   0.000000(     2)     13   0.000000(     7)      3   0.000001(    12)     0
     16  O       13   0.000026(     3)     16  -0.001029(     8)     17  -0.000001(    13)     0
     17  H       18  -0.009902(     4)     13  -0.003952(     9)     16   0.000034(    14)     0
     18  H       18  -0.009901(     5)     13  -0.003952(    10)     16  -0.000034(    15)     0
 -----------------------------------------------------------------------------------------------
 Internal  Forces:  Max     0.009901516 RMS     0.003911006

 GradGradGradGradGradGradGradGradGradGradGradGradGradGradGradGradGradGrad
 Berny optimization.
 Search for a local minimum.
 Step number   3 out of a maximum of   20
 All quantities printed in internal units (Hartrees-Bohrs-Radians)
 Update second derivatives using D2CorN and points    2    3
 DE= -1.68D-07 DEPred=-1.67D-07 R= 1.00D+00
 Trust test= 1.00D+00 RLast= 4.28D-03 DXMaxT set to 3.00D-01
 The second derivative matrix:
                          RX       RDUM       ROH      ADUM      AHOA
           RX           0.00621
           RDUM         0.00000   0.00000
           ROH          0.00094   0.00000   1.12160
           ADUM        -0.00090   0.00000   0.00000   1.00904
           AHOA        -0.00104   0.00000   0.00000   0.00000   0.96000
           DOH          0.00000   0.00000   0.00000   0.00000   0.00000
           DD1          0.00000   0.00000   0.00000   0.00000   0.00000
           DD2          0.00000   0.00000   0.00000   0.00000   0.00000
           DH1         -0.00005   0.00000   0.00000   0.01595   0.00000
           DH2          0.00005   0.00000   0.00000  -0.01595   0.00000
                          DOH       DD1       DD2       DH1       DH2
           DOH          0.00000
           DD1          0.00000   0.30370
           DD2          0.00000  -0.30370   0.30370
           DH1          0.00000   0.00000   0.00000   0.02814
           DH2          0.00000   0.00000   0.00000  -0.02814   0.02814
     Eigenvalues ---    0.006211000.000001000.000001000.000001000.00000
     Eigenvalues --- 1000.000001000.000001000.000001000.000001000.00000
 RFO step:  Lambda= 0.00000000D+00 EMin= 6.20855027D-03
 Quartic linear search produced a step of  1.00083.
 Variable       Old X    -DE/DX   Delta X   Delta X   Delta X     New X
                                 (Linear)    (Quad)   (Total)
    RX        4.19103   0.00003   0.00428   0.00000   0.00428   4.19532
   RDUM       1.88973   0.00000   0.00000   0.00000   0.00000   1.88973
   ROH        1.80885  -0.01980   0.00000   0.00000   0.00000   1.80885
   ADUM       1.57080  -0.00206   0.00000   0.00000   0.00000   1.57080
   AHOA       2.22948  -0.00790   0.00000   0.00000   0.00000   2.22948
   DOH        3.14159   0.00000   0.00000   0.00000   0.00000   3.14159
   DD1        0.00000   0.00000   0.00000   0.00000   0.00000   0.00000
   DD2        3.14159   0.00000   0.00000   0.00000   0.00000   3.14159
   DH1        1.57080   0.00003   0.00000   0.00000   0.00000   1.57080
   DH2       -1.57080  -0.00003   0.00000   0.00000   0.00000  -1.57080
         Item               Value     Threshold  Converged?
 Maximum Force            0.000026     0.000450     YES
 RMS     Force            0.000026     0.000300     YES
 Maximum Displacement     0.004285     0.001800     NO 
 RMS     Displacement     0.001355     0.001200     NO 
 Predicted change in Energy=-5.415748D-08
 GradGradGradGradGradGradGradGradGradGradGradGradGradGradGradGradGradGrad

 ---------------------------------------------------------------------------------------------------
                            Z-MATRIX (ANGSTROMS AND DEGREES)
   CD    Cent   Atom    N1       Length/X        N2       Alpha/Y        N3        Beta/Z          J
 ---------------------------------------------------------------------------------------------------
      1      1  F       -1  -1.969300          2.053680          0.000070
      2      2  C       -1  -1.222250          0.944230          0.000030
      3      3  C       -1   0.140030          1.057400         -0.000020
      4      4  C       -1   0.927950         -0.123640         -0.000080
      5      5  C       -1   2.414660         -0.018650         -0.000010
      6      6  F       -1   3.007080         -1.234610         -0.000560
      7      7  F       -1   2.858290          0.654480         -1.086020
      8      8  F       -1   2.858270          0.653500          1.086650
      9      9  C       -1   0.306540         -1.341490         -0.000090
     10     10  N       -1  -1.054170         -1.389970         -0.000060
     11     11  C       -1  -1.930500         -0.312100          0.000000
     12     12  S       -1  -3.570980         -0.506610          0.000030
     13     13  H       -1   0.596860          2.043100         -0.000020
     14     14  H       -1   0.831760         -2.288990         -0.000150
     15     15  H       -1  -1.521480         -2.296390         -0.000090
     16         X       13   1.000000(    15)      3   90.000(    33)      2  180.000(    50)      0
     17         X       16   1.000000(    16)     13   90.000(    34)      3    0.000(    51)      0
     18     16  O       13   2.220065(    17)     16   90.000(    35)     17  180.000(    52)      0
     19     17  H       18   0.957200(    18)     13  127.740(    36)     16   90.000(    53)      0
     20     18  H       18   0.957200(    19)     13  127.740(    37)     16  -90.000(    54)      0
 ---------------------------------------------------------------------------------------------------
                         Z-Matrix orientation:                         
 ---------------------------------------------------------------------
 Center     Atomic      Atomic             Coordinates (Angstroms)
 Number     Number       Type             X           Y           Z
 ---------------------------------------------------------------------
      1          9           0       -1.969300    2.053680    0.000070
      2          6           0       -1.222250    0.944230    0.000030
      3          6           0        0.140030    1.057400   -0.000020
      4          6           0        0.927950   -0.123640   -0.000080
      5          6           0        2.414660   -0.018650   -0.000010
      6          9           0        3.007080   -1.234610   -0.000560
      7          9           0        2.858290    0.654480   -1.086020
      8          9           0        2.858270    0.653500    1.086650
      9          6           0        0.306540   -1.341490   -0.000090
     10          7           0       -1.054170   -1.389970   -0.000060
     11          6           0       -1.930500   -0.312100    0.000000
     12         16           0       -3.570980   -0.506610    0.000030
     13          1           0        0.596860    2.043100   -0.000020
     14          1           0        0.831760   -2.288990   -0.000150
     15          1           0       -1.521480   -2.296390   -0.000090
     16         -1           0        1.504156    1.622607   -0.000062
     17         -1           0        1.083663    0.715311   -0.000062
     18          8           0        1.530382    4.057356   -0.000020
     19          1           0        1.776712    4.588938   -0.756970
     20          1           0        1.776770    4.588911    0.756930
 ---------------------------------------------------------------------
                    Distance matrix (angstroms):
                    1          2          3          4          5
     1  F    0.000000
     2  C    1.337521   0.000000
     3  C    2.332777   1.366973   0.000000
     4  C    3.624194   2.400772   1.419744   0.000000
     5  C    4.849088   3.762214   2.516312   1.490413   0.000000
     6  F    5.964663   4.757581   3.670597   2.357337   1.352598
     7  F    5.142274   4.232525   2.954772   2.347541   1.352527
     8  F    5.142625   4.232719   2.955134   2.347566   1.352555
     9  C    4.087374   2.749857   2.404662   1.367227   2.488790
    10  N    3.563171   2.340244   2.723184   2.352104   3.730054
    11  C    2.366098   1.442215   2.482463   2.864656   4.355058
    12  S    3.020011   2.760701   4.027123   4.515201   6.005497
    13  H    2.566182   2.125247   1.086415   2.191890   2.748674
    14  H    5.167661   3.830492   3.417136   2.167485   2.767673
    15  H    4.373060   3.254406   3.742796   3.274225   4.547669
    16  X    3.500103   2.809534   1.476583   1.838856   1.876897
    17  X    3.333439   2.317248   1.003727   0.853279   1.519952
    18  O    4.032678   4.155543   3.306481   4.224175   4.170824
    19  H    4.586202   4.780243   3.965282   4.847852   4.712731
    20  H    4.586205   4.780243   3.965282   4.847855   4.712694
                    6          7          8          9         10
     6  F    0.000000
     7  F    2.183809   0.000000
     8  F    2.183834   2.172670   0.000000
     9  C    2.702654   3.416807   3.416477   0.000000
    10  N    4.064221   4.546034   4.545756   1.361573   0.000000
    11  C    5.023019   5.004620   5.004549   2.462517   1.389157
    12  S    6.618222   6.622926   6.622828   3.966382   2.667332
    13  H    4.068482   2.867355   2.868068   3.397019   3.809445
    14  H    2.417382   3.734964   3.734451   1.083334   2.089251
    15  H    4.651369   5.391592   5.391203   2.062399   1.019792
    16  X    3.228385   1.987525   1.988401   3.196898   3.952297
    17  X    2.738928   2.081419   2.081825   2.198716   3.000423
    18  O    5.494137   3.810814   3.811873   5.535822   6.029367
    19  H    5.999973   4.093659   4.478434   6.156643   6.658389
    20  H    6.000071   4.477265   4.094608   6.156648   6.658399
                   11         12         13         14         15
    11  C    0.000000
    12  S    1.651971   0.000000
    13  H    3.454637   4.885889   0.000000
    14  H    3.396789   4.749842   4.338454   0.000000
    15  H    2.026007   2.720986   4.828927   2.353252   0.000000
    16  X    3.942075   5.503687   1.000000   3.968968   4.951061
    17  X    3.184455   4.812358   1.414214   3.014843   3.982099
    18  O    5.574034   6.844975   2.220065   6.384683   7.048684
    19  H    6.191656   7.425326   2.906255   6.983667   7.671941
    20  H    6.191664   7.425339   2.906255   6.983677   7.671956
                   16         17         18         19         20
    16  X    0.000000
    17  X    1.000000   0.000000
    18  O    2.434890   3.371768   0.000000
    19  H    3.073486   4.007270   0.957200   0.000000
    20  H    3.073486   4.007270   0.957200   1.513901   0.000000
 Symmetry turned off by external request.
 Stoichiometry    C6H5F4NOS
 Framework group  C1[X(C6H5F4NOS)]
 Deg. of freedom    48
 Full point group                 C1      NOp   1
 Rotational constants (GHZ):      0.9504148      0.4126957      0.3036524
 Standard basis: 6-31G(d) (6D, 7F)
 Integral buffers will be    131072 words long.
 Raffenetti 1 integral format.
 Two-electron integral symmetry is turned off.
   209 basis functions,   408 primitive gaussians,   209 cartesian basis functions
    54 alpha electrons       54 beta electrons
       nuclear repulsion energy       922.1025469265 Hartrees.
 NAtoms=   18 NActive=   18 NUniq=   18 SFac= 7.50D-01 NAtFMM=   80 NAOKFM=F Big=F
 One-electron integrals computed using PRISM.
 NBasis=   209 RedAO= T  NBF=   209
 NBsUse=   209 1.00D-06 NBFU=   209
 Initial guess read from the read-write file.
 B after Tr=     0.000000    0.000000    0.000000
         Rot=    1.000000    0.000000    0.000000    0.000000 Ang=   0.00 deg.
 Requested convergence on RMS density matrix=1.00D-08 within 128 cycles.
 Requested convergence on MAX density matrix=1.00D-06.
 Requested convergence on             energy=1.00D-06.
 No special actions if energy rises.
 SCF Done:  E(RHF) =  -1154.67894169     A.U. after    6 cycles
             Convg  =    0.6935D-08             -V/T =  2.0018
 Calling FoFJK, ICntrl=      2127 FMM=F ISym2X=0 I1Cent= 0 IOpClX= 0 NMat=1 NMatS=1 NMatT=0.
 -------------------------------------------------------------------
 Center     Atomic                   Forces (Hartrees/Bohr)
 Number     Number              X              Y              Z
 -------------------------------------------------------------------
      1        9           0.000000000    0.000000000    0.000000000
      2        6           0.000000000    0.000000000    0.000000000
      3        6           0.000000000    0.000000000    0.000000000
      4        6           0.000000000    0.000000000    0.000000000
      5        6           0.000000000    0.000000000    0.000000000
      6        9           0.000000000    0.000000000    0.000000000
      7        9           0.000000000    0.000000000    0.000000000
      8        9           0.000000000    0.000000000    0.000000000
      9        6           0.000000000    0.000000000    0.000000000
     10        7           0.000000000    0.000000000    0.000000000
     11        6           0.000000000    0.000000000    0.000000000
     12       16           0.000000000    0.000000000    0.000000000
     13        1           0.000000000    0.000000000    0.000000000
     14        1           0.000000000    0.000000000    0.000000000
     15        1           0.000000000    0.000000000    0.000000000
     16        8           0.006826924    0.014004629    0.000000410
     17        1          -0.003296497   -0.007056860    0.006495738
     18        1          -0.003297131   -0.007056285   -0.006495806
 -------------------------------------------------------------------
 Cartesian Forces:  Max     0.014004629 RMS     0.002881792
 -----------------------------------------------------------------------------------------------
                       Internal Coordinate Forces (Hartree/Bohr or radian)
  Cent   Atom   N1       Length/X         N2         Alpha/Y        N3         Beta/Z          J
 -----------------------------------------------------------------------------------------------
      1  F 
      2  C 
      3  C 
      4  C 
      5  C 
      6  F 
      7  F 
      8  F 
      9  C 
     10  N 
     11  C 
     12  S 
     13  H 
     14  H 
     15  H 
         X       13   0.000000(     1)      3  -0.001026(     6)      2   0.000000(    11)     0
         X       16   0.000000(     2)     13   0.000000(     7)      3   0.000001(    12)     0
     16  O       13   0.000000(     3)     16  -0.001026(     8)     17  -0.000001(    13)     0
     17  H       18  -0.009904(     4)     13  -0.003950(     9)     16   0.000034(    14)     0
     18  H       18  -0.009904(     5)     13  -0.003949(    10)     16  -0.000034(    15)     0
 -----------------------------------------------------------------------------------------------
 Internal  Forces:  Max     0.009904177 RMS     0.003911412

 GradGradGradGradGradGradGradGradGradGradGradGradGradGradGradGradGradGrad
 Berny optimization.
 Search for a local minimum.
 Step number   4 out of a maximum of   20
 All quantities printed in internal units (Hartrees-Bohrs-Radians)
 Update second derivatives using D2CorN and points    3    4
 DE= -5.47D-08 DEPred=-5.42D-08 R= 1.01D+00
 Trust test= 1.01D+00 RLast= 4.28D-03 DXMaxT set to 3.00D-01
 The second derivative matrix:
                          RX       RDUM       ROH      ADUM      AHOA
           RX           0.00614
           RDUM         0.00000   0.00000
           ROH          0.00109   0.00000   1.12160
           ADUM        -0.00105   0.00000   0.00000   1.00904
           AHOA        -0.00121   0.00000   0.00000   0.00000   0.96000
           DOH          0.00000   0.00000   0.00000   0.00000   0.00000
           DD1          0.00000   0.00000   0.00000   0.00000   0.00000
           DD2          0.00000   0.00000   0.00000   0.00000   0.00000
           DH1         -0.00005   0.00000   0.00000   0.01595   0.00000
           DH2          0.00005   0.00000   0.00000  -0.01595   0.00000
                          DOH       DD1       DD2       DH1       DH2
           DOH          0.00000
           DD1          0.00000   0.30370
           DD2          0.00000  -0.30370   0.30370
           DH1          0.00000   0.00000   0.00000   0.02814
           DH2          0.00000   0.00000   0.00000  -0.02814   0.02814
     Eigenvalues ---    0.006141000.000001000.000001000.000001000.00000
     Eigenvalues --- 1000.000001000.000001000.000001000.000001000.00000
 RFO step:  Lambda= 0.00000000D+00 EMin= 6.13753245D-03
 Quartic linear search produced a step of -0.01362.
 Variable       Old X    -DE/DX   Delta X   Delta X   Delta X     New X
                                 (Linear)    (Quad)   (Total)
    RX        4.19532   0.00000  -0.00006   0.00000  -0.00006   4.19526
   RDUM       1.88973   0.00000   0.00000   0.00000   0.00000   1.88973
   ROH        1.80885  -0.01981   0.00000   0.00000   0.00000   1.80885
   ADUM       1.57080  -0.00205   0.00000   0.00000   0.00000   1.57080
   AHOA       2.22948  -0.00790   0.00000   0.00000   0.00000   2.22948
   DOH        3.14159   0.00000   0.00000   0.00000   0.00000   3.14159
   DD1        0.00000   0.00000   0.00000   0.00000   0.00000   0.00000
   DD2        3.14159   0.00000   0.00000   0.00000   0.00000   3.14159
   DH1        1.57080   0.00003   0.00000   0.00000   0.00000   1.57080
   DH2       -1.57080  -0.00003   0.00000   0.00000   0.00000  -1.57080
         Item               Value     Threshold  Converged?
 Maximum Force            0.000000     0.000450     YES
 RMS     Force            0.000000     0.000300     YES
 Maximum Displacement     0.000058     0.001800     YES
 RMS     Displacement     0.000018     0.001200     YES
 Predicted change in Energy=-1.032977D-11
 Optimization completed.
    -- Stationary point found.
                       ----------------------------
                       !   Optimized Parameters   !
                       ! (Angstroms and Degrees)  !
 ----------------------                            ----------------------
 !      Name          Value   Derivative information (Atomic Units)     !
 ------------------------------------------------------------------------
 !       RX          2.2201   -DE/DX =    0.0                           !
 !      RDUM         1.0      -DE/DX =    0.0                           !
 !       ROH         0.9572   -DE/DX =   -0.0198                        !
 !      ADUM        90.0      -DE/DX =   -0.0021                        !
 !      AHOA       127.74     -DE/DX =   -0.0079                        !
 !       DOH       180.0      -DE/DX =    0.0                           !
 !       DD1         0.0      -DE/DX =    0.0                           !
 !       DD2       180.0      -DE/DX =    0.0                           !
 !       DH1        90.0      -DE/DX =    0.0                           !
 !       DH2       -90.0      -DE/DX =    0.0                           !
 ------------------------------------------------------------------------
 GradGradGradGradGradGradGradGradGradGradGradGradGradGradGradGradGradGrad

 ---------------------------------------------------------------------------------------------------
                            Z-MATRIX (ANGSTROMS AND DEGREES)
   CD    Cent   Atom    N1       Length/X        N2       Alpha/Y        N3        Beta/Z          J
 ---------------------------------------------------------------------------------------------------
      1      1  F       -1  -1.969300          2.053680          0.000070
      2      2  C       -1  -1.222250          0.944230          0.000030
      3      3  C       -1   0.140030          1.057400         -0.000020
      4      4  C       -1   0.927950         -0.123640         -0.000080
      5      5  C       -1   2.414660         -0.018650         -0.000010
      6      6  F       -1   3.007080         -1.234610         -0.000560
      7      7  F       -1   2.858290          0.654480         -1.086020
      8      8  F       -1   2.858270          0.653500          1.086650
      9      9  C       -1   0.306540         -1.341490         -0.000090
     10     10  N       -1  -1.054170         -1.389970         -0.000060
     11     11  C       -1  -1.930500         -0.312100          0.000000
     12     12  S       -1  -3.570980         -0.506610          0.000030
     13     13  H       -1   0.596860          2.043100         -0.000020
     14     14  H       -1   0.831760         -2.288990         -0.000150
     15     15  H       -1  -1.521480         -2.296390         -0.000090
     16         X       13   1.000000(    15)      3   90.000(    33)      2  180.000(    50)      0
     17         X       16   1.000000(    16)     13   90.000(    34)      3    0.000(    51)      0
     18     16  O       13   2.220065(    17)     16   90.000(    35)     17  180.000(    52)      0
     19     17  H       18   0.957200(    18)     13  127.740(    36)     16   90.000(    53)      0
     20     18  H       18   0.957200(    19)     13  127.740(    37)     16  -90.000(    54)      0
 ---------------------------------------------------------------------------------------------------
                         Z-Matrix orientation:                         
 ---------------------------------------------------------------------
 Center     Atomic      Atomic             Coordinates (Angstroms)
 Number     Number       Type             X           Y           Z
 ---------------------------------------------------------------------
      1          9           0       -1.969300    2.053680    0.000070
      2          6           0       -1.222250    0.944230    0.000030
      3          6           0        0.140030    1.057400   -0.000020
      4          6           0        0.927950   -0.123640   -0.000080
      5          6           0        2.414660   -0.018650   -0.000010
      6          9           0        3.007080   -1.234610   -0.000560
      7          9           0        2.858290    0.654480   -1.086020
      8          9           0        2.858270    0.653500    1.086650
      9          6           0        0.306540   -1.341490   -0.000090
     10          7           0       -1.054170   -1.389970   -0.000060
     11          6           0       -1.930500   -0.312100    0.000000
     12         16           0       -3.570980   -0.506610    0.000030
     13          1           0        0.596860    2.043100   -0.000020
     14          1           0        0.831760   -2.288990   -0.000150
     15          1           0       -1.521480   -2.296390   -0.000090
     16         -1           0        1.504156    1.622607   -0.000062
     17         -1           0        1.083663    0.715311   -0.000062
     18          8           0        1.530382    4.057356   -0.000020
     19          1           0        1.776712    4.588938   -0.756970
     20          1           0        1.776770    4.588911    0.756930
 ---------------------------------------------------------------------
                    Distance matrix (angstroms):
                    1          2          3          4          5
     1  F    0.000000
     2  C    1.337521   0.000000
     3  C    2.332777   1.366973   0.000000
     4  C    3.624194   2.400772   1.419744   0.000000
     5  C    4.849088   3.762214   2.516312   1.490413   0.000000
     6  F    5.964663   4.757581   3.670597   2.357337   1.352598
     7  F    5.142274   4.232525   2.954772   2.347541   1.352527
     8  F    5.142625   4.232719   2.955134   2.347566   1.352555
     9  C    4.087374   2.749857   2.404662   1.367227   2.488790
    10  N    3.563171   2.340244   2.723184   2.352104   3.730054
    11  C    2.366098   1.442215   2.482463   2.864656   4.355058
    12  S    3.020011   2.760701   4.027123   4.515201   6.005497
    13  H    2.566182   2.125247   1.086415   2.191890   2.748674
    14  H    5.167661   3.830492   3.417136   2.167485   2.767673
    15  H    4.373060   3.254406   3.742796   3.274225   4.547669
    16  X    3.500103   2.809534   1.476583   1.838856   1.876897
    17  X    3.333439   2.317248   1.003727   0.853279   1.519952
    18  O    4.032678   4.155543   3.306481   4.224175   4.170824
    19  H    4.586202   4.780243   3.965282   4.847852   4.712731
    20  H    4.586205   4.780243   3.965282   4.847855   4.712694
                    6          7          8          9         10
     6  F    0.000000
     7  F    2.183809   0.000000
     8  F    2.183834   2.172670   0.000000
     9  C    2.702654   3.416807   3.416477   0.000000
    10  N    4.064221   4.546034   4.545756   1.361573   0.000000
    11  C    5.023019   5.004620   5.004549   2.462517   1.389157
    12  S    6.618222   6.622926   6.622828   3.966382   2.667332
    13  H    4.068482   2.867355   2.868068   3.397019   3.809445
    14  H    2.417382   3.734964   3.734451   1.083334   2.089251
    15  H    4.651369   5.391592   5.391203   2.062399   1.019792
    16  X    3.228385   1.987525   1.988401   3.196898   3.952297
    17  X    2.738928   2.081419   2.081825   2.198716   3.000423
    18  O    5.494137   3.810814   3.811873   5.535822   6.029367
    19  H    5.999973   4.093659   4.478434   6.156643   6.658389
    20  H    6.000071   4.477265   4.094608   6.156648   6.658399
                   11         12         13         14         15
    11  C    0.000000
    12  S    1.651971   0.000000
    13  H    3.454637   4.885889   0.000000
    14  H    3.396789   4.749842   4.338454   0.000000
    15  H    2.026007   2.720986   4.828927   2.353252   0.000000
    16  X    3.942075   5.503687   1.000000   3.968968   4.951061
    17  X    3.184455   4.812358   1.414214   3.014843   3.982099
    18  O    5.574034   6.844975   2.220065   6.384683   7.048684
    19  H    6.191656   7.425326   2.906255   6.983667   7.671941
    20  H    6.191664   7.425339   2.906255   6.983677   7.671956
                   16         17         18         19         20
    16  X    0.000000
    17  X    1.000000   0.000000
    18  O    2.434890   3.371768   0.000000
    19  H    3.073486   4.007270   0.957200   0.000000
    20  H    3.073486   4.007270   0.957200   1.513901   0.000000
 Symmetry turned off by external request.
 Stoichiometry    C6H5F4NOS
 Framework group  C1[X(C6H5F4NOS)]
 Deg. of freedom    48
 Full point group                 C1      NOp   1
 Rotational constants (GHZ):      0.9504148      0.4126957      0.3036524

 **********************************************************************

            Population analysis using the SCF density.

 **********************************************************************

 Alpha  occ. eigenvalues --  -91.89229 -26.35827 -26.34687 -26.34684 -26.31896
 Alpha  occ. eigenvalues --  -20.58412 -15.67574 -11.52988 -11.36559 -11.35485
 Alpha  occ. eigenvalues --  -11.34887 -11.29096 -11.28964  -8.90327  -6.58662
 Alpha  occ. eigenvalues --   -6.58380  -6.58260  -1.72948  -1.64009  -1.63189
 Alpha  occ. eigenvalues --   -1.63162  -1.36495  -1.34336  -1.15662  -1.10680
 Alpha  occ. eigenvalues --   -1.01663  -0.95891  -0.91203  -0.86930  -0.83568
 Alpha  occ. eigenvalues --   -0.82535  -0.82176  -0.75644  -0.74510  -0.72960
 Alpha  occ. eigenvalues --   -0.72504  -0.71114  -0.70421  -0.69829  -0.68700
 Alpha  occ. eigenvalues --   -0.66370  -0.66350  -0.64916  -0.62581  -0.61309
 Alpha  occ. eigenvalues --   -0.60762  -0.58598  -0.57306  -0.52133  -0.51258
 Alpha  occ. eigenvalues --   -0.45043  -0.41933  -0.32959  -0.29780
 Alpha virt. eigenvalues --    0.05934   0.10004   0.18536   0.19407   0.26214
 Alpha virt. eigenvalues --    0.27321   0.28005   0.28902   0.30761   0.32236
 Alpha virt. eigenvalues --    0.35958   0.38998   0.41058   0.41920   0.44094
 Alpha virt. eigenvalues --    0.44718   0.47825   0.51053   0.55494   0.56834
 Alpha virt. eigenvalues --    0.57723   0.61146   0.62450   0.65765   0.68046
 Alpha virt. eigenvalues --    0.69132   0.73713   0.74460   0.75155   0.76982
 Alpha virt. eigenvalues --    0.78482   0.79430   0.84738   0.85725   0.88774
 Alpha virt. eigenvalues --    0.90541   0.91345   0.93096   0.97337   1.00032
 Alpha virt. eigenvalues --    1.01786   1.03503   1.04018   1.07315   1.10393
 Alpha virt. eigenvalues --    1.10538   1.11217   1.13622   1.14114   1.15184
 Alpha virt. eigenvalues --    1.16456   1.18088   1.19136   1.26240   1.29963
 Alpha virt. eigenvalues --    1.32661   1.32824   1.34576   1.35481   1.36013
 Alpha virt. eigenvalues --    1.36241   1.40131   1.41632   1.43562   1.43713
 Alpha virt. eigenvalues --    1.47516   1.48274   1.53544   1.55826   1.61852
 Alpha virt. eigenvalues --    1.62117   1.62855   1.65101   1.65534   1.66077
 Alpha virt. eigenvalues --    1.67248   1.67800   1.69007   1.71076   1.71446
 Alpha virt. eigenvalues --    1.74186   1.77540   1.77701   1.82748   1.88453
 Alpha virt. eigenvalues --    1.91109   1.93762   1.94913   2.00990   2.01418
 Alpha virt. eigenvalues --    2.04228   2.05783   2.07665   2.10584   2.11498
 Alpha virt. eigenvalues --    2.13448   2.13609   2.16381   2.19639   2.21815
 Alpha virt. eigenvalues --    2.23937   2.24122   2.26041   2.29725   2.31083
 Alpha virt. eigenvalues --    2.33771   2.33938   2.35100   2.36151   2.37340
 Alpha virt. eigenvalues --    2.39216   2.40680   2.45072   2.46663   2.46870
 Alpha virt. eigenvalues --    2.48430   2.53548   2.60361   2.62419   2.63397
 Alpha virt. eigenvalues --    2.67086   2.69894   2.76493   2.84339   2.86010
 Alpha virt. eigenvalues --    2.86664   2.92295   2.93834   2.94337   2.94728
 Alpha virt. eigenvalues --    3.01809   3.08609   3.10975   3.18792   3.23502
 Alpha virt. eigenvalues --    3.31000   3.38629   3.39863   3.44699   3.45997
 Alpha virt. eigenvalues --    3.51047   3.72806   4.06502   4.37787   4.41322
 Alpha virt. eigenvalues --    4.47756   4.49800   4.62370   4.66153   4.69940
 Alpha virt. eigenvalues --    4.83817   5.04395   5.16919   5.61768   6.03168
          Condensed to atoms (all electrons):
              1          2          3          4          5          6
     1  F    9.162353   0.267528  -0.034193   0.002233  -0.000015   0.000000
     2  C    0.267528   4.598920   0.565318  -0.024775   0.001155  -0.000021
     3  C   -0.034193   0.565318   5.133671   0.353069  -0.010126   0.002146
     4  C    0.002233  -0.024775   0.353069   5.218596   0.414700  -0.045132
     5  C   -0.000015   0.001155  -0.010126   0.414700   3.551149   0.286964
     6  F    0.000000  -0.000021   0.002146  -0.045132   0.286964   9.192992
     7  F    0.000000   0.000277   0.004570  -0.053711   0.282573  -0.030651
     8  F    0.000000   0.000277   0.004565  -0.053720   0.282579  -0.030652
     9  C    0.000114  -0.025590  -0.054027   0.586615  -0.022820   0.005691
    10  N    0.001408  -0.050332  -0.022944  -0.033447   0.001295   0.000239
    11  C   -0.041813   0.379640  -0.077767  -0.002745   0.000017   0.000002
    12  S    0.003690  -0.083797   0.001684  -0.000068   0.000007   0.000000
    13  H    0.000623  -0.016091   0.342188  -0.025778   0.000362   0.000042
    14  H    0.000000  -0.000131   0.001847  -0.022648  -0.000131   0.005080
    15  H   -0.000019   0.003844  -0.000594   0.002337  -0.000016   0.000001
    16  O   -0.000007   0.000044  -0.006196  -0.000407   0.000606   0.000000
    17  H    0.000000  -0.000007   0.000301   0.000003  -0.000014   0.000000
    18  H    0.000000  -0.000007   0.000301   0.000003  -0.000014   0.000000
              7          8          9         10         11         12
     1  F    0.000000   0.000000   0.000114   0.001408  -0.041813   0.003690
     2  C    0.000277   0.000277  -0.025590  -0.050332   0.379640  -0.083797
     3  C    0.004570   0.004565  -0.054027  -0.022944  -0.077767   0.001684
     4  C   -0.053711  -0.053720   0.586615  -0.033447  -0.002745  -0.000068
     5  C    0.282573   0.282579  -0.022820   0.001295   0.000017   0.000007
     6  F   -0.030651  -0.030652   0.005691   0.000239   0.000002   0.000000
     7  F    9.203692  -0.033546   0.000553  -0.000006  -0.000001   0.000000
     8  F   -0.033546   9.203718   0.000550  -0.000006  -0.000001   0.000000
     9  C    0.000553   0.000550   4.750092   0.262481  -0.037616   0.003385
    10  N   -0.000006  -0.000006   0.262481   7.234767   0.213652  -0.104452
    11  C   -0.000001  -0.000001  -0.037616   0.213652   4.954926   0.439015
    12  S    0.000000   0.000000   0.003385  -0.104452   0.439015  15.979890
    13  H    0.001040   0.001037   0.002107  -0.000296   0.002563  -0.000026
    14  H    0.000083   0.000083   0.380626  -0.032795   0.000976  -0.000141
    15  H    0.000000   0.000000  -0.021816   0.310416  -0.018170   0.014102
    16  O   -0.000035  -0.000035  -0.000005   0.000000  -0.000001   0.000000
    17  H    0.000009   0.000001   0.000000   0.000000   0.000000   0.000000
    18  H    0.000001   0.000009   0.000000   0.000000   0.000000   0.000000
             13         14         15         16         17         18
     1  F    0.000623   0.000000  -0.000019  -0.000007   0.000000   0.000000
     2  C   -0.016091  -0.000131   0.003844   0.000044  -0.000007  -0.000007
     3  C    0.342188   0.001847  -0.000594  -0.006196   0.000301   0.000301
     4  C   -0.025778  -0.022648   0.002337  -0.000407   0.000003   0.000003
     5  C    0.000362  -0.000131  -0.000016   0.000606  -0.000014  -0.000014
     6  F    0.000042   0.005080   0.000001   0.000000   0.000000   0.000000
     7  F    0.001040   0.000083   0.000000  -0.000035   0.000009   0.000001
     8  F    0.001037   0.000083   0.000000  -0.000035   0.000001   0.000009
     9  C    0.002107   0.380626  -0.021816  -0.000005   0.000000   0.000000
    10  N   -0.000296  -0.032795   0.310416   0.000000   0.000000   0.000000
    11  C    0.002563   0.000976  -0.018170  -0.000001   0.000000   0.000000
    12  S   -0.000026  -0.000141   0.014102   0.000000   0.000000   0.000000
    13  H    0.318199  -0.000054   0.000007   0.013905  -0.000320  -0.000320
    14  H   -0.000054   0.386591  -0.002174   0.000000   0.000000   0.000000
    15  H    0.000007  -0.002174   0.273646   0.000000   0.000000   0.000000
    16  O    0.013905   0.000000   0.000000   8.336969   0.265574   0.265574
    17  H   -0.000320   0.000000   0.000000   0.265574   0.305893  -0.017441
    18  H   -0.000320   0.000000   0.000000   0.265574  -0.017441   0.305894
 Mulliken atomic charges:
              1
     1  F   -0.361903
     2  C    0.383748
     3  C   -0.203815
     4  C   -0.315124
     5  C    1.211732
     6  F   -0.386701
     7  F   -0.374848
     8  F   -0.374858
     9  C    0.169662
    10  N   -0.779979
    11  C    0.187325
    12  S   -0.253289
    13  H    0.360812
    14  H    0.282786
    15  H    0.438434
    16  O   -0.875984
    17  H    0.446001
    18  H    0.446000
 Sum of Mulliken atomic charges =   0.00000
 Mulliken charges with hydrogens summed into heavy atoms:
              1
     1  F   -0.361903
     2  C    0.383748
     3  C    0.156997
     4  C   -0.315124
     5  C    1.211732
     6  F   -0.386701
     7  F   -0.374848
     8  F   -0.374858
     9  C    0.452448
    10  N   -0.341544
    11  C    0.187325
    12  S   -0.253289
    16  O    0.016017
 Sum of Mulliken charges with hydrogens summed into heavy atoms =   0.00000
 Electronic spatial extent (au):  <R**2>=           3343.5190
 Charge=              0.0000 electrons
 Dipole moment (field-independent basis, Debye):
    X=              5.0334    Y=              0.1366    Z=             -0.0004  Tot=              5.0353
 Quadrupole moment (field-independent basis, Debye-Ang):
   XX=           -104.3960   YY=            -52.1174   ZZ=            -79.4771
   XY=             10.3563   XZ=             -0.0001   YZ=              0.0002
 Traceless Quadrupole moment (field-independent basis, Debye-Ang):
   XX=            -25.7325   YY=             26.5461   ZZ=             -0.8136
   XY=             10.3563   XZ=             -0.0001   YZ=              0.0002
 Octapole moment (field-independent basis, Debye-Ang**2):
  XXX=             83.3563  YYY=             31.6969  ZZZ=             -0.0009  XYY=             64.0406
  XXY=             -3.3342  XXZ=             -0.0013  XZZ=             11.3529  YZZ=            -10.8898
  YYZ=             -0.0004  XYZ=             -0.0001
 Hexadecapole moment (field-independent basis, Debye-Ang**3):
 XXXX=          -2793.5070 YYYY=           -445.4948 ZZZZ=           -143.8767 XXXY=           -132.9234
 XXXZ=              0.0064 YYYX=            156.4557 YYYZ=             -0.0080 ZZZX=              0.0012
 ZZZY=             -0.0058 XXYY=           -536.3562 XXZZ=           -455.2731 YYZZ=           -171.8203
 XXYZ=             -0.0014 YYXZ=              0.0083 ZZXY=            -38.3870
 N-N= 9.221025469265D+02 E-N=-4.583170857698D+03  KE= 1.152554690325D+03
 1\1\GINC-B1\FOpt\RHF\6-31G(d)\C6H5F4N1O1S1\ANA\24-Sep-2021\1\\#HF/6-31
 G* Opt=Z-matrix NoSymm\\water interaction with atom H13\\0,1\F,-1,-1.9
 693,2.05368,0.00007\C,-1,-1.22225,0.94423,0.00003\C,-1,0.14003,1.0574,
 -0.00002\C,-1,0.92795,-0.12364,-0.00008\C,-1,2.41466,-0.01865,-0.00001
 \F,-1,3.00708,-1.23461,-0.00056\F,-1,2.85829,0.65448,-1.08602\F,-1,2.8
 5827,0.6535,1.08665\C,-1,0.30654,-1.34149,-0.00009\N,-1,-1.05417,-1.38
 997,-0.00006\C,-1,-1.9305,-0.3121,0.\S,-1,-3.57098,-0.50661,0.00003\H,
 -1,0.59686,2.0431,-0.00002\H,-1,0.83176,-2.28899,-0.00015\H,-1,-1.5214
 8,-2.29639,-0.00009\X,13,RDUM,3,ADUM,2,DOH,0\X,16,RDUM,13,ADUM,3,DD1,0
 \O,13,RX,16,ADUM,17,DD2,0\H,18,ROH,13,AHOA,16,DH1,0\H,18,ROH,13,AHOA,1
 6,DH2,0\\RX=2.22006542\RDUM=1.\ROH=0.9572\ADUM=90.\AHOA=127.74\DOH=180
 .\DD1=0.\DD2=180.\DH1=90.\DH2=-90.\\Version=EM64L-G09RevA.01\HF=-1154.
 6789417\RMSD=6.935e-09\RMSF=2.882e-03\Dipole=1.9802985,0.0537458,-0.00
 0167\Quadrupole=-19.1314819,19.7363705,-0.6048887,7.6996711,-0.0000702
 ,0.0001369\PG=C01 [X(C6H5F4N1O1S1)]\\@


 ON INDUCTION, OR "WHY DO YOU BELIEVE THE SUN WILL RISE TOMORROW?":

 ... THE FARMER WHO HAS FED THE CHICKEN EVERY DAY THROUGHOUT ITS
 LIFE AT LAST WRINGS ITS NECK INSTEAD, SHOWING THAT MORE REFINED VIEWS
 AS TO THE UNIFORMITY OF NATURE WOULD HAVE BEEN USEFUL TO THE CHICKEN.

                               -- BERTRAND RUSSELL
 Job cpu time:  0 days  0 hours  3 minutes  8.5 seconds.
 File lengths (MBytes):  RWF=     26 Int=      0 D2E=      0 Chk=      3 Scr=      1
 Normal termination of Gaussian 09 at Fri Sep 24 08:27:07 2021.
