 Entering Gaussian System, Link 0=g16
 Initial command:
 /home/alexey/programs//g16/l1.exe "/home/alexey/tmp/Gau-1165821.inp" -scrdir="/home/alexey/tmp/"
 Entering Link 1 = /home/alexey/programs//g16/l1.exe PID=   1165823.
  
 Copyright (c) 1988-2021, Gaussian, Inc.  All Rights Reserved.
  
 This is part of the Gaussian(R) 16 program.  It is based on
 the Gaussian(R) 09 system (copyright 2009, Gaussian, Inc.),
 the Gaussian(R) 03 system (copyright 2003, Gaussian, Inc.),
 the Gaussian(R) 98 system (copyright 1998, Gaussian, Inc.),
 the Gaussian(R) 94 system (copyright 1995, Gaussian, Inc.),
 the Gaussian 92(TM) system (copyright 1992, Gaussian, Inc.),
 the Gaussian 90(TM) system (copyright 1990, Gaussian, Inc.),
 the Gaussian 88(TM) system (copyright 1988, Gaussian, Inc.),
 the Gaussian 86(TM) system (copyright 1986, Carnegie Mellon
 University), and the Gaussian 82(TM) system (copyright 1983,
 Carnegie Mellon University). Gaussian is a federally registered
 trademark of Gaussian, Inc.
  
 This software contains proprietary and confidential information,
 including trade secrets, belonging to Gaussian, Inc.
  
 This software is provided under written license and may be
 used, copied, transmitted, or stored only in accord with that
 written license.
  
 The following legend is applicable only to US Government
 contracts under FAR:
  
                    RESTRICTED RIGHTS LEGEND
  
 Use, reproduction and disclosure by the US Government is
 subject to restrictions as set forth in subparagraphs (a)
 and (c) of the Commercial Computer Software - Restricted
 Rights clause in FAR 52.227-19.
  
 Gaussian, Inc.
 340 Quinnipiac St., Bldg. 40, Wallingford CT 06492
  
  
 ---------------------------------------------------------------
 Warning -- This program may not be used in any manner that
 competes with the business of Gaussian, Inc. or will provide
 assistance to any competitor of Gaussian, Inc.  The licensee
 of this program is prohibited from giving any competitor of
 Gaussian, Inc. access to this program.  By using this program,
 the user acknowledges that Gaussian, Inc. is engaged in the
 business of creating and licensing software in the field of
 computational chemistry and represents and warrants to the
 licensee that it is not a competitor of Gaussian, Inc. and that
 it will not use this program in any manner prohibited above.
 ---------------------------------------------------------------
  

 Cite this work as:
 Gaussian 16, Revision C.02,
 M. J. Frisch, G. W. Trucks, H. B. Schlegel, G. E. Scuseria, 
 M. A. Robb, J. R. Cheeseman, G. Scalmani, V. Barone, 
 G. A. Petersson, H. Nakatsuji, X. Li, M. Caricato, A. V. Marenich, 
 J. Bloino, B. G. Janesko, R. Gomperts, B. Mennucci, H. P. Hratchian, 
 J. V. Ortiz, A. F. Izmaylov, J. L. Sonnenberg, D. Williams-Young, 
 F. Ding, F. Lipparini, F. Egidi, J. Goings, B. Peng, A. Petrone, 
 T. Henderson, D. Ranasinghe, V. G. Zakrzewski, J. Gao, N. Rega, 
 G. Zheng, W. Liang, M. Hada, M. Ehara, K. Toyota, R. Fukuda, 
 J. Hasegawa, M. Ishida, T. Nakajima, Y. Honda, O. Kitao, H. Nakai, 
 T. Vreven, K. Throssell, J. A. Montgomery, Jr., J. E. Peralta, 
 F. Ogliaro, M. J. Bearpark, J. J. Heyd, E. N. Brothers, K. N. Kudin, 
 V. N. Staroverov, T. A. Keith, R. Kobayashi, J. Normand, 
 K. Raghavachari, A. P. Rendell, J. C. Burant, S. S. Iyengar, 
 J. Tomasi, M. Cossi, J. M. Millam, M. Klene, C. Adamo, R. Cammi, 
 J. W. Ochterski, R. L. Martin, K. Morokuma, O. Farkas, 
 J. B. Foresman, and D. J. Fox, Gaussian, Inc., Wallingford CT, 2019.
 
 ******************************************
 Gaussian 16:  ES64L-G16RevC.02  7-Dec-2021
                30-Jun-2023 
 ******************************************
 %mem=8GB
 %NPROCS=4
 Will use up to    4 processors via shared memory.
 %NoSave
 ---------------------------------------------------------
 #MP2/6-31G* SCF=Tight Opt=(ModRedun, MaxCycle=20 ) NoSymm
 ---------------------------------------------------------
 1/6=20,18=120,19=15,38=1/1,3;
 2/9=110,12=2,15=1,17=6,18=5,40=1/2;
 3/5=1,6=6,7=1,11=9,25=1,30=1,71=1/1,2,3;
 4//1;
 5/5=2,32=2,38=5/2;
 8/6=4,10=2/1;
 9/15=2,16=-3/6;
 10/5=1,31=1/2;
 6/7=2,8=2,9=2,10=2/1;
 7/12=2,30=1/1,2,3,16;
 1/6=20,18=20,19=15/3(2);
 2/9=110,15=1/2;
 99//99;
 2/9=110,15=1/2;
 3/5=1,6=6,7=1,11=9,25=1,30=1,71=1/1,2,3;
 4/5=5,16=3,69=1/1;
 5/5=2,32=2,38=5/2;
 8/6=4,10=2/1;
 9/15=2,16=-3/6;
 10/5=1,31=1/2;
 7/12=2,30=1/1,2,3,16;
 1/6=20,18=20,19=15/3(-8);
 2/9=110,15=1/2;
 6/7=2,8=2,9=2,10=2/1;
 99/9=10/99;
 --------
 MolName:
 --------
 Symbolic Z-matrix:
 Charge =  0 Multiplicity = 1
 8                    0    -4.03784   0.67113   0.01584 
 7                    0    -3.25742  -0.28103  -0.0179 
 8                    0    -3.61579  -1.45746  -0.01847 
 6                    0    -1.75713   0.00254  -0.05304 
 6                    0    -1.37017   1.33605   0.12282 
 7                    0    -0.08234   1.79995   0.19838 
 6                    0     1.19585   1.02794   0.26324 
 1                    0     1.85344   1.60264   0.96608 
 6                    0     1.97287   0.93555  -1.07372 
 6                    0     3.382     0.37132  -0.80998 
 6                    0     3.31195  -0.97366  -0.0696 
 6                    0     2.45164  -0.8698    1.20826 
 6                    0     1.01805  -0.36181   0.89281 
 1                    0     0.46043  -0.29721   1.85654 
 7                    0     0.36939  -1.32966   0.00505 
 6                    0    -0.86895  -1.15848  -0.32368 
 1                    0    -2.15861   2.09482   0.25881 
 1                    0     0.15223   2.7586   -0.07037 
 1                    0     1.42959   0.28063  -1.78772 
 1                    0     2.06439   1.94232  -1.53384 
 1                    0     3.92571   0.2438   -1.77158 
 1                    0     3.95383   1.09423  -0.18622 
 1                    0     2.87042  -1.73828  -0.74796 
 1                    0     4.33717  -1.31338   0.19446 
 1                    0     2.38778  -1.87076   1.6886 
 1                    0     2.93965  -0.17957   1.92794 
 1                    0    -1.36711  -1.96943  -0.87674 
 
 The following ModRedundant input section has been read:
 D       1       2       4      16 F                                           
 D       7      13      15      16 F                                           
 D       7       9      10      11 F                                           
 D       9      10      11      12 F                                           
 D       6       7      13      15 F                                           
 

 GradGradGradGradGradGradGradGradGradGradGradGradGradGradGradGradGradGrad
 Berny optimization.
 Initialization pass.
                           ----------------------------
                           !    Initial Parameters    !
                           ! (Angstroms and Degrees)  !
 --------------------------                            --------------------------
 ! Name  Definition              Value          Derivative Info.                !
 --------------------------------------------------------------------------------
 ! R1    R(1,2)                  1.2316         estimate D2E/DX2                !
 ! R2    R(2,3)                  1.2298         estimate D2E/DX2                !
 ! R3    R(2,4)                  1.5273         estimate D2E/DX2                !
 ! R4    R(4,5)                  1.3996         estimate D2E/DX2                !
 ! R5    R(4,16)                 1.4866         estimate D2E/DX2                !
 ! R6    R(5,6)                  1.3709         estimate D2E/DX2                !
 ! R7    R(5,17)                 1.1027         estimate D2E/DX2                !
 ! R8    R(6,7)                  1.4946         estimate D2E/DX2                !
 ! R9    R(6,18)                 1.0229         estimate D2E/DX2                !
 ! R10   R(7,8)                  1.121          estimate D2E/DX2                !
 ! R11   R(7,9)                  1.5491         estimate D2E/DX2                !
 ! R12   R(7,13)                 1.536          estimate D2E/DX2                !
 ! R13   R(9,10)                 1.5406         estimate D2E/DX2                !
 ! R14   R(9,19)                 1.1108         estimate D2E/DX2                !
 ! R15   R(9,20)                 1.1107         estimate D2E/DX2                !
 ! R16   R(10,11)                1.5369         estimate D2E/DX2                !
 ! R17   R(10,21)                1.112          estimate D2E/DX2                !
 ! R18   R(10,22)                1.113          estimate D2E/DX2                !
 ! R19   R(11,12)                1.544          estimate D2E/DX2                !
 ! R20   R(11,23)                1.1134         estimate D2E/DX2                !
 ! R21   R(11,24)                1.1119         estimate D2E/DX2                !
 ! R22   R(12,13)                1.5533         estimate D2E/DX2                !
 ! R23   R(12,25)                1.1121         estimate D2E/DX2                !
 ! R24   R(12,26)                1.1102         estimate D2E/DX2                !
 ! R25   R(13,14)                1.1153         estimate D2E/DX2                !
 ! R26   R(13,15)                1.4648         estimate D2E/DX2                !
 ! R27   R(15,16)                1.2926         estimate D2E/DX2                !
 ! R28   R(16,27)                1.1008         estimate D2E/DX2                !
 ! A1    A(1,2,3)              123.7054         estimate D2E/DX2                !
 ! A2    A(1,2,4)              118.657          estimate D2E/DX2                !
 ! A3    A(3,2,4)              117.6366         estimate D2E/DX2                !
 ! A4    A(2,4,5)              116.4622         estimate D2E/DX2                !
 ! A5    A(2,4,16)             116.4923         estimate D2E/DX2                !
 ! A6    A(5,4,16)             126.9977         estimate D2E/DX2                !
 ! A7    A(4,5,6)              126.0896         estimate D2E/DX2                !
 ! A8    A(4,5,17)             118.2573         estimate D2E/DX2                !
 ! A9    A(6,5,17)             115.5975         estimate D2E/DX2                !
 ! A10   A(5,6,7)              129.1207         estimate D2E/DX2                !
 ! A11   A(5,6,18)             121.204          estimate D2E/DX2                !
 ! A12   A(7,6,18)             107.4201         estimate D2E/DX2                !
 ! A13   A(6,7,8)              105.311          estimate D2E/DX2                !
 ! A14   A(6,7,9)              114.98           estimate D2E/DX2                !
 ! A15   A(6,7,13)             112.7136         estimate D2E/DX2                !
 ! A16   A(8,7,9)              106.1076         estimate D2E/DX2                !
 ! A17   A(8,7,13)             105.948          estimate D2E/DX2                !
 ! A18   A(9,7,13)             110.9674         estimate D2E/DX2                !
 ! A19   A(7,9,10)             109.4432         estimate D2E/DX2                !
 ! A20   A(7,9,19)             110.1569         estimate D2E/DX2                !
 ! A21   A(7,9,20)             110.1693         estimate D2E/DX2                !
 ! A22   A(10,9,19)            109.9653         estimate D2E/DX2                !
 ! A23   A(10,9,20)            109.1179         estimate D2E/DX2                !
 ! A24   A(19,9,20)            107.9655         estimate D2E/DX2                !
 ! A25   A(9,10,11)            111.1788         estimate D2E/DX2                !
 ! A26   A(9,10,21)            109.9483         estimate D2E/DX2                !
 ! A27   A(9,10,22)            109.1474         estimate D2E/DX2                !
 ! A28   A(11,10,21)           109.7861         estimate D2E/DX2                !
 ! A29   A(11,10,22)           108.7754         estimate D2E/DX2                !
 ! A30   A(21,10,22)           107.9338         estimate D2E/DX2                !
 ! A31   A(10,11,12)           111.4222         estimate D2E/DX2                !
 ! A32   A(10,11,23)           108.9984         estimate D2E/DX2                !
 ! A33   A(10,11,24)           109.8631         estimate D2E/DX2                !
 ! A34   A(12,11,23)           109.2369         estimate D2E/DX2                !
 ! A35   A(12,11,24)           109.7418         estimate D2E/DX2                !
 ! A36   A(23,11,24)           107.4887         estimate D2E/DX2                !
 ! A37   A(11,12,13)           111.6035         estimate D2E/DX2                !
 ! A38   A(11,12,25)           109.2041         estimate D2E/DX2                !
 ! A39   A(11,12,26)           109.4759         estimate D2E/DX2                !
 ! A40   A(13,12,25)           109.2129         estimate D2E/DX2                !
 ! A41   A(13,12,26)           109.5129         estimate D2E/DX2                !
 ! A42   A(25,12,26)           107.7488         estimate D2E/DX2                !
 ! A43   A(7,13,12)            105.8012         estimate D2E/DX2                !
 ! A44   A(7,13,14)            111.0779         estimate D2E/DX2                !
 ! A45   A(7,13,15)            113.6202         estimate D2E/DX2                !
 ! A46   A(12,13,14)           107.7521         estimate D2E/DX2                !
 ! A47   A(12,13,15)           108.403          estimate D2E/DX2                !
 ! A48   A(14,13,15)           109.9115         estimate D2E/DX2                !
 ! A49   A(13,15,16)           119.3978         estimate D2E/DX2                !
 ! A50   A(4,16,15)            129.0121         estimate D2E/DX2                !
 ! A51   A(4,16,27)            113.3561         estimate D2E/DX2                !
 ! A52   A(15,16,27)           117.6306         estimate D2E/DX2                !
 ! D1    D(1,2,4,5)              7.6653         estimate D2E/DX2                !
 ! D2    D(1,2,4,16)          -169.9996         Frozen                          !
 ! D3    D(3,2,4,5)           -171.9865         estimate D2E/DX2                !
 ! D4    D(3,2,4,16)            10.3486         estimate D2E/DX2                !
 ! D5    D(2,4,5,6)            176.2475         estimate D2E/DX2                !
 ! D6    D(2,4,5,17)            -0.9135         estimate D2E/DX2                !
 ! D7    D(16,4,5,6)            -6.3693         estimate D2E/DX2                !
 ! D8    D(16,4,5,17)          176.4697         estimate D2E/DX2                !
 ! D9    D(2,4,16,15)         -154.9202         estimate D2E/DX2                !
 ! D10   D(2,4,16,27)           24.6735         estimate D2E/DX2                !
 ! D11   D(5,4,16,15)           27.6973         estimate D2E/DX2                !
 ! D12   D(5,4,16,27)         -152.7089         estimate D2E/DX2                !
 ! D13   D(4,5,6,7)             -7.2692         estimate D2E/DX2                !
 ! D14   D(4,5,6,18)           153.4253         estimate D2E/DX2                !
 ! D15   D(17,5,6,7)           169.958          estimate D2E/DX2                !
 ! D16   D(17,5,6,18)          -29.3475         estimate D2E/DX2                !
 ! D17   D(5,6,7,8)           -142.3515         estimate D2E/DX2                !
 ! D18   D(5,6,7,9)            101.2325         estimate D2E/DX2                !
 ! D19   D(5,6,7,13)           -27.3006         estimate D2E/DX2                !
 ! D20   D(18,6,7,8)            54.8881         estimate D2E/DX2                !
 ! D21   D(18,6,7,9)           -61.5278         estimate D2E/DX2                !
 ! D22   D(18,6,7,13)          169.9391         estimate D2E/DX2                !
 ! D23   D(6,7,9,10)           168.7031         estimate D2E/DX2                !
 ! D24   D(6,7,9,19)           -70.2791         estimate D2E/DX2                !
 ! D25   D(6,7,9,20)            48.7246         estimate D2E/DX2                !
 ! D26   D(8,7,9,10)            52.7428         estimate D2E/DX2                !
 ! D27   D(8,7,9,19)           173.7606         estimate D2E/DX2                !
 ! D28   D(8,7,9,20)           -67.2357         estimate D2E/DX2                !
 ! D29   D(13,7,9,10)          -61.8985         estimate D2E/DX2                !
 ! D30   D(13,7,9,19)           59.1193         estimate D2E/DX2                !
 ! D31   D(13,7,9,20)          178.1231         estimate D2E/DX2                !
 ! D32   D(6,7,13,12)         -166.1711         estimate D2E/DX2                !
 ! D33   D(6,7,13,14)          -49.5129         estimate D2E/DX2                !
 ! D34   D(6,7,13,15)           75.0223         Frozen                          !
 ! D35   D(8,7,13,12)          -51.5048         estimate D2E/DX2                !
 ! D36   D(8,7,13,14)           65.1534         estimate D2E/DX2                !
 ! D37   D(8,7,13,15)         -170.3114         estimate D2E/DX2                !
 ! D38   D(9,7,13,12)           63.2362         estimate D2E/DX2                !
 ! D39   D(9,7,13,14)          179.8945         estimate D2E/DX2                !
 ! D40   D(9,7,13,15)          -55.5704         estimate D2E/DX2                !
 ! D41   D(7,9,10,11)           54.8123         Frozen                          !
 ! D42   D(7,9,10,21)          176.6036         estimate D2E/DX2                !
 ! D43   D(7,9,10,22)          -65.1819         estimate D2E/DX2                !
 ! D44   D(19,9,10,11)         -66.3216         estimate D2E/DX2                !
 ! D45   D(19,9,10,21)          55.4696         estimate D2E/DX2                !
 ! D46   D(19,9,10,22)         173.6842         estimate D2E/DX2                !
 ! D47   D(20,9,10,11)         175.433          estimate D2E/DX2                !
 ! D48   D(20,9,10,21)         -62.7757         estimate D2E/DX2                !
 ! D49   D(20,9,10,22)          55.4388         estimate D2E/DX2                !
 ! D50   D(9,10,11,12)         -52.8221         Frozen                          !
 ! D51   D(9,10,11,23)          67.8016         estimate D2E/DX2                !
 ! D52   D(9,10,11,24)        -174.6616         estimate D2E/DX2                !
 ! D53   D(21,10,11,12)       -174.7078         estimate D2E/DX2                !
 ! D54   D(21,10,11,23)        -54.0841         estimate D2E/DX2                !
 ! D55   D(21,10,11,24)         63.4527         estimate D2E/DX2                !
 ! D56   D(22,10,11,12)         67.3925         estimate D2E/DX2                !
 ! D57   D(22,10,11,23)       -171.9838         estimate D2E/DX2                !
 ! D58   D(22,10,11,24)        -54.447          estimate D2E/DX2                !
 ! D59   D(10,11,12,13)         56.6009         estimate D2E/DX2                !
 ! D60   D(10,11,12,25)        177.4469         estimate D2E/DX2                !
 ! D61   D(10,11,12,26)        -64.8053         estimate D2E/DX2                !
 ! D62   D(23,11,12,13)        -63.8828         estimate D2E/DX2                !
 ! D63   D(23,11,12,25)         56.9632         estimate D2E/DX2                !
 ! D64   D(23,11,12,26)        174.711          estimate D2E/DX2                !
 ! D65   D(24,11,12,13)        178.5107         estimate D2E/DX2                !
 ! D66   D(24,11,12,25)        -60.6433         estimate D2E/DX2                !
 ! D67   D(24,11,12,26)         57.1045         estimate D2E/DX2                !
 ! D68   D(11,12,13,7)         -60.3095         estimate D2E/DX2                !
 ! D69   D(11,12,13,14)       -179.194          estimate D2E/DX2                !
 ! D70   D(11,12,13,15)         61.8993         estimate D2E/DX2                !
 ! D71   D(25,12,13,7)         178.8496         estimate D2E/DX2                !
 ! D72   D(25,12,13,14)         59.9652         estimate D2E/DX2                !
 ! D73   D(25,12,13,15)        -58.9416         estimate D2E/DX2                !
 ! D74   D(26,12,13,7)          61.0753         estimate D2E/DX2                !
 ! D75   D(26,12,13,14)        -57.8092         estimate D2E/DX2                !
 ! D76   D(26,12,13,15)       -176.7159         estimate D2E/DX2                !
 ! D77   D(7,13,15,16)         -67.1605         Frozen                          !
 ! D78   D(12,13,15,16)        175.5352         estimate D2E/DX2                !
 ! D79   D(14,13,15,16)         58.0008         estimate D2E/DX2                !
 ! D80   D(13,15,16,4)           7.7457         estimate D2E/DX2                !
 ! D81   D(13,15,16,27)       -171.8333         estimate D2E/DX2                !
 --------------------------------------------------------------------------------
 Trust Radius=3.00D-01 FncErr=1.00D-07 GrdErr=1.00D-07 EigMax=2.50D+02 EigMin=1.00D-04
 Number of steps in this run=     20 maximum allowed number of steps=    162.
 GradGradGradGradGradGradGradGradGradGradGradGradGradGradGradGradGradGrad

                          Input orientation:                          
 ---------------------------------------------------------------------
 Center     Atomic      Atomic             Coordinates (Angstroms)
 Number     Number       Type             X           Y           Z
 ---------------------------------------------------------------------
      1          8           0       -4.037840    0.671130    0.015840
      2          7           0       -3.257420   -0.281030   -0.017900
      3          8           0       -3.615790   -1.457460   -0.018470
      4          6           0       -1.757130    0.002540   -0.053040
      5          6           0       -1.370170    1.336050    0.122820
      6          7           0       -0.082340    1.799950    0.198380
      7          6           0        1.195850    1.027940    0.263240
      8          1           0        1.853440    1.602640    0.966080
      9          6           0        1.972870    0.935550   -1.073720
     10          6           0        3.382000    0.371320   -0.809980
     11          6           0        3.311950   -0.973660   -0.069600
     12          6           0        2.451640   -0.869800    1.208260
     13          6           0        1.018050   -0.361810    0.892810
     14          1           0        0.460430   -0.297210    1.856540
     15          7           0        0.369390   -1.329660    0.005050
     16          6           0       -0.868950   -1.158480   -0.323680
     17          1           0       -2.158610    2.094820    0.258810
     18          1           0        0.152230    2.758600   -0.070370
     19          1           0        1.429590    0.280630   -1.787720
     20          1           0        2.064390    1.942320   -1.533840
     21          1           0        3.925710    0.243800   -1.771580
     22          1           0        3.953830    1.094230   -0.186220
     23          1           0        2.870420   -1.738280   -0.747960
     24          1           0        4.337170   -1.313380    0.194460
     25          1           0        2.387780   -1.870760    1.688600
     26          1           0        2.939650   -0.179570    1.927940
     27          1           0       -1.367110   -1.969430   -0.876740
 ---------------------------------------------------------------------
                    Distance matrix (angstroms):
                    1          2          3          4          5
     1  O    0.000000
     2  N    1.231585   0.000000
     3  O    2.170299   1.229804   0.000000
     4  C    2.377687   1.527258   2.363771   0.000000
     5  C    2.751368   2.489269   3.586986   1.399612   0.000000
     6  N    4.117467   3.802419   4.810719   2.469578   1.370919
     7  C    5.251669   4.650167   5.422956   3.141905   2.588264
     8  H    6.039689   5.535099   6.343976   4.078620   3.342726
     9  C    6.114384   5.472728   6.170346   3.978089   3.573237
    10  C    7.471673   6.718247   7.275987   5.207650   4.938010
    11  C    7.532068   6.605985   6.944801   5.162249   5.224369
    12  C    6.775668   5.868857   6.218032   4.479464   4.544248
    13  C    5.234316   4.372135   4.848026   2.954489   3.029721
    14  H    4.955834   4.163676   4.634373   2.941754   3.004067
    15  N    4.840140   3.775434   3.987298   2.510024   3.185271
    16  C    3.674862   2.562852   2.779869   1.486633   2.583266
    17  H    2.370112   2.632226   3.849539   2.153154   1.102662
    18  H    4.682056   4.568131   5.654718   3.352883   2.092528
    19  H    5.770451   5.041407   5.622016   3.638905   3.550032
    20  H    6.422978   5.963474   6.791119   4.534262   3.861125
    21  H    8.172858   7.412705   7.927288   5.941907   5.729582
    22  H    8.005413   7.343146   7.989894   5.815891   5.338442
    23  H    7.356134   6.340898   6.533141   4.992753   5.309648
    24  H    8.608773   7.667375   7.957114   6.239663   6.292721
    25  H    7.109706   6.108000   6.255218   4.870610   5.182421
    26  H    7.284585   6.496173   6.956674   5.100705   4.912241
    27  H    3.860318   2.676111   2.460752   2.172386   3.453307
                    6          7          8          9         10
     6  N    0.000000
     7  C    1.494649   0.000000
     8  H    2.091779   1.121021   0.000000
     9  C    2.566966   1.549115   2.149432   0.000000
    10  C    3.880648   2.522341   2.647080   1.540637   0.000000
    11  C    4.391575   2.931734   3.136432   2.538991   1.536893
    12  C    3.816867   2.464039   2.555280   2.948888   2.545435
    13  C    2.523152   1.536026   2.135956   2.542059   3.004203
    14  H    2.728035   2.198970   2.518497   3.520454   4.011587
    15  N    3.167948   2.511568   3.424086   2.977595   3.554353
    16  C    3.105416   3.064034   4.086401   3.608803   4.543936
    17  H    2.097975   3.520036   4.103537   4.493180   5.900095
    18  H    1.022868   2.048322   2.303169   2.764951   4.083815
    19  H    2.922133   2.195346   3.083954   1.110797   2.185430
    20  H    2.762120   2.195438   2.531696   1.110708   2.174422
    21  H    4.729356   3.493924   3.692632   2.186118   1.112006
    22  H    4.115413   2.795150   2.449064   2.176474   1.112953
    23  H    4.704617   3.388021   3.890235   2.839205   2.171629
    24  H    5.406007   3.918469   3.907363   3.500840   2.181619
    25  H    4.668657   3.443081   3.587766   3.959538   3.501185
    26  H    4.005284   2.696321   2.298108   3.344865   2.827607
    27  H    4.124893   4.105185   5.150496   4.430934   5.295056
                   11         12         13         14         15
    11  C    0.000000
    12  C    1.543971   0.000000
    13  C    2.561751   1.553301   0.000000
    14  H    3.506960   2.170955   1.115298   0.000000
    15  N    2.964957   2.448459   1.464791   2.121852   0.000000
    16  C    4.192689   3.668309   2.382289   2.694883   1.292614
    17  H    6.280959   5.562808   4.065483   3.890234   4.264064
    18  H    4.890153   4.481904   3.378508   3.625734   4.094718
    19  H    2.840503   3.368081   2.786994   3.814944   2.632695
    20  H    3.493329   3.946783   3.506062   4.368393   3.993377
    21  H    2.180744   3.506057   3.990016   5.046198   4.275465
    22  H    2.168359   2.838761   3.450096   4.279348   4.331286
    23  H    1.113447   2.180924   2.831620   3.829903   2.643699
    24  H    1.111851   2.186270   3.522745   4.338689   3.972332
    25  H    2.179483   1.112082   2.187778   2.493781   2.683473
    26  H    2.181594   1.110185   2.190263   2.483036   3.409758
    27  H    4.851457   4.487679   3.377090   3.688772   2.049949
                   16         17         18         19         20
    16  C    0.000000
    17  H    3.547743   0.000000
    18  H    4.055920   2.426715   0.000000
    19  H    3.081840   4.511624   3.274336   0.000000
    20  H    4.436658   4.590270   2.542521   1.796842   0.000000
    21  H    5.201112   6.675905   4.843293   2.496444   2.531008
    22  H    5.324735   6.209763   4.151591   3.098150   2.470895
    23  H    3.807764   6.402920   5.298077   2.689440   3.848910
    24  H    5.234133   7.335879   5.845073   3.863150   4.330373
    25  H    3.893957   6.199983   5.433473   4.198977   5.002827
    26  H    4.531390   5.826757   4.516171   4.037102   4.153603
    27  H    1.100763   4.293492   5.031192   3.703267   5.244879
                   21         22         23         24         25
    21  H    0.000000
    22  H    1.799274   0.000000
    23  H    2.467808   3.084225   0.000000
    24  H    2.541539   2.467479   1.794450   0.000000
    25  H    4.336985   3.841696   2.487432   2.518581   0.000000
    26  H    3.852013   2.668483   3.097549   2.498708   1.794984
    27  H    5.806296   6.178611   4.245783   5.840949   4.548616
                   26         27
    26  H    0.000000
    27  H    5.442243   0.000000
 Symmetry turned off by external request.
 Stoichiometry    C9H13N3O2
 Framework group  C1[X(C9H13N3O2)]
 Deg. of freedom    75
 Full point group                 C1      NOp   1
 Rotational constants (GHZ):           1.6759343           0.4003061           0.3551165
 Standard basis: 6-31G(d) (6D, 7F)
   236 basis functions,   444 primitive gaussians,   236 cartesian basis functions
    52 alpha electrons       52 beta electrons
       nuclear repulsion energy       917.4769385689 Hartrees.
 NAtoms=   27 NActive=   27 NUniq=   27 SFac= 1.00D+00 NAtFMM=   60 NAOKFM=F Big=F
 Integral buffers will be    131072 words long.
 Raffenetti 1 integral format.
 Two-electron integral symmetry is turned off.
 One-electron integrals computed using PRISM.
 NBasis=   236 RedAO= T EigKep=  1.28D-03  NBF=   236
 NBsUse=   236 1.00D-06 EigRej= -1.00D+00 NBFU=   236
 ExpMin= 1.61D-01 ExpMax= 5.48D+03 ExpMxC= 8.25D+02 IAcc=3 IRadAn=         5 AccDes= 0.00D+00
 Harris functional with IExCor=  205 and IRadAn=       5 diagonalized for initial guess.
 HarFok:  IExCor=  205 AccDes= 0.00D+00 IRadAn=         5 IDoV= 1 UseB2=F ITyADJ=14
 ICtDFT=  3500011 ScaDFX=  1.000000  1.000000  1.000000  1.000000
 FoFCou: FMM=F IPFlag=           0 FMFlag=      100000 FMFlg1=           0
         NFxFlg=           0 DoJE=T BraDBF=F KetDBF=T FulRan=T
         wScrn=  0.000000 ICntrl=       500 IOpCl=  0 I1Cent=   200000004 NGrid=           0
         NMat0=    1 NMatS0=      1 NMatT0=    0 NMatD0=    1 NMtDS0=    0 NMtDT0=    0
 Symmetry not used in FoFCou.
 Keep R1 ints in memory in canonical form, NReq=397720213.
 Requested convergence on RMS density matrix=1.00D-08 within 128 cycles.
 Requested convergence on MAX density matrix=1.00D-06.
 Requested convergence on             energy=1.00D-06.
 No special actions if energy rises.
 SCF Done:  E(RHF) =  -661.280995748     A.U. after   16 cycles
            NFock= 16  Conv=0.84D-08     -V/T= 2.0037
 ExpMin= 1.61D-01 ExpMax= 5.48D+03 ExpMxC= 8.25D+02 IAcc=3 IRadAn=         5 AccDes= 0.00D+00
 HarFok:  IExCor=  205 AccDes= 0.00D+00 IRadAn=         5 IDoV=-2 UseB2=F ITyADJ=14
 ICtDFT= 12500011 ScaDFX=  1.000000  1.000000  1.000000  1.000000
 Range of M.O.s used for correlation:    15   236
 NBasis=   236 NAE=    52 NBE=    52 NFC=    14 NFV=     0
 NROrb=    222 NOA=    38 NOB=    38 NVA=   184 NVB=   184
 Fully direct method using O(ONN) memory.
 JobTyp=1 Pass  1:  I=  15 to  52 NPSUse=  4 ParTrn=T ParDer=T DoDerP=T.
 Spin components of T(2) and E(2):
     alpha-alpha T2 =       0.9196827095D-01 E2=     -0.2717574417D+00
     alpha-beta  T2 =       0.4996925609D+00 E2=     -0.1493761585D+01
     beta-beta   T2 =       0.9196827095D-01 E2=     -0.2717574417D+00
 ANorm=    0.1297547341D+01
 E2 =    -0.2037276468D+01 EUMP2 =    -0.66331827221655D+03
          IDoAtm=111111111111111111111111111
          Differentiating once with respect to electric field.
                with respect to dipole field.
          Differentiating once with respect to nuclear coordinates.
 Keep R1 ints in memory in canonical form, NReq=397723379.
          There are     1 degrees of freedom in the 1st order CPHF.  IDoFFX=0 NUNeed=     1.
 LinEq1:  Iter=  0 NonCon=     1 RMS=4.61D-03 Max=1.10D-01 NDo=     1
 AX will form     1 AO Fock derivatives at one time.
 LinEq1:  Iter=  1 NonCon=     1 RMS=1.56D-03 Max=2.95D-02 NDo=     1
 LinEq1:  Iter=  2 NonCon=     1 RMS=6.40D-04 Max=1.77D-02 NDo=     1
 LinEq1:  Iter=  3 NonCon=     1 RMS=2.94D-04 Max=9.07D-03 NDo=     1
 LinEq1:  Iter=  4 NonCon=     1 RMS=9.03D-05 Max=2.10D-03 NDo=     1
 LinEq1:  Iter=  5 NonCon=     1 RMS=3.75D-05 Max=1.88D-03 NDo=     1
 LinEq1:  Iter=  6 NonCon=     1 RMS=1.54D-05 Max=5.87D-04 NDo=     1
 LinEq1:  Iter=  7 NonCon=     1 RMS=5.92D-06 Max=1.03D-04 NDo=     1
 LinEq1:  Iter=  8 NonCon=     1 RMS=2.36D-06 Max=5.96D-05 NDo=     1
 LinEq1:  Iter=  9 NonCon=     1 RMS=8.78D-07 Max=2.50D-05 NDo=     1
 LinEq1:  Iter= 10 NonCon=     1 RMS=4.31D-07 Max=1.50D-05 NDo=     1
 LinEq1:  Iter= 11 NonCon=     1 RMS=1.53D-07 Max=5.78D-06 NDo=     1
 LinEq1:  Iter= 12 NonCon=     1 RMS=5.33D-08 Max=7.82D-07 NDo=     1
 LinEq1:  Iter= 13 NonCon=     1 RMS=1.64D-08 Max=3.02D-07 NDo=     1
 LinEq1:  Iter= 14 NonCon=     1 RMS=5.01D-09 Max=1.07D-07 NDo=     1
 LinEq1:  Iter= 15 NonCon=     1 RMS=1.81D-09 Max=4.12D-08 NDo=     1
 LinEq1:  Iter= 16 NonCon=     1 RMS=7.17D-10 Max=1.35D-08 NDo=     1
 LinEq1:  Iter= 17 NonCon=     1 RMS=2.43D-10 Max=4.26D-09 NDo=     1
 LinEq1:  Iter= 18 NonCon=     1 RMS=8.54D-11 Max=1.17D-09 NDo=     1
 LinEq1:  Iter= 19 NonCon=     0 RMS=2.85D-11 Max=4.49D-10 NDo=     1
 Linear equations converged to 1.000D-10 1.000D-09 after    19 iterations.
 End of Minotr F.D. properties file   721 does not exist.
 End of Minotr F.D. properties file   722 does not exist.
 End of Minotr F.D. properties file   788 does not exist.

 **********************************************************************

            Population analysis using the SCF Density.

 **********************************************************************

 Alpha  occ. eigenvalues --  -20.59847 -20.59404 -15.85281 -15.63330 -15.56839
 Alpha  occ. eigenvalues --  -11.35868 -11.30485 -11.30078 -11.30077 -11.27691
 Alpha  occ. eigenvalues --  -11.24627 -11.23878 -11.23399 -11.22852  -1.58495
 Alpha  occ. eigenvalues --   -1.38001  -1.28581  -1.22729  -1.13279  -1.08379
 Alpha  occ. eigenvalues --   -1.01810  -1.00671  -0.93597  -0.88963  -0.84933
 Alpha  occ. eigenvalues --   -0.81544  -0.78030  -0.76961  -0.74323  -0.71115
 Alpha  occ. eigenvalues --   -0.70361  -0.69758  -0.67393  -0.64372  -0.63263
 Alpha  occ. eigenvalues --   -0.61644  -0.60372  -0.57426  -0.56472  -0.54886
 Alpha  occ. eigenvalues --   -0.53598  -0.50721  -0.49376  -0.48502  -0.47785
 Alpha  occ. eigenvalues --   -0.47685  -0.46144  -0.45697  -0.44011  -0.42098
 Alpha  occ. eigenvalues --   -0.39959  -0.33767
 Alpha virt. eigenvalues --    0.07351   0.11797   0.18176   0.21372   0.23392
 Alpha virt. eigenvalues --    0.24245   0.26303   0.27808   0.28561   0.28872
 Alpha virt. eigenvalues --    0.29897   0.31061   0.31852   0.32277   0.33341
 Alpha virt. eigenvalues --    0.33784   0.34256   0.35478   0.37584   0.38585
 Alpha virt. eigenvalues --    0.40630   0.41727   0.44427   0.45262   0.45651
 Alpha virt. eigenvalues --    0.46091   0.49679   0.53167   0.57578   0.58949
 Alpha virt. eigenvalues --    0.63331   0.69129   0.69238   0.72208   0.74025
 Alpha virt. eigenvalues --    0.74932   0.75690   0.75856   0.77771   0.79271
 Alpha virt. eigenvalues --    0.80565   0.83618   0.85007   0.85349   0.87986
 Alpha virt. eigenvalues --    0.89081   0.90184   0.90776   0.91835   0.93904
 Alpha virt. eigenvalues --    0.95165   0.97203   0.98842   1.00384   1.01947
 Alpha virt. eigenvalues --    1.02775   1.05100   1.06463   1.07003   1.08662
 Alpha virt. eigenvalues --    1.09633   1.10469   1.11333   1.11939   1.13256
 Alpha virt. eigenvalues --    1.13824   1.14183   1.15402   1.16353   1.17266
 Alpha virt. eigenvalues --    1.17952   1.19978   1.21225   1.22322   1.22916
 Alpha virt. eigenvalues --    1.23686   1.24170   1.25601   1.27219   1.27564
 Alpha virt. eigenvalues --    1.29431   1.31198   1.33020   1.36011   1.39723
 Alpha virt. eigenvalues --    1.42780   1.46091   1.47089   1.49283   1.52686
 Alpha virt. eigenvalues --    1.54632   1.55146   1.60474   1.61791   1.65825
 Alpha virt. eigenvalues --    1.68629   1.70245   1.72804   1.73468   1.77013
 Alpha virt. eigenvalues --    1.77754   1.79814   1.84346   1.89100   1.92534
 Alpha virt. eigenvalues --    1.93563   1.96147   1.97386   1.99047   2.00733
 Alpha virt. eigenvalues --    2.02971   2.03989   2.05908   2.08883   2.12025
 Alpha virt. eigenvalues --    2.12879   2.13773   2.17739   2.18847   2.19401
 Alpha virt. eigenvalues --    2.20732   2.22043   2.24133   2.25100   2.26370
 Alpha virt. eigenvalues --    2.29203   2.32266   2.33423   2.35585   2.36025
 Alpha virt. eigenvalues --    2.38583   2.39617   2.41562   2.43218   2.46381
 Alpha virt. eigenvalues --    2.48672   2.50413   2.50770   2.56761   2.57168
 Alpha virt. eigenvalues --    2.60778   2.62894   2.65945   2.68537   2.68829
 Alpha virt. eigenvalues --    2.69704   2.70172   2.74679   2.77090   2.81016
 Alpha virt. eigenvalues --    2.84683   2.86750   2.90040   2.91380   2.95357
 Alpha virt. eigenvalues --    2.97530   2.98406   3.02155   3.03608   3.05699
 Alpha virt. eigenvalues --    3.07031   3.12734   3.19153   3.22624   3.27162
 Alpha virt. eigenvalues --    3.30655   3.33780   3.37168   3.43372   3.59852
 Alpha virt. eigenvalues --    4.09930   4.23093   4.32047   4.35854   4.43149
 Alpha virt. eigenvalues --    4.52636   4.59668   4.60154   4.70836   4.77536
 Alpha virt. eigenvalues --    4.96387   4.99237   5.02817   5.09950
          Condensed to atoms (all electrons):
               1          2          3          4          5          6
     1  O    8.330833   0.308741  -0.089421  -0.087354   0.007984   0.000463
     2  N    0.308741   5.684411   0.313142   0.264761  -0.046018   0.000861
     3  O   -0.089421   0.313142   8.299036  -0.079353   0.003468  -0.000013
     4  C   -0.087354   0.264761  -0.079353   5.244977   0.567783  -0.048108
     5  C    0.007984  -0.046018   0.003468   0.567783   4.670446   0.307550
     6  N    0.000463   0.000861  -0.000013  -0.048108   0.307550   7.189833
     7  C    0.000002  -0.000093   0.000003   0.004171  -0.029269   0.198430
     8  H   -0.000000   0.000002  -0.000000  -0.000180   0.002296  -0.049945
     9  C    0.000000  -0.000003  -0.000000   0.000472   0.001669  -0.056213
    10  C   -0.000000   0.000000  -0.000000  -0.000019  -0.000063   0.003335
    11  C   -0.000000  -0.000000  -0.000000  -0.000014   0.000015  -0.000154
    12  C   -0.000000   0.000002  -0.000000  -0.000102  -0.000129   0.003601
    13  C   -0.000002  -0.000023  -0.000020  -0.010485   0.000451  -0.044368
    14  H    0.000000  -0.000054  -0.000003   0.002942   0.004788  -0.005562
    15  N   -0.000013   0.001663   0.000163  -0.061433  -0.003699   0.001889
    16  C    0.001944  -0.026661   0.003574   0.317984  -0.041022  -0.001248
    17  H    0.011867  -0.004096   0.000121  -0.027066   0.377265  -0.033814
    18  H    0.000008  -0.000035   0.000000   0.000965  -0.024370   0.328385
    19  H    0.000000   0.000000   0.000000  -0.000772   0.000655   0.000640
    20  H    0.000000  -0.000000   0.000000  -0.000026   0.000029  -0.001702
    21  H    0.000000  -0.000000  -0.000000   0.000000   0.000001  -0.000059
    22  H   -0.000000   0.000000  -0.000000  -0.000000  -0.000002  -0.000098
    23  H    0.000000  -0.000000   0.000000   0.000025  -0.000000  -0.000024
    24  H    0.000000   0.000000   0.000000   0.000000  -0.000000   0.000004
    25  H    0.000000  -0.000000   0.000000   0.000019  -0.000001  -0.000071
    26  H    0.000000  -0.000000   0.000000   0.000006  -0.000001  -0.000067
    27  H    0.000001  -0.000148   0.005168  -0.066653   0.002138   0.000046
               7          8          9         10         11         12
     1  O    0.000002  -0.000000   0.000000  -0.000000  -0.000000  -0.000000
     2  N   -0.000093   0.000002  -0.000003   0.000000  -0.000000   0.000002
     3  O    0.000003  -0.000000  -0.000000  -0.000000  -0.000000  -0.000000
     4  C    0.004171  -0.000180   0.000472  -0.000019  -0.000014  -0.000102
     5  C   -0.029269   0.002296   0.001669  -0.000063   0.000015  -0.000129
     6  N    0.198430  -0.049945  -0.056213   0.003335  -0.000154   0.003601
     7  C    5.003730   0.416723   0.340764  -0.049331  -0.007711  -0.064135
     8  H    0.416723   0.547402  -0.060558   0.001466  -0.000329  -0.002849
     9  C    0.340764  -0.060558   5.181197   0.317935  -0.053054  -0.006209
    10  C   -0.049331   0.001466   0.317935   5.126770   0.332750  -0.060155
    11  C   -0.007711  -0.000329  -0.053054   0.332750   5.123969   0.330656
    12  C   -0.064135  -0.002849  -0.006209  -0.060155   0.330656   5.136993
    13  C    0.332161  -0.040339  -0.050447  -0.001722  -0.047903   0.368222
    14  H   -0.040270  -0.000940   0.003864  -0.000391   0.003955  -0.040729
    15  N   -0.058249   0.004045  -0.012875   0.001460  -0.007734  -0.074164
    16  C   -0.002327   0.000022  -0.000890  -0.000026   0.000003   0.002514
    17  H    0.001428  -0.000019  -0.000065   0.000001   0.000000   0.000001
    18  H   -0.028466  -0.002683   0.000846  -0.000121   0.000011  -0.000136
    19  H   -0.035004   0.004097   0.385973  -0.032576  -0.002263   0.000628
    20  H   -0.041650  -0.001851   0.397239  -0.037369   0.004139  -0.000362
    21  H    0.004043  -0.000080  -0.035835   0.400142  -0.035843   0.004211
    22  H   -0.004221   0.003510  -0.045687   0.395972  -0.045619  -0.001229
    23  H    0.000429   0.000033  -0.002003  -0.040094   0.396698  -0.036629
    24  H   -0.000141  -0.000098   0.004395  -0.038481   0.400300  -0.037869
    25  H    0.004981  -0.000005  -0.000370   0.004097  -0.033920   0.395437
    26  H   -0.004453   0.001602   0.001042  -0.002403  -0.042316   0.394679
    27  H   -0.000403   0.000009  -0.000059   0.000005   0.000005  -0.000019
              13         14         15         16         17         18
     1  O   -0.000002   0.000000  -0.000013   0.001944   0.011867   0.000008
     2  N   -0.000023  -0.000054   0.001663  -0.026661  -0.004096  -0.000035
     3  O   -0.000020  -0.000003   0.000163   0.003574   0.000121   0.000000
     4  C   -0.010485   0.002942  -0.061433   0.317984  -0.027066   0.000965
     5  C    0.000451   0.004788  -0.003699  -0.041022   0.377265  -0.024370
     6  N   -0.044368  -0.005562   0.001889  -0.001248  -0.033814   0.328385
     7  C    0.332161  -0.040270  -0.058249  -0.002327   0.001428  -0.028466
     8  H   -0.040339  -0.000940   0.004045   0.000022  -0.000019  -0.002683
     9  C   -0.050447   0.003864  -0.012875  -0.000890  -0.000065   0.000846
    10  C   -0.001722  -0.000391   0.001460  -0.000026   0.000001  -0.000121
    11  C   -0.047903   0.003955  -0.007734   0.000003   0.000000   0.000011
    12  C    0.368222  -0.040729  -0.074164   0.002514   0.000001  -0.000136
    13  C    5.024062   0.402380   0.240098  -0.069894  -0.000042   0.003682
    14  H    0.402380   0.519161  -0.035840  -0.004811   0.000063   0.000009
    15  N    0.240098  -0.035840   6.936111   0.587976  -0.000058  -0.000119
    16  C   -0.069894  -0.004811   0.587976   4.698628   0.001659  -0.000211
    17  H   -0.000042   0.000063  -0.000058   0.001659   0.386141  -0.001885
    18  H    0.003682   0.000009  -0.000119  -0.000211  -0.001885   0.324419
    19  H   -0.006268   0.000065   0.006960   0.002534   0.000011  -0.000128
    20  H    0.003864  -0.000049   0.000079  -0.000031  -0.000001   0.002864
    21  H   -0.000377   0.000009  -0.000029   0.000002  -0.000000  -0.000000
    22  H    0.000319  -0.000044   0.000003  -0.000001   0.000000   0.000002
    23  H   -0.005860   0.000008   0.006763   0.000062   0.000000   0.000000
    24  H    0.004143  -0.000058   0.000044   0.000005   0.000000  -0.000000
    25  H   -0.034466  -0.002658   0.000768  -0.000061  -0.000000   0.000002
    26  H   -0.044812  -0.000905   0.004186  -0.000055   0.000000  -0.000001
    27  H    0.004892  -0.000173  -0.039634   0.402515  -0.000059   0.000002
              19         20         21         22         23         24
     1  O    0.000000   0.000000   0.000000  -0.000000   0.000000   0.000000
     2  N    0.000000  -0.000000  -0.000000   0.000000  -0.000000   0.000000
     3  O    0.000000   0.000000  -0.000000  -0.000000   0.000000   0.000000
     4  C   -0.000772  -0.000026   0.000000  -0.000000   0.000025   0.000000
     5  C    0.000655   0.000029   0.000001  -0.000002  -0.000000  -0.000000
     6  N    0.000640  -0.001702  -0.000059  -0.000098  -0.000024   0.000004
     7  C   -0.035004  -0.041650   0.004043  -0.004221   0.000429  -0.000141
     8  H    0.004097  -0.001851  -0.000080   0.003510   0.000033  -0.000098
     9  C    0.385973   0.397239  -0.035835  -0.045687  -0.002003   0.004395
    10  C   -0.032576  -0.037369   0.400142   0.395972  -0.040094  -0.038481
    11  C   -0.002263   0.004139  -0.035843  -0.045619   0.396698   0.400300
    12  C    0.000628  -0.000362   0.004211  -0.001229  -0.036629  -0.037869
    13  C   -0.006268   0.003864  -0.000377   0.000319  -0.005860   0.004143
    14  H    0.000065  -0.000049   0.000009  -0.000044   0.000008  -0.000058
    15  N    0.006960   0.000079  -0.000029   0.000003   0.006763   0.000044
    16  C    0.002534  -0.000031   0.000002  -0.000001   0.000062   0.000005
    17  H    0.000011  -0.000001  -0.000000   0.000000   0.000000   0.000000
    18  H   -0.000128   0.002864  -0.000000   0.000002   0.000000  -0.000000
    19  H    0.506891  -0.024023  -0.002593   0.003757   0.001641  -0.000070
    20  H   -0.024023   0.550144  -0.002615  -0.002966  -0.000049  -0.000090
    21  H   -0.002593  -0.002615   0.526099  -0.024695  -0.002813  -0.002060
    22  H    0.003757  -0.002966  -0.024695   0.568842   0.004061  -0.003596
    23  H    0.001641  -0.000049  -0.002813   0.004061   0.509655  -0.024992
    24  H   -0.000070  -0.000090  -0.002060  -0.003596  -0.024992   0.541030
    25  H   -0.000027   0.000011  -0.000086  -0.000082  -0.002092  -0.002380
    26  H    0.000023  -0.000035  -0.000074   0.002464   0.003821  -0.002767
    27  H    0.000076  -0.000000  -0.000000   0.000000  -0.000022  -0.000000
              25         26         27
     1  O    0.000000   0.000000   0.000001
     2  N   -0.000000  -0.000000  -0.000148
     3  O    0.000000   0.000000   0.005168
     4  C    0.000019   0.000006  -0.066653
     5  C   -0.000001  -0.000001   0.002138
     6  N   -0.000071  -0.000067   0.000046
     7  C    0.004981  -0.004453  -0.000403
     8  H   -0.000005   0.001602   0.000009
     9  C   -0.000370   0.001042  -0.000059
    10  C    0.004097  -0.002403   0.000005
    11  C   -0.033920  -0.042316   0.000005
    12  C    0.395437   0.394679  -0.000019
    13  C   -0.034466  -0.044812   0.004892
    14  H   -0.002658  -0.000905  -0.000173
    15  N    0.000768   0.004186  -0.039634
    16  C   -0.000061  -0.000055   0.402515
    17  H   -0.000000   0.000000  -0.000059
    18  H    0.000002  -0.000001   0.000002
    19  H   -0.000027   0.000023   0.000076
    20  H    0.000011  -0.000035  -0.000000
    21  H   -0.000086  -0.000074  -0.000000
    22  H   -0.000082   0.002464   0.000000
    23  H   -0.002092   0.003821  -0.000022
    24  H   -0.002380  -0.002767  -0.000000
    25  H    0.510324  -0.023099  -0.000010
    26  H   -0.023099   0.560971   0.000001
    27  H   -0.000010   0.000001   0.453299
 Mulliken charges:
               1
     1  O   -0.485051
     2  N    0.503551
     3  O   -0.455864
     4  C   -0.022541
     5  C    0.198036
     6  N   -0.793591
     7  C    0.058856
     8  H    0.178670
     9  C   -0.311130
    10  C   -0.321182
    11  C   -0.315642
    12  C   -0.312228
    13  C   -0.027246
    14  H    0.195244
    15  N   -0.498359
    16  C    0.127815
    17  H    0.288550
    18  H    0.396959
    19  H    0.189774
    20  H    0.154452
    21  H    0.172652
    22  H    0.149309
    23  H    0.191382
    24  H    0.162680
    25  H    0.183688
    26  H    0.152192
    27  H    0.239025
 Sum of Mulliken charges =  -0.00000
 Mulliken charges with hydrogens summed into heavy atoms:
               1
     1  O   -0.485051
     2  N    0.503551
     3  O   -0.455864
     4  C   -0.022541
     5  C    0.486586
     6  N   -0.396632
     7  C    0.237526
     9  C    0.033097
    10  C    0.000779
    11  C    0.038420
    12  C    0.023651
    13  C    0.167999
    15  N   -0.498359
    16  C    0.366839
 Electronic spatial extent (au):  <R**2>=           3125.7164
 Charge=             -0.0000 electrons
 Dipole moment (field-independent basis, Debye):
    X=              5.3521    Y=              4.5277    Z=              0.0336  Tot=              7.0104
 Quadrupole moment (field-independent basis, Debye-Ang):
   XX=           -105.4325   YY=            -80.2738   ZZ=            -82.2275
   XY=             -1.7428   XZ=              1.0331   YZ=             -0.0308
 Traceless Quadrupole moment (field-independent basis, Debye-Ang):
   XX=            -16.1212   YY=              9.0375   ZZ=              7.0838
   XY=             -1.7428   XZ=              1.0331   YZ=             -0.0308
 Octapole moment (field-independent basis, Debye-Ang**2):
  XXX=            101.2340  YYY=             36.3919  ZZZ=             -5.3278  XYY=             -1.7491
  XXY=             11.6178  XXZ=             -1.3763  XZZ=             -7.9272  YZZ=             -3.0699
  YYZ=             -4.2175  XYZ=             -2.5239
 Hexadecapole moment (field-independent basis, Debye-Ang**3):
 XXXX=          -3560.3055 YYYY=           -612.1946 ZZZZ=           -306.6676 XXXY=            -37.6983
 XXXZ=             17.3207 YYYX=            -16.7937 YYYZ=             25.7313 ZZZX=             10.8005
 ZZZY=             30.4136 XXYY=           -655.2667 XXZZ=           -545.0542 YYZZ=           -164.1685
 XXYZ=             16.2620 YYXZ=              9.4813 ZZXY=              2.2877
 N-N= 9.174769385689D+02 E-N=-3.380964610291D+03  KE= 6.588559364084D+02
 Calling FoFJK, ICntrl=  10002127 FMM=F ISym2X=0 I1Cent= 0 IOpClX= 0 NMat=1 NMatS=1 NMatT=0.
 -------------------------------------------------------------------
 Center     Atomic                   Forces (Hartrees/Bohr)
 Number     Number              X              Y              Z
 -------------------------------------------------------------------
      1        8          -0.005380054    0.016084403    0.000524199
      2        7           0.039375348    0.013496690   -0.000085934
      3        8           0.002310072   -0.019546082   -0.001618816
      4        6          -0.003047949    0.009693577    0.007685486
      5        6           0.003171917   -0.017104225   -0.003574663
      6        7           0.014862455   -0.010712990   -0.005127373
      7        6          -0.004686646    0.005519914    0.002249785
      8        1          -0.010046503   -0.002533484   -0.007504971
      9        6          -0.003927199   -0.000045762   -0.002164024
     10        6           0.002831887   -0.000768659    0.001092960
     11        6          -0.001026552   -0.004839517   -0.001905238
     12        6           0.000828308   -0.009015307   -0.001911931
     13        6           0.008848704   -0.001446083    0.004914621
     14        1           0.000969801    0.003373587   -0.010277437
     15        7           0.000042915    0.001021817    0.001269163
     16        6          -0.021042001    0.007960732    0.002745040
     17        1           0.007236355   -0.006605076   -0.005593123
     18        1          -0.017655521   -0.001022605    0.006237925
     19        1           0.003051269    0.006673811    0.007044661
     20        1          -0.003278213   -0.007027450    0.003352508
     21        1          -0.004429895    0.003423301    0.009266406
     22        1          -0.003935941   -0.004748955   -0.006967400
     23        1           0.003918487    0.007090344    0.008616568
     24        1          -0.009360391    0.002380151   -0.002475765
     25        1          -0.000746531    0.010272689   -0.003540788
     26        1          -0.004751444   -0.005245294   -0.003871296
     27        1           0.005867322    0.003670472    0.001619437
 -------------------------------------------------------------------
 Cartesian Forces:  Max     0.039375348 RMS     0.008377597

 GradGradGradGradGradGradGradGradGradGradGradGradGradGradGradGradGradGrad
 Berny optimization.
 FormGI is forming the generalized inverse of G from B-inverse, IUseBI=4.
 Internal  Forces:  Max     0.037554685 RMS     0.006879441
 Search for a local minimum.
 Step number   1 out of a maximum of   20
 All quantities printed in internal units (Hartrees-Bohrs-Radians)
 Mixed Optimization -- RFO/linear search
 Second derivative matrix not updated -- first step.
 ITU=  0
     Eigenvalues ---    0.00230   0.00770   0.01044   0.01146   0.01197
     Eigenvalues ---    0.01482   0.01531   0.01602   0.01972   0.02017
     Eigenvalues ---    0.02088   0.02689   0.03663   0.04506   0.04695
     Eigenvalues ---    0.04838   0.05081   0.05138   0.05304   0.05892
     Eigenvalues ---    0.06265   0.07216   0.07700   0.07725   0.07871
     Eigenvalues ---    0.07993   0.08050   0.08056   0.10459   0.11738
     Eigenvalues ---    0.12267   0.13477   0.15247   0.15725   0.15990
     Eigenvalues ---    0.16000   0.20086   0.21955   0.23158   0.24979
     Eigenvalues ---    0.25000   0.25000   0.25370   0.26202   0.26651
     Eigenvalues ---    0.27980   0.28084   0.28472   0.29678   0.31460
     Eigenvalues ---    0.31655   0.32046   0.32238   0.32289   0.32381
     Eigenvalues ---    0.32389   0.32405   0.32516   0.32525   0.32580
     Eigenvalues ---    0.33341   0.33389   0.33598   0.35366   0.43884
     Eigenvalues ---    0.44243   0.49173   0.67012   0.90429   0.91168
     Eigenvalues --- 1000.000001000.000001000.000001000.000001000.00000
     Eigenvalues --- 1000.000001000.000001000.000001000.000001000.00000
     Eigenvalues --- 1000.000001000.000001000.000001000.000001000.00000
     Eigenvalues --- 1000.000001000.000001000.000001000.000001000.00000
     Eigenvalues --- 1000.000001000.000001000.000001000.000001000.00000
     Eigenvalues --- 1000.000001000.000001000.000001000.000001000.00000
     Eigenvalues --- 1000.000001000.000001000.000001000.000001000.00000
     Eigenvalues --- 1000.000001000.000001000.000001000.000001000.00000
     Eigenvalues --- 1000.000001000.000001000.000001000.000001000.00000
     Eigenvalues --- 1000.000001000.000001000.000001000.000001000.00000
     Eigenvalues --- 1000.000001000.000001000.000001000.000001000.00000
     Eigenvalues --- 1000.000001000.000001000.000001000.000001000.00000
     Eigenvalues --- 1000.000001000.000001000.000001000.000001000.00000
     Eigenvalues --- 1000.000001000.000001000.000001000.000001000.00000
     Eigenvalues --- 1000.000001000.000001000.000001000.000001000.00000
     Eigenvalues --- 1000.000001000.000001000.000001000.000001000.00000
     Eigenvalues --- 1000.000001000.000001000.000001000.000001000.00000
     Eigenvalues --- 1000.000001000.000001000.000001000.000001000.00000
     Eigenvalues --- 1000.00000
 RFO step:  Lambda=-2.38353970D-02 EMin= 2.30133144D-03
 Linear search not attempted -- first point.
 Iteration  1 RMS(Cart)=  0.05630732 RMS(Int)=  0.00107960
 Iteration  2 RMS(Cart)=  0.00115809 RMS(Int)=  0.00022353
 Iteration  3 RMS(Cart)=  0.00000084 RMS(Int)=  0.00022353
 Iteration  1 RMS(Cart)=  0.00002931 RMS(Int)=  0.00002227
 Iteration  2 RMS(Cart)=  0.00001395 RMS(Int)=  0.00002477
 Iteration  3 RMS(Cart)=  0.00000734 RMS(Int)=  0.00002749
 Iteration  4 RMS(Cart)=  0.00000439 RMS(Int)=  0.00002918
 Iteration  5 RMS(Cart)=  0.00000296 RMS(Int)=  0.00003020
 Iteration  6 RMS(Cart)=  0.00000220 RMS(Int)=  0.00003085
 Iteration  7 RMS(Cart)=  0.00000175 RMS(Int)=  0.00003130
 Iteration  8 RMS(Cart)=  0.00000144 RMS(Int)=  0.00003163
 Iteration  9 RMS(Cart)=  0.00000121 RMS(Int)=  0.00003189
 Iteration 10 RMS(Cart)=  0.00000103 RMS(Int)=  0.00003211
 Iteration 11 RMS(Cart)=  0.00000087 RMS(Int)=  0.00003228
 Variable       Old X    -DE/DX   Delta X   Delta X   Delta X     New X
                                 (Linear)    (Quad)   (Total)
    R1        2.32736   0.01586   0.00000   0.01709   0.01709   2.34445
    R2        2.32399   0.01803   0.00000   0.01927   0.01927   2.34326
    R3        2.88610  -0.03755   0.00000  -0.11713  -0.11713   2.76897
    R4        2.64488  -0.03472   0.00000  -0.07497  -0.07472   2.57016
    R5        2.80933  -0.02183   0.00000  -0.06253  -0.06231   2.74702
    R6        2.59066  -0.02444   0.00000  -0.04734  -0.04724   2.54342
    R7        2.08373  -0.01041   0.00000  -0.02910  -0.02910   2.05463
    R8        2.82448  -0.01942   0.00000  -0.05387  -0.05398   2.77050
    R9        1.93294  -0.00665   0.00000  -0.01436  -0.01436   1.91858
   R10        2.11842  -0.01190   0.00000  -0.03515  -0.03515   2.08327
   R11        2.92740  -0.01298   0.00000  -0.04422  -0.04425   2.88315
   R12        2.90267  -0.00442   0.00000  -0.00866  -0.00870   2.89397
   R13        2.91138  -0.00463   0.00000  -0.01433  -0.01435   2.89703
   R14        2.09910  -0.00996   0.00000  -0.02853  -0.02853   2.07058
   R15        2.09893  -0.00803   0.00000  -0.02300  -0.02300   2.07593
   R16        2.90431  -0.00183   0.00000  -0.00716  -0.00720   2.89711
   R17        2.10139  -0.01057   0.00000  -0.03040  -0.03040   2.07098
   R18        2.10318  -0.00901   0.00000  -0.02599  -0.02599   2.07719
   R19        2.91768  -0.00908   0.00000  -0.02877  -0.02874   2.88894
   R20        2.10411  -0.01167   0.00000  -0.03371  -0.03371   2.07040
   R21        2.10109  -0.00995   0.00000  -0.02859  -0.02859   2.07250
   R22        2.93531  -0.01057   0.00000  -0.03639  -0.03638   2.89894
   R23        2.10153  -0.01073   0.00000  -0.03087  -0.03087   2.07066
   R24        2.09795  -0.00786   0.00000  -0.02248  -0.02248   2.07547
   R25        2.10761  -0.00917   0.00000  -0.02664  -0.02664   2.08097
   R26        2.76805  -0.00526   0.00000  -0.01104  -0.01135   2.75670
   R27        2.44269  -0.00579   0.00000  -0.00789  -0.00793   2.43476
   R28        2.08014  -0.00617   0.00000  -0.01716  -0.01716   2.06298
    A1        2.15907   0.01084   0.00000   0.03964   0.03940   2.19847
    A2        2.07096  -0.00320   0.00000  -0.01164  -0.01188   2.05908
    A3        2.05315  -0.00763   0.00000  -0.02779  -0.02803   2.02512
    A4        2.03265  -0.00732   0.00000  -0.02439  -0.02475   2.00790
    A5        2.03317  -0.00318   0.00000  -0.00922  -0.00962   2.02356
    A6        2.21653   0.01044   0.00000   0.03229   0.03252   2.24905
    A7        2.20068   0.00614   0.00000   0.01922   0.01953   2.22021
    A8        2.06398  -0.00327   0.00000  -0.01043  -0.01066   2.05332
    A9        2.01756  -0.00283   0.00000  -0.00798  -0.00823   2.00933
   A10        2.25358  -0.00556   0.00000  -0.01920  -0.01926   2.23432
   A11        2.11541  -0.01249   0.00000  -0.07172  -0.07206   2.04335
   A12        1.87483   0.01825   0.00000   0.09819   0.09834   1.97318
   A13        1.83802  -0.00160   0.00000  -0.01779  -0.01760   1.82042
   A14        2.00678  -0.00113   0.00000  -0.01261  -0.01260   1.99417
   A15        1.96722   0.00105   0.00000   0.00191   0.00142   1.96864
   A16        1.85193   0.00269   0.00000   0.02397   0.02381   1.87573
   A17        1.84914   0.00082   0.00000   0.01805   0.01788   1.86702
   A18        1.93675  -0.00151   0.00000  -0.00932  -0.00900   1.92774
   A19        1.91014   0.00015   0.00000  -0.00469  -0.00483   1.90532
   A20        1.92260  -0.00074   0.00000  -0.01298  -0.01295   1.90966
   A21        1.92282  -0.00165   0.00000  -0.00707  -0.00706   1.91576
   A22        1.91926  -0.00040   0.00000   0.00569   0.00565   1.92490
   A23        1.90447   0.00305   0.00000   0.02442   0.02444   1.92891
   A24        1.88435  -0.00038   0.00000  -0.00496  -0.00521   1.87914
   A25        1.94044  -0.00087   0.00000   0.00560   0.00548   1.94592
   A26        1.91896  -0.00070   0.00000  -0.00683  -0.00685   1.91211
   A27        1.90498   0.00030   0.00000  -0.00295  -0.00301   1.90197
   A28        1.91613   0.00079   0.00000   0.00710   0.00714   1.92327
   A29        1.89849   0.00171   0.00000   0.01113   0.01116   1.90965
   A30        1.88380  -0.00122   0.00000  -0.01452  -0.01461   1.86920
   A31        1.94468   0.00064   0.00000   0.00504   0.00517   1.94985
   A32        1.90238   0.00062   0.00000   0.00590   0.00585   1.90823
   A33        1.91747   0.00038   0.00000   0.00527   0.00524   1.92271
   A34        1.90654  -0.00113   0.00000  -0.01411  -0.01416   1.89239
   A35        1.91536  -0.00047   0.00000   0.00014   0.00005   1.91541
   A36        1.87603  -0.00007   0.00000  -0.00261  -0.00264   1.87339
   A37        1.94785  -0.00296   0.00000  -0.01800  -0.01803   1.92982
   A38        1.90597   0.00254   0.00000   0.01688   0.01674   1.92271
   A39        1.91072   0.00139   0.00000   0.01316   0.01314   1.92385
   A40        1.90613   0.00019   0.00000  -0.00295  -0.00279   1.90334
   A41        1.91136  -0.00021   0.00000  -0.00476  -0.00471   1.90665
   A42        1.88057  -0.00087   0.00000  -0.00385  -0.00403   1.87654
   A43        1.84658   0.00455   0.00000   0.02351   0.02355   1.87012
   A44        1.93867  -0.00433   0.00000  -0.03116  -0.03156   1.90711
   A45        1.98305   0.00084   0.00000   0.01156   0.01175   1.99480
   A46        1.88063   0.00223   0.00000   0.03004   0.03033   1.91096
   A47        1.89199  -0.00389   0.00000  -0.02841  -0.02846   1.86353
   A48        1.91832   0.00081   0.00000  -0.00324  -0.00310   1.91522
   A49        2.08388  -0.00626   0.00000  -0.01466  -0.01501   2.06888
   A50        2.25169  -0.00494   0.00000  -0.02080  -0.02084   2.23085
   A51        1.97844   0.00564   0.00000   0.02771   0.02723   2.00567
   A52        2.05304  -0.00068   0.00000  -0.00663  -0.00709   2.04595
    D1        0.13379  -0.00074   0.00000  -0.03145  -0.03082   0.10297
    D2       -2.96705   0.00035   0.00000   0.00000  -0.00000  -2.96705
    D3       -3.00173  -0.00196   0.00000  -0.06980  -0.06947  -3.07120
    D4        0.18062  -0.00087   0.00000  -0.03834  -0.03866   0.14196
    D5        3.07610   0.00050   0.00000   0.01364   0.01366   3.08976
    D6       -0.01594  -0.00047   0.00000  -0.00665  -0.00670  -0.02264
    D7       -0.11117  -0.00115   0.00000  -0.02294  -0.02335  -0.13451
    D8        3.07998  -0.00212   0.00000  -0.04323  -0.04370   3.03628
    D9       -2.70387  -0.00194   0.00000  -0.04338  -0.04395  -2.74782
   D10        0.43063   0.00047   0.00000   0.00562   0.00537   0.43600
   D11        0.48341  -0.00019   0.00000  -0.00645  -0.00634   0.47707
   D12       -2.66527   0.00222   0.00000   0.04255   0.04298  -2.62229
   D13       -0.12687  -0.00007   0.00000   0.02359   0.02379  -0.10308
   D14        2.67778   0.00386   0.00000   0.07041   0.06947   2.74725
   D15        2.96633   0.00086   0.00000   0.04331   0.04362   3.00995
   D16       -0.51221   0.00479   0.00000   0.09014   0.08930  -0.42291
   D17       -2.48450  -0.00072   0.00000  -0.01819  -0.01780  -2.50231
   D18        1.76684  -0.00236   0.00000  -0.02915  -0.02883   1.73801
   D19       -0.47648  -0.00016   0.00000  -0.00621  -0.00619  -0.48268
   D20        0.95798  -0.00007   0.00000  -0.03662  -0.03710   0.92088
   D21       -1.07386  -0.00171   0.00000  -0.04759  -0.04812  -1.12198
   D22        2.96600   0.00048   0.00000  -0.02464  -0.02549   2.94051
   D23        2.94442   0.00233   0.00000   0.02521   0.02512   2.96954
   D24       -1.22660   0.00147   0.00000   0.02105   0.02097  -1.20563
   D25        0.85041  -0.00050   0.00000   0.00243   0.00243   0.85284
   D26        0.92054   0.00316   0.00000   0.03825   0.03825   0.95878
   D27        3.03269   0.00229   0.00000   0.03408   0.03410   3.06679
   D28       -1.17348   0.00033   0.00000   0.01547   0.01556  -1.15793
   D29       -1.08033   0.00144   0.00000   0.00828   0.00826  -1.07207
   D30        1.03183   0.00057   0.00000   0.00412   0.00411   1.03594
   D31        3.10883  -0.00139   0.00000  -0.01449  -0.01443   3.09441
   D32       -2.90023  -0.00103   0.00000  -0.01300  -0.01276  -2.91300
   D33       -0.86416   0.00202   0.00000   0.02024   0.02009  -0.84408
   D34        1.30939   0.00030   0.00000   0.00000  -0.00001   1.30938
   D35       -0.89893  -0.00193   0.00000  -0.02264  -0.02253  -0.92146
   D36        1.13714   0.00112   0.00000   0.01059   0.01032   1.14746
   D37       -2.97249  -0.00061   0.00000  -0.00964  -0.00977  -2.98227
   D38        1.10368   0.00095   0.00000   0.01102   0.01113   1.11481
   D39        3.13975   0.00400   0.00000   0.04425   0.04398  -3.09946
   D40       -0.96989   0.00228   0.00000   0.02402   0.02388  -0.94600
   D41        0.95666   0.00065   0.00000   0.00000   0.00001   0.95666
   D42        3.08231   0.00060   0.00000   0.00805   0.00801   3.09032
   D43       -1.13764  -0.00112   0.00000  -0.01540  -0.01537  -1.15300
   D44       -1.15753   0.00173   0.00000   0.01545   0.01552  -1.14201
   D45        0.96813   0.00167   0.00000   0.02350   0.02352   0.99165
   D46        3.03136  -0.00005   0.00000   0.00005   0.00015   3.03151
   D47        3.06188   0.00060   0.00000   0.00351   0.00348   3.06536
   D48       -1.09564   0.00054   0.00000   0.01156   0.01148  -1.08417
   D49        0.96759  -0.00118   0.00000  -0.01189  -0.01190   0.95569
   D50       -0.92192  -0.00080   0.00000   0.00000   0.00001  -0.92191
   D51        1.18336  -0.00140   0.00000  -0.01051  -0.01052   1.17284
   D52       -3.04842  -0.00089   0.00000  -0.00716  -0.00720  -3.05562
   D53       -3.04923   0.00013   0.00000   0.00007   0.00009  -3.04913
   D54       -0.94394  -0.00047   0.00000  -0.01044  -0.01043  -0.95438
   D55        1.10746   0.00003   0.00000  -0.00709  -0.00711   1.10035
   D56        1.17622   0.00015   0.00000   0.00700   0.00704   1.18326
   D57       -3.00168  -0.00045   0.00000  -0.00350  -0.00349  -3.00517
   D58       -0.95028   0.00005   0.00000  -0.00016  -0.00017  -0.95045
   D59        0.98787  -0.00083   0.00000  -0.01171  -0.01176   0.97611
   D60        3.09703  -0.00080   0.00000  -0.01566  -0.01582   3.08122
   D61       -1.13107   0.00044   0.00000  -0.00285  -0.00282  -1.13389
   D62       -1.11496  -0.00126   0.00000  -0.01296  -0.01295  -1.12792
   D63        0.99420  -0.00123   0.00000  -0.01691  -0.01701   0.97719
   D64        3.04928   0.00000   0.00000  -0.00410  -0.00402   3.04527
   D65        3.11560  -0.00024   0.00000  -0.00160  -0.00160   3.11400
   D66       -1.05843  -0.00021   0.00000  -0.00555  -0.00566  -1.06408
   D67        0.99666   0.00102   0.00000   0.00727   0.00734   1.00400
   D68       -1.05260   0.00004   0.00000  -0.00018  -0.00009  -1.05269
   D69       -3.12753   0.00158   0.00000   0.00877   0.00842  -3.11911
   D70        1.08035   0.00152   0.00000   0.01151   0.01141   1.09175
   D71        3.12151  -0.00136   0.00000  -0.00780  -0.00763   3.11388
   D72        1.04659   0.00018   0.00000   0.00116   0.00087   1.04746
   D73       -1.02872   0.00012   0.00000   0.00389   0.00386  -1.02486
   D74        1.06596  -0.00030   0.00000   0.00135   0.00155   1.06751
   D75       -1.00896   0.00124   0.00000   0.01030   0.01005  -0.99891
   D76       -3.08427   0.00118   0.00000   0.01303   0.01304  -3.07123
   D77       -1.17217   0.00377   0.00000   0.00000  -0.00001  -1.17218
   D78        3.06367   0.00019   0.00000  -0.01736  -0.01722   3.04644
   D79        1.01231  -0.00069   0.00000  -0.03515  -0.03541   0.97690
   D80        0.13519   0.00183   0.00000   0.01920   0.01892   0.15411
   D81       -2.99906  -0.00069   0.00000  -0.03169  -0.03150  -3.03055
         Item               Value     Threshold  Converged?
 Maximum Force            0.037555     0.000450     NO 
 RMS     Force            0.006956     0.000300     NO 
 Maximum Displacement     0.290012     0.001800     NO 
 RMS     Displacement     0.056549     0.001200     NO 
 Predicted change in Energy=-1.335576D-02
 GradGradGradGradGradGradGradGradGradGradGradGradGradGradGradGradGradGrad

                          Input orientation:                          
 ---------------------------------------------------------------------
 Center     Atomic      Atomic             Coordinates (Angstroms)
 Number     Number       Type             X           Y           Z
 ---------------------------------------------------------------------
      1          8           0       -3.884372    0.729894    0.003037
      2          7           0       -3.127657   -0.252785   -0.026631
      3          8           0       -3.478580   -1.440528   -0.087604
      4          6           0       -1.683006   -0.007917   -0.033679
      5          6           0       -1.318875    1.293433    0.120221
      6          7           0       -0.068477    1.784144    0.205122
      7          6           0        1.191751    1.037979    0.271959
      8          1           0        1.821280    1.627610    0.958512
      9          6           0        1.932824    0.938880   -1.057984
     10          6           0        3.331591    0.361284   -0.812930
     11          6           0        3.263912   -0.978939   -0.071605
     12          6           0        2.434042   -0.876243    1.208193
     13          6           0        1.026934   -0.350145    0.897416
     14          1           0        0.452937   -0.261367    1.832987
     15          7           0        0.394355   -1.331304    0.022648
     16          6           0       -0.843138   -1.165217   -0.295236
     17          1           0       -2.111764    2.031742    0.211705
     18          1           0        0.060998    2.762755   -0.032204
     19          1           0        1.369735    0.293674   -1.741507
     20          1           0        2.002320    1.933334   -1.519519
     21          1           0        3.850581    0.238299   -1.770301
     22          1           0        3.915346    1.078461   -0.218686
     23          1           0        2.804591   -1.730842   -0.722773
     24          1           0        4.274894   -1.329081    0.169468
     25          1           0        2.351164   -1.859551    1.684526
     26          1           0        2.922541   -0.202046    1.924481
     27          1           0       -1.324897   -1.964533   -0.861606
 ---------------------------------------------------------------------
                    Distance matrix (angstroms):
                    1          2          3          4          5
     1  O    0.000000
     2  N    1.240627   0.000000
     3  O    2.209891   1.240000   0.000000
     4  C    2.322010   1.465274   2.297688   0.000000
     5  C    2.629275   2.384124   3.490281   1.360069   0.000000
     6  N    3.964006   3.682577   4.702447   2.423884   1.345920
     7  C    5.092570   4.518021   5.299460   3.074336   2.528147
     8  H    5.854340   5.385014   6.212596   3.992419   3.267259
     9  C    5.916858   5.300210   5.990535   3.875545   3.476697
    10  C    7.271300   6.535842   7.081741   5.088194   4.833891
    11  C    7.350079   6.432844   6.758293   5.041460   5.118829
    12  C    6.629814   5.731142   6.079195   4.387063   4.469403
    13  C    5.107576   4.257226   4.739078   2.885798   2.967861
    14  H    4.810776   4.034713   4.531657   2.847970   2.913811
    15  N    4.749361   3.683776   3.876044   2.463728   3.135909
    16  C    3.595764   2.474613   2.657905   1.453662   2.538482
    17  H    2.209183   2.511554   3.743586   2.098632   1.087264
    18  H    4.438435   4.388739   5.495386   3.273862   2.021432
    19  H    5.553321   4.844167   5.408236   3.510963   3.419674
    20  H    6.198354   5.772738   6.593451   4.422421   3.758797
    21  H    7.950842   7.209532   7.704968   5.804917   5.604521
    22  H    7.810651   7.170286   7.812339   5.705786   5.249585
    23  H    7.164095   6.153116   6.321864   4.856115   5.182649
    24  H    8.416692   7.482956   7.758535   6.106006   6.178208
    25  H    6.958056   5.960473   6.107532   4.759759   5.085032
    26  H    7.134040   6.357225   6.823245   5.008307   4.845763
    27  H    3.815555   2.622444   2.347767   2.154543   3.402700
                    6          7          8          9         10
     6  N    0.000000
     7  C    1.466085   0.000000
     8  H    2.040412   1.102419   0.000000
     9  C    2.512989   1.525699   2.133788   0.000000
    10  C    3.823796   2.492752   2.650024   1.533042   0.000000
    11  C    4.337744   2.912018   3.152210   2.534318   1.533082
    12  C    3.787665   2.466590   2.589806   2.946430   2.534167
    13  C    2.496875   1.531420   2.132190   2.511137   2.956832
    14  H    2.665696   2.161240   2.491045   3.462423   3.959195
    15  N    3.154921   2.512269   3.415718   2.947606   3.491475
    16  C    3.090176   3.052303   4.058434   3.565806   4.475106
    17  H    2.058245   3.450277   4.023665   4.377802   5.785363
    18  H    1.015267   2.084699   2.317039   2.807575   4.131994
    19  H    2.842414   2.153999   3.045223   1.095701   2.171567
    20  H    2.699045   2.160573   2.503374   1.098537   2.176596
    21  H    4.653057   3.446692   3.673509   2.162406   1.095917
    22  H    4.067978   2.767732   2.464239   2.157382   1.099199
    23  H    4.633641   3.355162   3.882373   2.828385   2.159363
    24  H    5.343997   3.888347   3.922350   3.483615   2.170774
    25  H    4.617338   3.425677   3.601133   3.940505   3.482905
    26  H    3.980870   2.695203   2.343824   3.343105   2.824549
    27  H    4.095007   4.078427   5.110260   4.368194   5.205254
                   11         12         13         14         15
    11  C    0.000000
    12  C    1.528763   0.000000
    13  C    2.517629   1.534052   0.000000
    14  H    3.470442   2.166383   1.101203   0.000000
    15  N    2.892646   2.402690   1.458783   2.103693   0.000000
    16  C    4.117350   3.617142   2.363034   2.650677   1.288419
    17  H    6.167849   5.487597   3.999376   3.803235   4.198387
    18  H    4.925494   4.517989   3.389302   3.574615   4.107974
    19  H    2.827724   3.346966   2.737869   3.731702   2.589239
    20  H    3.488468   3.939609   3.465145   4.296115   3.952429
    21  H    2.170579   3.481409   3.928862   4.977684   4.198072
    22  H    2.163076   2.837449   3.410209   4.241790   4.273475
    23  H    1.095606   2.143893   2.773338   3.771146   2.554314
    24  H    1.096722   2.161654   3.469505   4.302867   3.883316
    25  H    2.166237   1.095744   2.156718   2.485860   2.621066
    26  H    2.168976   1.098290   2.161046   2.472010   3.359154
    27  H    4.759482   4.426970   3.351346   3.649973   2.034383
                   16         17         18         19         20
    16  C    0.000000
    17  H    3.476629   0.000000
    18  H    4.039258   2.305377   0.000000
    19  H    3.019416   4.353936   3.275800   0.000000
    20  H    4.381383   4.464584   2.582397   1.771420   0.000000
    21  H    5.116314   6.534091   4.873889   2.481630   2.520338
    22  H    5.261475   6.117192   4.210418   3.068388   2.466301
    23  H    3.715999   6.261057   5.310047   2.682405   3.834662
    24  H    5.141697   7.217085   5.877135   3.837330   4.319794
    25  H    3.821665   6.101565   5.436702   4.163806   4.977306
    26  H    4.476067   5.767810   4.561479   4.012033   4.155453
    27  H    1.091684   4.212051   4.995584   3.624192   5.166875
                   21         22         23         24         25
    21  H    0.000000
    22  H    1.765666   0.000000
    23  H    2.463519   3.062689   0.000000
    24  H    2.529708   2.464995   1.766152   0.000000
    25  H    4.311038   3.834162   2.453008   2.505501   0.000000
    26  H    3.834915   2.686731   3.059261   2.485787   1.769568
    27  H    5.697698   6.093711   4.138425   5.729273   4.472945
                   26         27
    26  H    0.000000
    27  H    5.376743   0.000000
 Symmetry turned off by external request.
 Stoichiometry    C9H13N3O2
 Framework group  C1[X(C9H13N3O2)]
 Deg. of freedom    75
 Full point group                 C1      NOp   1
 Rotational constants (GHZ):           1.6866327           0.4217187           0.3721889
 Standard basis: 6-31G(d) (6D, 7F)
   236 basis functions,   444 primitive gaussians,   236 cartesian basis functions
    52 alpha electrons       52 beta electrons
       nuclear repulsion energy       932.1306862767 Hartrees.
 NAtoms=   27 NActive=   27 NUniq=   27 SFac= 1.00D+00 NAtFMM=   60 NAOKFM=F Big=F
 Integral buffers will be    131072 words long.
 Raffenetti 1 integral format.
 Two-electron integral symmetry is turned off.
 One-electron integrals computed using PRISM.
 NBasis=   236 RedAO= T EigKep=  1.02D-03  NBF=   236
 NBsUse=   236 1.00D-06 EigRej= -1.00D+00 NBFU=   236
 Initial guess from the checkpoint file:  "/home/alexey/tmp/Gau-1165823.chk"
 B after Tr=     0.055472    0.005657   -0.002244
         Rot=    0.999997   -0.001449    0.001399    0.001081 Ang=  -0.26 deg.
 ExpMin= 1.61D-01 ExpMax= 5.48D+03 ExpMxC= 8.25D+02 IAcc=3 IRadAn=         5 AccDes= 0.00D+00
 Harris functional with IExCor=  205 and IRadAn=       5 diagonalized for initial guess.
 HarFok:  IExCor=  205 AccDes= 0.00D+00 IRadAn=         5 IDoV= 1 UseB2=F ITyADJ=14
 ICtDFT=  3500011 ScaDFX=  1.000000  1.000000  1.000000  1.000000
 FoFCou: FMM=F IPFlag=           0 FMFlag=      100000 FMFlg1=           0
         NFxFlg=           0 DoJE=T BraDBF=F KetDBF=T FulRan=T
         wScrn=  0.000000 ICntrl=       500 IOpCl=  0 I1Cent=   200000004 NGrid=           0
         NMat0=    1 NMatS0=      1 NMatT0=    0 NMatD0=    1 NMtDS0=    0 NMtDT0=    0
 Symmetry not used in FoFCou.
 Keep R1 ints in memory in canonical form, NReq=397720213.
 Requested convergence on RMS density matrix=1.00D-08 within 128 cycles.
 Requested convergence on MAX density matrix=1.00D-06.
 Requested convergence on             energy=1.00D-06.
 No special actions if energy rises.
 SCF Done:  E(RHF) =  -661.298160469     A.U. after   15 cycles
            NFock= 15  Conv=0.35D-08     -V/T= 2.0024
 ExpMin= 1.61D-01 ExpMax= 5.48D+03 ExpMxC= 8.25D+02 IAcc=3 IRadAn=         5 AccDes= 0.00D+00
 HarFok:  IExCor=  205 AccDes= 0.00D+00 IRadAn=         5 IDoV=-2 UseB2=F ITyADJ=14
 ICtDFT= 12500011 ScaDFX=  1.000000  1.000000  1.000000  1.000000
 Range of M.O.s used for correlation:    15   236
 NBasis=   236 NAE=    52 NBE=    52 NFC=    14 NFV=     0
 NROrb=    222 NOA=    38 NOB=    38 NVA=   184 NVB=   184
 Fully direct method using O(ONN) memory.
 JobTyp=1 Pass  1:  I=  15 to  52 NPSUse=  4 ParTrn=T ParDer=T DoDerP=T.
 Spin components of T(2) and E(2):
     alpha-alpha T2 =       0.9124758851D-01 E2=     -0.2723317017D+00
     alpha-beta  T2 =       0.4913019178D+00 E2=     -0.1488060208D+01
     beta-beta   T2 =       0.9124758851D-01 E2=     -0.2723317017D+00
 ANorm=    0.1293753104D+01
 E2 =    -0.2032723612D+01 EUMP2 =    -0.66333088408066D+03
          IDoAtm=111111111111111111111111111
          Differentiating once with respect to electric field.
                with respect to dipole field.
          Differentiating once with respect to nuclear coordinates.
 Keep R1 ints in memory in canonical form, NReq=397723379.
          There are     1 degrees of freedom in the 1st order CPHF.  IDoFFX=0 NUNeed=     1.
 LinEq1:  Iter=  0 NonCon=     1 RMS=4.57D-03 Max=1.05D-01 NDo=     1
 AX will form     1 AO Fock derivatives at one time.
 LinEq1:  Iter=  1 NonCon=     1 RMS=1.53D-03 Max=2.80D-02 NDo=     1
 LinEq1:  Iter=  2 NonCon=     1 RMS=6.41D-04 Max=1.78D-02 NDo=     1
 LinEq1:  Iter=  3 NonCon=     1 RMS=2.80D-04 Max=8.16D-03 NDo=     1
 LinEq1:  Iter=  4 NonCon=     1 RMS=8.71D-05 Max=1.91D-03 NDo=     1
 LinEq1:  Iter=  5 NonCon=     1 RMS=3.64D-05 Max=1.77D-03 NDo=     1
 LinEq1:  Iter=  6 NonCon=     1 RMS=1.41D-05 Max=5.22D-04 NDo=     1
 LinEq1:  Iter=  7 NonCon=     1 RMS=5.39D-06 Max=9.06D-05 NDo=     1
 LinEq1:  Iter=  8 NonCon=     1 RMS=2.15D-06 Max=5.26D-05 NDo=     1
 LinEq1:  Iter=  9 NonCon=     1 RMS=7.71D-07 Max=2.27D-05 NDo=     1
[...]
                   16         17         18         19         20
    16  C    0.000000
    17  H    3.464073   0.000000
    18  H    4.089045   2.236156   0.000000
    19  H    2.990898   4.300646   3.512981   0.000000
    20  H    4.375332   4.446484   2.883020   1.768519   0.000000
    21  H    5.096613   6.509314   5.087192   2.499167   2.521032
    22  H    5.248747   6.100072   4.313449   3.070216   2.461457
    23  H    3.694869   6.234541   5.421640   2.704223   3.842929
    24  H    5.133665   7.201172   5.936782   3.849619   4.317110
    25  H    3.821280   6.090509   5.369369   4.171550   4.985017
    26  H    4.494934   5.783353   4.484474   4.035845   4.182067
    27  H    1.089813   4.214968   5.080673   3.584721   5.149185
                   21         22         23         24         25
    21  H    0.000000
    22  H    1.758852   0.000000
    23  H    2.469454   3.062282   0.000000
    24  H    2.517345   2.459886   1.764574   0.000000
    25  H    4.311989   3.839451   2.444150   2.519649   0.000000
    26  H    3.846621   2.704251   3.060433   2.491798   1.767988
    27  H    5.654052   6.061247   4.090954   5.695092   4.454127
                   26         27
    26  H    0.000000
    27  H    5.378384   0.000000
 Symmetry turned off by external request.
 Stoichiometry    C9H13N3O2
 Framework group  C1[X(C9H13N3O2)]
 Deg. of freedom    75
 Full point group                 C1      NOp   1
 Rotational constants (GHZ):           1.6790896           0.4197366           0.3721236

 **********************************************************************

            Population analysis using the SCF Density.

 **********************************************************************

 Alpha  occ. eigenvalues --  -20.59248 -20.58914 -15.84711 -15.64131 -15.56108
 Alpha  occ. eigenvalues --  -11.35017 -11.29621 -11.29573 -11.28620 -11.27134
 Alpha  occ. eigenvalues --  -11.23726 -11.23206 -11.22690 -11.22087  -1.57113
 Alpha  occ. eigenvalues --   -1.36712  -1.30973  -1.23069  -1.14706  -1.09823
 Alpha  occ. eigenvalues --   -1.02804  -1.01306  -0.94489  -0.89682  -0.85563
 Alpha  occ. eigenvalues --   -0.82453  -0.78606  -0.77416  -0.75206  -0.72017
 Alpha  occ. eigenvalues --   -0.69821  -0.69386  -0.67793  -0.64906  -0.63772
 Alpha  occ. eigenvalues --   -0.62373  -0.60280  -0.57699  -0.56999  -0.55081
 Alpha  occ. eigenvalues --   -0.54585  -0.50751  -0.50128  -0.48659  -0.48098
 Alpha  occ. eigenvalues --   -0.47385  -0.46132  -0.46054  -0.43668  -0.41696
 Alpha  occ. eigenvalues --   -0.39851  -0.33827
 Alpha virt. eigenvalues --    0.07461   0.11801   0.17304   0.21840   0.24110
 Alpha virt. eigenvalues --    0.25675   0.27137   0.28702   0.29043   0.29634
 Alpha virt. eigenvalues --    0.30646   0.31785   0.32032   0.32764   0.33944
 Alpha virt. eigenvalues --    0.34383   0.35851   0.37317   0.38582   0.40300
 Alpha virt. eigenvalues --    0.41408   0.42421   0.44997   0.46108   0.46756
 Alpha virt. eigenvalues --    0.47096   0.48974   0.53971   0.57571   0.59362
 Alpha virt. eigenvalues --    0.63901   0.69534   0.69898   0.72869   0.74241
 Alpha virt. eigenvalues --    0.74882   0.75780   0.76690   0.78668   0.79419
 Alpha virt. eigenvalues --    0.81442   0.84679   0.85718   0.85802   0.88539
 Alpha virt. eigenvalues --    0.89418   0.91065   0.92089   0.92841   0.94530
 Alpha virt. eigenvalues --    0.95615   0.98044   0.99626   1.01705   1.02418
 Alpha virt. eigenvalues --    1.03206   1.05874   1.06961   1.07900   1.08983
 Alpha virt. eigenvalues --    1.10338   1.11402   1.11857   1.12411   1.13912
 Alpha virt. eigenvalues --    1.14756   1.14996   1.15822   1.16881   1.18713
 Alpha virt. eigenvalues --    1.19113   1.21314   1.22557   1.23864   1.24536
 Alpha virt. eigenvalues --    1.24615   1.26015   1.27152   1.27464   1.29552
 Alpha virt. eigenvalues --    1.29997   1.33168   1.36034   1.37216   1.40918
 Alpha virt. eigenvalues --    1.41890   1.46288   1.48463   1.51597   1.54166
 Alpha virt. eigenvalues --    1.56225   1.58636   1.59796   1.63632   1.65703
 Alpha virt. eigenvalues --    1.67931   1.68633   1.72996   1.75289   1.77401
 Alpha virt. eigenvalues --    1.81603   1.84484   1.87487   1.90594   1.93325
 Alpha virt. eigenvalues --    1.95783   1.96801   1.99553   2.01672   2.02417
 Alpha virt. eigenvalues --    2.05121   2.05844   2.08452   2.09535   2.12587
 Alpha virt. eigenvalues --    2.13321   2.15269   2.18825   2.20030   2.22288
 Alpha virt. eigenvalues --    2.22625   2.24500   2.25488   2.28210   2.29542
 Alpha virt. eigenvalues --    2.32047   2.33710   2.34645   2.36465   2.38408
 Alpha virt. eigenvalues --    2.40425   2.41865   2.43853   2.44966   2.47470
 Alpha virt. eigenvalues --    2.50721   2.52071   2.53172   2.55576   2.61585
 Alpha virt. eigenvalues --    2.62345   2.65226   2.67568   2.70390   2.70499
 Alpha virt. eigenvalues --    2.72264   2.72652   2.77064   2.78427   2.83628
 Alpha virt. eigenvalues --    2.88568   2.88929   2.92825   2.93335   2.96173
 Alpha virt. eigenvalues --    2.99436   3.01319   3.04206   3.05736   3.07675
 Alpha virt. eigenvalues --    3.09421   3.15088   3.21114   3.25140   3.27455
 Alpha virt. eigenvalues --    3.33350   3.37683   3.38755   3.52147   3.65784
 Alpha virt. eigenvalues --    4.13511   4.27838   4.34456   4.38700   4.46264
 Alpha virt. eigenvalues --    4.56274   4.61917   4.62332   4.73461   4.79619
 Alpha virt. eigenvalues --    4.99409   5.00900   5.05041   5.11165
          Condensed to atoms (all electrons):
               1          2          3          4          5          6
     1  O    8.353204   0.301044  -0.082270  -0.092547   0.003856   0.000777
     2  N    0.301044   5.724758   0.306681   0.263562  -0.053862   0.000982
     3  O   -0.082270   0.306681   8.315431  -0.085551   0.004647  -0.000016
     4  C   -0.092547   0.263562  -0.085551   5.225680   0.560936  -0.047183
     5  C    0.003856  -0.053862   0.004647   0.560936   4.708685   0.317242
     6  N    0.000777   0.000982  -0.000016  -0.047183   0.317242   7.195565
     7  C    0.000002  -0.000140   0.000004   0.004687  -0.030202   0.169307
     8  H   -0.000000   0.000002  -0.000000  -0.000260   0.003103  -0.050623
     9  C   -0.000000  -0.000004  -0.000000   0.000848   0.000629  -0.061726
    10  C    0.000000   0.000000   0.000000  -0.000038  -0.000052   0.003751
    11  C   -0.000000  -0.000000  -0.000000  -0.000028   0.000025  -0.000190
    12  C   -0.000000   0.000002  -0.000000  -0.000128  -0.000177   0.003873
    13  C   -0.000004  -0.000038  -0.000026  -0.011550  -0.000600  -0.047671
    14  H    0.000001  -0.000103  -0.000004   0.002625   0.006029  -0.006933
    15  N   -0.000017   0.002401   0.000359  -0.063696  -0.006323   0.001612
    16  C    0.002479  -0.026878   0.000899   0.327717  -0.049822  -0.001852
    17  H    0.017241  -0.007172   0.000216  -0.023109   0.374516  -0.034136
    18  H    0.000012  -0.000051   0.000001   0.001509  -0.031410   0.338678
    19  H    0.000000  -0.000004   0.000001  -0.001234   0.001230  -0.000356
    20  H    0.000000  -0.000000   0.000000  -0.000079   0.000152  -0.000416
    21  H   -0.000000   0.000000  -0.000000   0.000001   0.000001  -0.000077
    22  H   -0.000000   0.000000  -0.000000  -0.000000  -0.000003  -0.000117
    23  H    0.000000  -0.000000   0.000000   0.000040  -0.000000  -0.000030
    24  H    0.000000   0.000000   0.000000   0.000000  -0.000000   0.000006
    25  H    0.000000  -0.000000   0.000000   0.000024   0.000000  -0.000090
    26  H    0.000000  -0.000000   0.000000   0.000006  -0.000002  -0.000060
    27  H    0.000013  -0.000832   0.005977  -0.064067   0.002239   0.000019
               7          8          9         10         11         12
     1  O    0.000002  -0.000000  -0.000000   0.000000  -0.000000  -0.000000
     2  N   -0.000140   0.000002  -0.000004   0.000000  -0.000000   0.000002
     3  O    0.000004  -0.000000  -0.000000   0.000000  -0.000000  -0.000000
     4  C    0.004687  -0.000260   0.000848  -0.000038  -0.000028  -0.000128
     5  C   -0.030202   0.003103   0.000629  -0.000052   0.000025  -0.000177
     6  N    0.169307  -0.050623  -0.061726   0.003751  -0.000190   0.003873
     7  C    5.017817   0.418374   0.350579  -0.054675  -0.009028  -0.061042
     8  H    0.418374   0.538037  -0.054998   0.000768  -0.000324  -0.002239
     9  C    0.350579  -0.054998   5.158138   0.324798  -0.050419  -0.005332
    10  C   -0.054675   0.000768   0.324798   5.119301   0.336998  -0.061009
    11  C   -0.009028  -0.000324  -0.050419   0.336998   5.119934   0.335981
    12  C   -0.061042  -0.002239  -0.005332  -0.061009   0.335981   5.118653
    13  C    0.338445  -0.037917  -0.060301  -0.000272  -0.050703   0.371952
    14  H   -0.046617  -0.000745   0.004423  -0.000405   0.004196  -0.036328
    15  N   -0.057914   0.003895  -0.014586   0.001561  -0.013064  -0.082045
    16  C   -0.001816   0.000012  -0.001281  -0.000029   0.000029   0.002629
    17  H    0.001619  -0.000046  -0.000069   0.000001   0.000000   0.000000
    18  H   -0.021226  -0.004483   0.001335  -0.000083   0.000004  -0.000114
    19  H   -0.036866   0.004360   0.390243  -0.032081  -0.002212   0.000688
    20  H   -0.042417  -0.002075   0.399491  -0.035297   0.003931  -0.000416
    21  H    0.004599  -0.000076  -0.036359   0.402431  -0.034898   0.004350
    22  H   -0.004850   0.003558  -0.046955   0.397754  -0.045401  -0.001023
    23  H    0.000577   0.000035  -0.001958  -0.039018   0.399182  -0.037866
    24  H   -0.000130  -0.000102   0.004388  -0.038437   0.402343  -0.038691
    25  H    0.005151  -0.000024  -0.000424   0.004190  -0.033397   0.398279
    26  H   -0.003911   0.001686   0.000969  -0.002234  -0.041482   0.396727
    27  H   -0.000410   0.000009  -0.000058   0.000007   0.000012  -0.000036
              13         14         15         16         17         18
     1  O   -0.000004   0.000001  -0.000017   0.002479   0.017241   0.000012
     2  N   -0.000038  -0.000103   0.002401  -0.026878  -0.007172  -0.000051
     3  O   -0.000026  -0.000004   0.000359   0.000899   0.000216   0.000001
     4  C   -0.011550   0.002625  -0.063696   0.327717  -0.023109   0.001509
     5  C   -0.000600   0.006029  -0.006323  -0.049822   0.374516  -0.031410
     6  N   -0.047671  -0.006933   0.001612  -0.001852  -0.034136   0.338678
     7  C    0.338445  -0.046617  -0.057914  -0.001816   0.001619  -0.021226
     8  H   -0.037917  -0.000745   0.003895   0.000012  -0.000046  -0.004483
     9  C   -0.060301   0.004423  -0.014586  -0.001281  -0.000069   0.001335
    10  C   -0.000272  -0.000405   0.001561  -0.000029   0.000001  -0.000083
    11  C   -0.050703   0.004196  -0.013064   0.000029   0.000000   0.000004
    12  C    0.371952  -0.036328  -0.082045   0.002629   0.000000  -0.000114
    13  C    5.040233   0.403136   0.245005  -0.071262  -0.000010   0.002965
    14  H    0.403136   0.526789  -0.037396  -0.004512   0.000092  -0.000109
    15  N    0.245005  -0.037396   6.964734   0.585400  -0.000078  -0.000132
    16  C   -0.071262  -0.004512   0.585400   4.709201   0.002027  -0.000196
    17  H   -0.000010   0.000092  -0.000078   0.002027   0.376773  -0.002816
    18  H    0.002965  -0.000109  -0.000132  -0.000196  -0.002816   0.310597
    19  H   -0.007543   0.000106   0.007690   0.003008   0.000016  -0.000149
    20  H    0.004341  -0.000066   0.000126  -0.000036   0.000002   0.000801
    21  H   -0.000434   0.000010  -0.000041   0.000004  -0.000000   0.000001
    22  H    0.000046  -0.000055   0.000019  -0.000002   0.000000   0.000001
    23  H   -0.007522   0.000003   0.008585   0.000105   0.000000   0.000000
    24  H    0.004700  -0.000057   0.000135   0.000007   0.000000  -0.000000
    25  H   -0.035563  -0.002819   0.000410  -0.000022  -0.000000   0.000002
    26  H   -0.047413  -0.001045   0.004898  -0.000062   0.000000  -0.000000
    27  H    0.005083  -0.000173  -0.040168   0.403855  -0.000079   0.000001
              19         20         21         22         23         24
     1  O    0.000000   0.000000  -0.000000  -0.000000   0.000000   0.000000
     2  N   -0.000004  -0.000000   0.000000   0.000000  -0.000000   0.000000
     3  O    0.000001   0.000000  -0.000000  -0.000000   0.000000   0.000000
     4  C   -0.001234  -0.000079   0.000001  -0.000000   0.000040   0.000000
     5  C    0.001230   0.000152   0.000001  -0.000003  -0.000000  -0.000000
     6  N   -0.000356  -0.000416  -0.000077  -0.000117  -0.000030   0.000006
     7  C   -0.036866  -0.042417   0.004599  -0.004850   0.000577  -0.000130
     8  H    0.004360  -0.002075  -0.000076   0.003558   0.000035  -0.000102
     9  C    0.390243   0.399491  -0.036359  -0.046955  -0.001958   0.004388
    10  C   -0.032081  -0.035297   0.402431   0.397754  -0.039018  -0.038437
    11  C   -0.002212   0.003931  -0.034898  -0.045401   0.399182   0.402343
    12  C    0.000688  -0.000416   0.004350  -0.001023  -0.037866  -0.038691
    13  C   -0.007543   0.004341  -0.000434   0.000046  -0.007522   0.004700
    14  H    0.000106  -0.000066   0.000010  -0.000055   0.000003  -0.000057
    15  N    0.007690   0.000126  -0.000041   0.000019   0.008585   0.000135
    16  C    0.003008  -0.000036   0.000004  -0.000002   0.000105   0.000007
    17  H    0.000016   0.000002  -0.000000   0.000000   0.000000   0.000000
    18  H   -0.000149   0.000801   0.000001   0.000001   0.000000  -0.000000
    19  H    0.504999  -0.024735  -0.002787   0.003959   0.001514  -0.000066
    20  H   -0.024735   0.541086  -0.002693  -0.002990  -0.000045  -0.000083
    21  H   -0.002787  -0.002693   0.524043  -0.027404  -0.002898  -0.002242
    22  H    0.003959  -0.002990  -0.027404   0.571327   0.004137  -0.003656
    23  H    0.001514  -0.000045  -0.002898   0.004137   0.498958  -0.025451
    24  H   -0.000066  -0.000083  -0.002242  -0.003656  -0.025451   0.538124
    25  H   -0.000029   0.000012  -0.000087  -0.000080  -0.002317  -0.002292
    26  H    0.000019  -0.000030  -0.000081   0.002380   0.004067  -0.003034
    27  H    0.000084   0.000000  -0.000000   0.000000  -0.000035  -0.000000
              25         26         27
     1  O    0.000000   0.000000   0.000013
     2  N   -0.000000  -0.000000  -0.000832
     3  O    0.000000   0.000000   0.005977
     4  C    0.000024   0.000006  -0.064067
     5  C    0.000000  -0.000002   0.002239
     6  N   -0.000090  -0.000060   0.000019
     7  C    0.005151  -0.003911  -0.000410
     8  H   -0.000024   0.001686   0.000009
     9  C   -0.000424   0.000969  -0.000058
    10  C    0.004190  -0.002234   0.000007
    11  C   -0.033397  -0.041482   0.000012
    12  C    0.398279   0.396727  -0.000036
    13  C   -0.035563  -0.047413   0.005083
    14  H   -0.002819  -0.001045  -0.000173
    15  N    0.000410   0.004898  -0.040168
    16  C   -0.000022  -0.000062   0.403855
    17  H   -0.000000   0.000000  -0.000079
    18  H    0.000002  -0.000000   0.000001
    19  H   -0.000029   0.000019   0.000084
    20  H    0.000012  -0.000030   0.000000
    21  H   -0.000087  -0.000081  -0.000000
    22  H   -0.000080   0.002380   0.000000
    23  H   -0.002317   0.004067  -0.000035
    24  H   -0.002292  -0.003034  -0.000000
    25  H    0.506068  -0.024078  -0.000013
    26  H   -0.024078   0.562349   0.000001
    27  H   -0.000013   0.000001   0.440680
 Mulliken charges:
               1
     1  O   -0.503791
     2  N    0.489653
     3  O   -0.466347
     4  C    0.001834
     5  C    0.189165
     6  N   -0.780336
     7  C    0.060082
     8  H    0.180075
     9  C   -0.301373
    10  C   -0.327930
    11  C   -0.321489
    12  C   -0.306689
    13  C   -0.037078
    14  H    0.189958
    15  N   -0.511367
    16  C    0.120398
    17  H    0.295011
    18  H    0.404863
    19  H    0.190145
    20  H    0.161436
    21  H    0.174636
    22  H    0.149353
    23  H    0.199937
    24  H    0.164537
    25  H    0.187097
    26  H    0.150327
    27  H    0.247893
 Sum of Mulliken charges =  -0.00000
 Mulliken charges with hydrogens summed into heavy atoms:
               1
     1  O   -0.503791
     2  N    0.489653
     3  O   -0.466347
     4  C    0.001834
     5  C    0.484176
     6  N   -0.375472
     7  C    0.240156
     9  C    0.050208
    10  C   -0.003940
    11  C    0.042985
    12  C    0.030736
    13  C    0.152880
    15  N   -0.511367
    16  C    0.368290
 Electronic spatial extent (au):  <R**2>=           3004.4823
 Charge=             -0.0000 electrons
 Dipole moment (field-independent basis, Debye):
    X=              5.4051    Y=              4.9069    Z=              0.8147  Tot=              7.3455
 Quadrupole moment (field-independent basis, Debye-Ang):
   XX=           -106.0890   YY=            -78.8940   ZZ=            -81.8417
   XY=             -1.7830   XZ=             -0.1903   YZ=              1.7962
 Traceless Quadrupole moment (field-independent basis, Debye-Ang):
   XX=            -17.1475   YY=             10.0476   ZZ=              7.0999
   XY=             -1.7830   XZ=             -0.1903   YZ=              1.7962
 Octapole moment (field-independent basis, Debye-Ang**2):
  XXX=             91.9664  YYY=             38.3343  ZZZ=             -2.1705  XYY=             -4.5035
  XXY=             10.0398  XXZ=              4.8239  XZZ=             -9.7750  YZZ=             -1.8180
  YYZ=              3.3438  XYZ=             -0.9840
 Hexadecapole moment (field-independent basis, Debye-Ang**3):
 XXXX=          -3378.6686 YYYY=           -588.4050 ZZZZ=           -310.5730 XXXY=            -22.0239
 XXXZ=            -27.1649 YYYX=             -8.1378 YYYZ=             39.6596 ZZZX=             -9.6556
 ZZZY=             27.1640 XXYY=           -627.7477 XXZZ=           -523.6972 YYZZ=           -160.5864
 XXYZ=              9.9676 YYXZ=              0.2825 ZZXY=              4.5005
 N-N= 9.312776478822D+02 E-N=-3.409271852985D+03  KE= 6.596293733823D+02
 Unable to Open any file for archive entry.
 1\1\GINC-LOTUS\FOpt\RMP2-FC\6-31G(d)\C9H13N3O2\ALEXEY\30-Jun-2023\0\\#
 MP2/6-31G* SCF=Tight Opt=(ModRedun, MaxCycle=20 ) NoSymm\\MolName:\\0,
 1\O,-3.8927980582,0.7340130617,-0.0990007826\N,-3.1192769316,-0.243159
 4082,-0.1135762227\O,-3.5042396492,-1.4258791949,-0.1975371399\C,-1.68
 61281069,-0.0235803767,-0.01500258\C,-1.3017806365,1.2839933678,0.1320
 691198\N,-0.0577759046,1.7818708191,0.2012042299\C,1.2040933672,1.0559
 678407,0.260735496\H,1.8478468766,1.6580286875,0.9196753129\C,1.916363
 9296,0.9213151083,-1.083844992\C,3.3129776937,0.3351494909,-0.84662394
 25\C,3.2594068714,-0.985715112,-0.0743317829\C,2.4560286299,-0.8557001
 015,1.2215178505\C,1.048425466,-0.3302031825,0.9177976057\H,0.46582258
 14,-0.2082334466,1.8447017865\N,0.4072247921,-1.3208424862,0.058766884
 7\C,-0.837949755,-1.173058092,-0.2620093787\H,-2.0967466901,2.02262201
 62,0.188391475\H,0.0006997379,2.7856352992,0.3259538001\H,1.3260846937
 ,0.2706592534,-1.7378502606\H,1.9858875448,1.9027924016,-1.5691510838\
 H,3.8231042027,0.1928057694,-1.8061776839\H,3.9094212176,1.0655655505,
 -0.2815794156\H,2.7854143817,-1.7528792847,-0.6945520901\H,4.277001390
 6,-1.3285756407,0.1473840577\H,2.3670720809,-1.8304784249,1.712279064\
 H,2.9615976413,-0.1789975445,1.9242462425\H,-1.2967473668,-1.992126371
 1,-0.81547557\\Version=ES64L-G16RevC.02\HF=-661.3002936\MP2=-663.33463
 83\RMSD=3.864e-09\RMSF=5.904e-05\Dipole=1.976186,1.7330538,0.3064949\P
 G=C01 [X(C9H13N3O2)]\\@
 The archive entry for this job was punched.


     SCHOPENHAUER'S LAW OF ENTROPY
 IF YOU PUT A SPOONFUL OF WINE IN A BARREL FULL
 OF SEWAGE, YOU GET SEWAGE.
 IF YOU PUT A SPOONFUL OF SEWAGE IN A BARREL FULL
 OF WINE, YOU GET SEWAGE.
 Job cpu time:       0 days  1 hours 37 minutes 39.0 seconds.
 Elapsed time:       0 days  0 hours 29 minutes 11.2 seconds.
 File lengths (MBytes):  RWF=     36 Int=      0 D2E=      0 Chk=      7 Scr=      1
 Normal termination of Gaussian 16 at Fri Jun 30 15:51:42 2023.
