 Entering Gaussian System, Link 0=g16
 Initial command:
 /home/alexey/programs//g16/l1.exe "/home/alexey/tmp/Gau-1162643.inp" -scrdir="/home/alexey/tmp/"
 Entering Link 1 = /home/alexey/programs//g16/l1.exe PID=   1162645.
  
 Copyright (c) 1988-2021, Gaussian, Inc.  All Rights Reserved.
  
 This is part of the Gaussian(R) 16 program.  It is based on
 the Gaussian(R) 09 system (copyright 2009, Gaussian, Inc.),
 the Gaussian(R) 03 system (copyright 2003, Gaussian, Inc.),
 the Gaussian(R) 98 system (copyright 1998, Gaussian, Inc.),
 the Gaussian(R) 94 system (copyright 1995, Gaussian, Inc.),
 the Gaussian 92(TM) system (copyright 1992, Gaussian, Inc.),
 the Gaussian 90(TM) system (copyright 1990, Gaussian, Inc.),
 the Gaussian 88(TM) system (copyright 1988, Gaussian, Inc.),
 the Gaussian 86(TM) system (copyright 1986, Carnegie Mellon
 University), and the Gaussian 82(TM) system (copyright 1983,
 Carnegie Mellon University). Gaussian is a federally registered
 trademark of Gaussian, Inc.
  
 This software contains proprietary and confidential information,
 including trade secrets, belonging to Gaussian, Inc.
  
 This software is provided under written license and may be
 used, copied, transmitted, or stored only in accord with that
 written license.
  
 The following legend is applicable only to US Government
 contracts under FAR:
  
                    RESTRICTED RIGHTS LEGEND
  
 Use, reproduction and disclosure by the US Government is
 subject to restrictions as set forth in subparagraphs (a)
 and (c) of the Commercial Computer Software - Restricted
 Rights clause in FAR 52.227-19.
  
 Gaussian, Inc.
 340 Quinnipiac St., Bldg. 40, Wallingford CT 06492
  
  
 ---------------------------------------------------------------
 Warning -- This program may not be used in any manner that
 competes with the business of Gaussian, Inc. or will provide
 assistance to any competitor of Gaussian, Inc.  The licensee
 of this program is prohibited from giving any competitor of
 Gaussian, Inc. access to this program.  By using this program,
 the user acknowledges that Gaussian, Inc. is engaged in the
 business of creating and licensing software in the field of
 computational chemistry and represents and warrants to the
 licensee that it is not a competitor of Gaussian, Inc. and that
 it will not use this program in any manner prohibited above.
 ---------------------------------------------------------------
  

 Cite this work as:
 Gaussian 16, Revision C.02,
 M. J. Frisch, G. W. Trucks, H. B. Schlegel, G. E. Scuseria, 
 M. A. Robb, J. R. Cheeseman, G. Scalmani, V. Barone, 
 G. A. Petersson, H. Nakatsuji, X. Li, M. Caricato, A. V. Marenich, 
 J. Bloino, B. G. Janesko, R. Gomperts, B. Mennucci, H. P. Hratchian, 
 J. V. Ortiz, A. F. Izmaylov, J. L. Sonnenberg, D. Williams-Young, 
 F. Ding, F. Lipparini, F. Egidi, J. Goings, B. Peng, A. Petrone, 
 T. Henderson, D. Ranasinghe, V. G. Zakrzewski, J. Gao, N. Rega, 
 G. Zheng, W. Liang, M. Hada, M. Ehara, K. Toyota, R. Fukuda, 
 J. Hasegawa, M. Ishida, T. Nakajima, Y. Honda, O. Kitao, H. Nakai, 
 T. Vreven, K. Throssell, J. A. Montgomery, Jr., J. E. Peralta, 
 F. Ogliaro, M. J. Bearpark, J. J. Heyd, E. N. Brothers, K. N. Kudin, 
 V. N. Staroverov, T. A. Keith, R. Kobayashi, J. Normand, 
 K. Raghavachari, A. P. Rendell, J. C. Burant, S. S. Iyengar, 
 J. Tomasi, M. Cossi, J. M. Millam, M. Klene, C. Adamo, R. Cammi, 
 J. W. Ochterski, R. L. Martin, K. Morokuma, O. Farkas, 
 J. B. Foresman, and D. J. Fox, Gaussian, Inc., Wallingford CT, 2019.
 
 ******************************************
 Gaussian 16:  ES64L-G16RevC.02  7-Dec-2021
                30-Jun-2023 
 ******************************************
 %mem=8GB
 %NPROCS=4
 Will use up to    4 processors via shared memory.
 %NoSave
 ---------------------------------------------------------
 #MP2/6-31G* SCF=Tight Opt=(ModRedun, MaxCycle=20 ) NoSymm
 ---------------------------------------------------------
 1/6=20,18=120,19=15,38=1/1,3;
 2/9=110,12=2,15=1,17=6,18=5,40=1/2;
 3/5=1,6=6,7=1,11=9,25=1,30=1,71=1/1,2,3;
 4//1;
 5/5=2,32=2,38=5/2;
 8/6=4,10=2/1;
 9/15=2,16=-3/6;
 10/5=1,31=1/2;
 6/7=2,8=2,9=2,10=2/1;
 7/12=2,30=1/1,2,3,16;
 1/6=20,18=20,19=15/3(2);
 2/9=110,15=1/2;
 99//99;
 2/9=110,15=1/2;
 3/5=1,6=6,7=1,11=9,25=1,30=1,71=1/1,2,3;
 4/5=5,16=3,69=1/1;
 5/5=2,32=2,38=5/2;
 8/6=4,10=2/1;
 9/15=2,16=-3/6;
 10/5=1,31=1/2;
 7/12=2,30=1/1,2,3,16;
 1/6=20,18=20,19=15/3(-8);
 2/9=110,15=1/2;
 6/7=2,8=2,9=2,10=2/1;
 99/9=10/99;
 --------
 MolName:
 --------
 Symbolic Z-matrix:
 Charge =  0 Multiplicity = 1
 8                    0    -4.02722   0.66642  -0.19337 
 7                    0    -3.25109  -0.27627  -0.03345 
 8                    0    -3.60903  -1.43909   0.14496 
 6                    0    -1.75424   0.00287  -0.05236 
 6                    0    -1.3701    1.33541   0.1305 
 7                    0    -0.08301   1.79833   0.21956 
 6                    0     1.19552   1.02593   0.27396 
 1                    0     1.85626   1.59627   0.97737 
 6                    0     1.96625   0.94192  -1.06721 
 6                    0     3.37682   0.37665  -0.81349 
 6                    0     3.31079  -0.9728   -0.0809 
 6                    0     2.45648  -0.87695   1.20156 
 6                    0     1.02119  -0.36818   0.89527 
 1                    0     0.46745  -0.30951   1.86161 
 7                    0     0.36906  -1.33215   0.00546 
 6                    0    -0.87089  -1.16169  -0.3171 
 1                    0    -2.16127   2.09248   0.26083 
 1                    0     0.15213   2.75998  -0.03778 
 1                    0     1.41979   0.29104  -1.78248 
 1                    0     2.05517   1.95146  -1.52173 
 1                    0     3.91603   0.25515  -1.7784 
 1                    0     3.95131   1.09603  -0.18811 
 1                    0     2.86648  -1.73355  -0.76178 
 1                    0     4.33739  -1.31359   0.17632 
 1                    0     2.39544  -1.88072   1.67637 
 1                    0     2.94731  -0.19058   1.923 
 1                    0    -1.37503  -1.97484  -0.86158 
 
 The following ModRedundant input section has been read:
 D       1       2       4      16 F                                           
 D       7      13      15      16 F                                           
 D       7       9      10      11 F                                           
 D       9      10      11      12 F                                           
 D       6       7      13      15 F                                           
 

 GradGradGradGradGradGradGradGradGradGradGradGradGradGradGradGradGradGrad
 Berny optimization.
 Initialization pass.
                           ----------------------------
                           !    Initial Parameters    !
                           ! (Angstroms and Degrees)  !
 --------------------------                            --------------------------
 ! Name  Definition              Value          Derivative Info.                !
 --------------------------------------------------------------------------------
 ! R1    R(1,2)                  1.2315         estimate D2E/DX2                !
 ! R2    R(2,3)                  1.2297         estimate D2E/DX2                !
 ! R3    R(2,4)                  1.5228         estimate D2E/DX2                !
 ! R4    R(4,5)                  1.3988         estimate D2E/DX2                !
 ! R5    R(4,16)                 1.4855         estimate D2E/DX2                !
 ! R6    R(5,6)                  1.3707         estimate D2E/DX2                !
 ! R7    R(5,17)                 1.1028         estimate D2E/DX2                !
 ! R8    R(6,7)                  1.4947         estimate D2E/DX2                !
 ! R9    R(6,18)                 1.0229         estimate D2E/DX2                !
 ! R10   R(7,8)                  1.121          estimate D2E/DX2                !
 ! R11   R(7,9)                  1.5491         estimate D2E/DX2                !
 ! R12   R(7,13)                 1.5362         estimate D2E/DX2                !
 ! R13   R(9,10)                 1.5407         estimate D2E/DX2                !
 ! R14   R(9,19)                 1.1108         estimate D2E/DX2                !
 ! R15   R(9,20)                 1.1107         estimate D2E/DX2                !
 ! R16   R(10,11)                1.5369         estimate D2E/DX2                !
 ! R17   R(10,21)                1.112          estimate D2E/DX2                !
 ! R18   R(10,22)                1.1129         estimate D2E/DX2                !
 ! R19   R(11,12)                1.5439         estimate D2E/DX2                !
 ! R20   R(11,23)                1.1134         estimate D2E/DX2                !
 ! R21   R(11,24)                1.1118         estimate D2E/DX2                !
 ! R22   R(12,13)                1.5533         estimate D2E/DX2                !
 ! R23   R(12,25)                1.1121         estimate D2E/DX2                !
 ! R24   R(12,26)                1.1102         estimate D2E/DX2                !
 ! R25   R(13,14)                1.1153         estimate D2E/DX2                !
 ! R26   R(13,15)                1.465          estimate D2E/DX2                !
 ! R27   R(15,16)                1.2925         estimate D2E/DX2                !
 ! R28   R(16,27)                1.1008         estimate D2E/DX2                !
 ! A1    A(1,2,3)              124.0038         estimate D2E/DX2                !
 ! A2    A(1,2,4)              118.5265         estimate D2E/DX2                !
 ! A3    A(3,2,4)              117.4694         estimate D2E/DX2                !
 ! A4    A(2,4,5)              116.2921         estimate D2E/DX2                !
 ! A5    A(2,4,16)             116.2982         estimate D2E/DX2                !
 ! A6    A(5,4,16)             127.3602         estimate D2E/DX2                !
 ! A7    A(4,5,6)              126.0213         estimate D2E/DX2                !
 ! A8    A(4,5,17)             118.1916         estimate D2E/DX2                !
 ! A9    A(6,5,17)             115.7309         estimate D2E/DX2                !
 ! A10   A(5,6,7)              129.1261         estimate D2E/DX2                !
 ! A11   A(5,6,18)             121.1325         estimate D2E/DX2                !
 ! A12   A(7,6,18)             107.3581         estimate D2E/DX2                !
 ! A13   A(6,7,8)              105.313          estimate D2E/DX2                !
 ! A14   A(6,7,9)              114.9658         estimate D2E/DX2                !
 ! A15   A(6,7,13)             112.7433         estimate D2E/DX2                !
 ! A16   A(8,7,9)              106.1163         estimate D2E/DX2                !
 ! A17   A(8,7,13)             105.9513         estimate D2E/DX2                !
 ! A18   A(9,7,13)             110.9401         estimate D2E/DX2                !
 ! A19   A(7,9,10)             109.4411         estimate D2E/DX2                !
 ! A20   A(7,9,19)             110.1512         estimate D2E/DX2                !
 ! A21   A(7,9,20)             110.1709         estimate D2E/DX2                !
 ! A22   A(10,9,19)            109.9664         estimate D2E/DX2                !
 ! A23   A(10,9,20)            109.1218         estimate D2E/DX2                !
 ! A24   A(19,9,20)            107.9668         estimate D2E/DX2                !
 ! A25   A(9,10,11)            111.1811         estimate D2E/DX2                !
 ! A26   A(9,10,21)            109.9467         estimate D2E/DX2                !
 ! A27   A(9,10,22)            109.1466         estimate D2E/DX2                !
 ! A28   A(11,10,21)           109.7861         estimate D2E/DX2                !
 ! A29   A(11,10,22)           108.776          estimate D2E/DX2                !
 ! A30   A(21,10,22)           107.9333         estimate D2E/DX2                !
 ! A31   A(10,11,12)           111.4201         estimate D2E/DX2                !
 ! A32   A(10,11,23)           108.9999         estimate D2E/DX2                !
 ! A33   A(10,11,24)           109.8604         estimate D2E/DX2                !
 ! A34   A(12,11,23)           109.2421         estimate D2E/DX2                !
 ! A35   A(12,11,24)           109.7411         estimate D2E/DX2                !
 ! A36   A(23,11,24)           107.4875         estimate D2E/DX2                !
 ! A37   A(11,12,13)           111.5824         estimate D2E/DX2                !
 ! A38   A(11,12,25)           109.2072         estimate D2E/DX2                !
 ! A39   A(11,12,26)           109.4832         estimate D2E/DX2                !
 ! A40   A(13,12,25)           109.215          estimate D2E/DX2                !
 ! A41   A(13,12,26)           109.5219         estimate D2E/DX2                !
 ! A42   A(25,12,26)           107.7492         estimate D2E/DX2                !
 ! A43   A(7,13,12)            105.7914         estimate D2E/DX2                !
 ! A44   A(7,13,14)            111.0406         estimate D2E/DX2                !
 ! A45   A(7,13,15)            113.7028         estimate D2E/DX2                !
 ! A46   A(12,13,14)           107.7676         estimate D2E/DX2                !
 ! A47   A(12,13,15)           108.3948         estimate D2E/DX2                !
 ! A48   A(14,13,15)           109.8683         estimate D2E/DX2                !
 ! A49   A(13,15,16)           119.4611         estimate D2E/DX2                !
 ! A50   A(4,16,15)            129.0057         estimate D2E/DX2                !
 ! A51   A(4,16,27)            113.2605         estimate D2E/DX2                !
 ! A52   A(15,16,27)           117.7334         estimate D2E/DX2                !
 ! D1    D(1,2,4,5)             17.6318         estimate D2E/DX2                !
 ! D2    D(1,2,4,16)          -159.9997         Frozen                          !
 ! D3    D(3,2,4,5)           -162.2222         estimate D2E/DX2                !
 ! D4    D(3,2,4,16)            20.1463         estimate D2E/DX2                !
 ! D5    D(2,4,5,6)            176.3129         estimate D2E/DX2                !
 ! D6    D(2,4,5,17)            -0.8353         estimate D2E/DX2                !
 ! D7    D(16,4,5,6)            -6.3588         estimate D2E/DX2                !
 ! D8    D(16,4,5,17)          176.4931         estimate D2E/DX2                !
 ! D9    D(2,4,16,15)         -156.0919         estimate D2E/DX2                !
 ! D10   D(2,4,16,27)           23.661          estimate D2E/DX2                !
 ! D11   D(5,4,16,15)           26.5799         estimate D2E/DX2                !
 ! D12   D(5,4,16,27)         -153.6671         estimate D2E/DX2                !
 ! D13   D(4,5,6,7)             -6.2413         estimate D2E/DX2                !
 ! D14   D(4,5,6,18)           153.9142         estimate D2E/DX2                !
 ! D15   D(17,5,6,7)           170.9685         estimate D2E/DX2                !
 ! D16   D(17,5,6,18)          -28.876          estimate D2E/DX2                !
 ! D17   D(5,6,7,8)           -143.2369         estimate D2E/DX2                !
 ! D18   D(5,6,7,9)            100.3429         estimate D2E/DX2                !
 ! D19   D(5,6,7,13)           -28.166          estimate D2E/DX2                !
 ! D20   D(18,6,7,8)            54.4876         estimate D2E/DX2                !
 ! D21   D(18,6,7,9)           -61.9326         estimate D2E/DX2                !
 ! D22   D(18,6,7,13)          169.5585         estimate D2E/DX2                !
 ! D23   D(6,7,9,10)           168.6825         estimate D2E/DX2                !
 ! D24   D(6,7,9,19)           -70.3033         estimate D2E/DX2                !
 ! D25   D(6,7,9,20)            48.6995         estimate D2E/DX2                !
 ! D26   D(8,7,9,10)            52.7217         estimate D2E/DX2                !
 ! D27   D(8,7,9,19)           173.7359         estimate D2E/DX2                !
 ! D28   D(8,7,9,20)           -67.2613         estimate D2E/DX2                !
 ! D29   D(13,7,9,10)          -61.9147         estimate D2E/DX2                !
 ! D30   D(13,7,9,19)           59.0995         estimate D2E/DX2                !
 ! D31   D(13,7,9,20)          178.1023         estimate D2E/DX2                !
 ! D32   D(6,7,13,12)         -166.1416         estimate D2E/DX2                !
 ! D33   D(6,7,13,14)          -49.4896         estimate D2E/DX2                !
 ! D34   D(6,7,13,15)           75.0217         Frozen                          !
 ! D35   D(8,7,13,12)          -51.4558         estimate D2E/DX2                !
 ! D36   D(8,7,13,14)           65.1962         estimate D2E/DX2                !
 ! D37   D(8,7,13,15)         -170.2925         estimate D2E/DX2                !
 ! D38   D(9,7,13,12)           63.2838         estimate D2E/DX2                !
 ! D39   D(9,7,13,14)          179.9358         estimate D2E/DX2                !
 ! D40   D(9,7,13,15)          -55.5529         estimate D2E/DX2                !
 ! D41   D(7,9,10,11)           54.8119         Frozen                          !
 ! D42   D(7,9,10,21)          176.6036         estimate D2E/DX2                !
 ! D43   D(7,9,10,22)          -65.184          estimate D2E/DX2                !
 ! D44   D(19,9,10,11)         -66.3142         estimate D2E/DX2                !
 ! D45   D(19,9,10,21)          55.4774         estimate D2E/DX2                !
 ! D46   D(19,9,10,22)         173.6899         estimate D2E/DX2                !
 ! D47   D(20,9,10,11)         175.4358         estimate D2E/DX2                !
 ! D48   D(20,9,10,21)         -62.7726         estimate D2E/DX2                !
 ! D49   D(20,9,10,22)          55.4399         estimate D2E/DX2                !
 ! D50   D(9,10,11,12)         -52.8218         Frozen                          !
 ! D51   D(9,10,11,23)          67.8081         estimate D2E/DX2                !
 ! D52   D(9,10,11,24)        -174.6572         estimate D2E/DX2                !
 ! D53   D(21,10,11,12)       -174.7069         estimate D2E/DX2                !
 ! D54   D(21,10,11,23)        -54.077          estimate D2E/DX2                !
 ! D55   D(21,10,11,24)         63.4577         estimate D2E/DX2                !
 ! D56   D(22,10,11,12)         67.3937         estimate D2E/DX2                !
 ! D57   D(22,10,11,23)       -171.9764         estimate D2E/DX2                !
 ! D58   D(22,10,11,24)        -54.4417         estimate D2E/DX2                !
 ! D59   D(10,11,12,13)         56.6243         estimate D2E/DX2                !
 ! D60   D(10,11,12,25)        177.4614         estimate D2E/DX2                !
 ! D61   D(10,11,12,26)        -64.7844         estimate D2E/DX2                !
 ! D62   D(23,11,12,13)        -63.8635         estimate D2E/DX2                !
 ! D63   D(23,11,12,25)         56.9736         estimate D2E/DX2                !
 ! D64   D(23,11,12,26)        174.7279         estimate D2E/DX2                !
 ! D65   D(24,11,12,13)        178.5288         estimate D2E/DX2                !
 ! D66   D(24,11,12,25)        -60.6341         estimate D2E/DX2                !
 ! D67   D(24,11,12,26)         57.1201         estimate D2E/DX2                !
 ! D68   D(11,12,13,7)         -60.3613         estimate D2E/DX2                !
 ! D69   D(11,12,13,14)       -179.205          estimate D2E/DX2                !
 ! D70   D(11,12,13,15)         61.9355         estimate D2E/DX2                !
 ! D71   D(25,12,13,7)         178.8062         estimate D2E/DX2                !
 ! D72   D(25,12,13,14)         59.9625         estimate D2E/DX2                !
 ! D73   D(25,12,13,15)        -58.897          estimate D2E/DX2                !
 ! D74   D(26,12,13,7)          61.0249         estimate D2E/DX2                !
 ! D75   D(26,12,13,14)        -57.8188         estimate D2E/DX2                !
 ! D76   D(26,12,13,15)       -176.6783         estimate D2E/DX2                !
 ! D77   D(7,13,15,16)         -67.1594         Frozen                          !
 ! D78   D(12,13,15,16)        175.5043         estimate D2E/DX2                !
 ! D79   D(14,13,15,16)         57.9805         estimate D2E/DX2                !
 ! D80   D(13,15,16,4)           8.6248         estimate D2E/DX2                !
 ! D81   D(13,15,16,27)       -171.1188         estimate D2E/DX2                !
 --------------------------------------------------------------------------------
 Trust Radius=3.00D-01 FncErr=1.00D-07 GrdErr=1.00D-07 EigMax=2.50D+02 EigMin=1.00D-04
 Number of steps in this run=     20 maximum allowed number of steps=    162.
 GradGradGradGradGradGradGradGradGradGradGradGradGradGradGradGradGradGrad

                          Input orientation:                          
 ---------------------------------------------------------------------
 Center     Atomic      Atomic             Coordinates (Angstroms)
 Number     Number       Type             X           Y           Z
 ---------------------------------------------------------------------
      1          8           0       -4.027220    0.666420   -0.193370
      2          7           0       -3.251090   -0.276270   -0.033450
      3          8           0       -3.609030   -1.439090    0.144960
      4          6           0       -1.754240    0.002870   -0.052360
      5          6           0       -1.370100    1.335410    0.130500
      6          7           0       -0.083010    1.798330    0.219560
      7          6           0        1.195520    1.025930    0.273960
      8          1           0        1.856260    1.596270    0.977370
      9          6           0        1.966250    0.941920   -1.067210
     10          6           0        3.376820    0.376650   -0.813490
     11          6           0        3.310790   -0.972800   -0.080900
     12          6           0        2.456480   -0.876950    1.201560
     13          6           0        1.021190   -0.368180    0.895270
     14          1           0        0.467450   -0.309510    1.861610
     15          7           0        0.369060   -1.332150    0.005460
     16          6           0       -0.870890   -1.161690   -0.317100
     17          1           0       -2.161270    2.092480    0.260830
     18          1           0        0.152130    2.759980   -0.037780
     19          1           0        1.419790    0.291040   -1.782480
     20          1           0        2.055170    1.951460   -1.521730
     21          1           0        3.916030    0.255150   -1.778400
     22          1           0        3.951310    1.096030   -0.188110
     23          1           0        2.866480   -1.733550   -0.761780
     24          1           0        4.337390   -1.313590    0.176320
     25          1           0        2.395440   -1.880720    1.676370
     26          1           0        2.947310   -0.190580    1.923000
     27          1           0       -1.375030   -1.974840   -0.861580
 ---------------------------------------------------------------------
                    Distance matrix (angstroms):
                    1          2          3          4          5
     1  O    0.000000
     2  N    1.231510   0.000000
     3  O    2.173137   1.229675   0.000000
     4  C    2.372050   1.522773   2.357632   0.000000
     5  C    2.759117   2.482441   3.565230   1.398808   0.000000
     6  N    4.124139   3.795354   4.787407   2.467920   1.370703
     7  C    5.255916   4.643551   5.401543   3.139143   2.588197
     8  H    6.070469   5.532919   6.306799   4.078600   3.345839
     9  C    6.063100   5.456490   6.182420   3.969103   3.566592
    10  C    7.435612   6.705517   7.281321   5.200654   4.933922
    11  C    7.519713   6.598915   6.939189   5.158224   5.223337
    12  C    6.809272   5.870470   6.182460   4.480688   4.548013
    13  C    5.267065   4.373025   4.811315   2.956128   3.034034
    14  H    5.037603   4.173715   4.565143   2.949028   3.013153
    15  N    4.833331   3.771191   3.981971   2.508789   3.186878
    16  C    3.649618   2.555343   2.790674   1.485461   2.585549
    17  H    2.392010   2.623983   3.818563   2.151797   1.102765
    18  H    4.676983   4.560783   5.640205   3.352031   2.091627
    19  H    5.686484   5.019768   5.656625   3.626406   3.540295
    20  H    6.356991   5.944254   6.808586   4.524119   3.852513
    21  H    8.110283   7.395598   7.949609   5.932522   5.723114
    22  H    7.990090   7.333600   7.981009   5.810915   5.336311
    23  H    7.321615   6.330781   6.545312   4.986931   5.306910
    24  H    8.603709   7.661923   7.947473   6.236451   6.292435
    25  H    7.157822   6.114004   6.212400   4.874040   5.187726
    26  H    7.338770   6.500400   6.906938   5.103336   4.917492
    27  H    3.802219   2.662807   2.508168   2.170247   3.455720
                    6          7          8          9         10
     6  N    0.000000
     7  C    1.494724   0.000000
     8  H    2.091859   1.121004   0.000000
     9  C    2.566843   1.549135   2.149553   0.000000
    10  C    3.880566   2.522337   2.647028   1.540653   0.000000
    11  C    4.391733   2.931760   3.136194   2.539045   1.536901
    12  C    3.817127   2.464024   2.554866   2.948886   2.545381
    13  C    2.523808   1.536216   2.136152   2.541816   3.003935
    14  H    2.728062   2.198663   2.518466   3.520009   4.011410
    15  N    3.170191   2.513100   3.425203   2.978763   3.554898
    16  C    3.109739   3.066771   4.088929   3.610707   4.544880
    17  H    2.099379   3.522178   4.110985   4.485967   5.896497
    18  H    1.022881   2.047626   2.299741   2.766966   4.084191
    19  H    2.922070   2.195292   3.083975   1.110799   2.185460
    20  H    2.761766   2.195474   2.532040   1.110705   2.174486
    21  H    4.729225   3.493917   3.692631   2.186112   1.112008
    22  H    4.115235   2.795139   2.449044   2.176472   1.112945
    23  H    4.704965   3.388155   3.890101   2.839338   2.171650
    24  H    5.406094   3.918448   3.907041   3.500857   2.181589
    25  H    4.669092   3.443135   3.587308   3.959638   3.501175
    26  H    4.005036   2.695922   2.297268   3.344606   2.827473
    27  H    4.132190   4.111180   5.155172   4.440037   5.302065
                   11         12         13         14         15
    11  C    0.000000
    12  C    1.543935   0.000000
    13  C    2.561394   1.553293   0.000000
    14  H    3.506833   2.171151   1.115295   0.000000
    15  N    2.964855   2.448507   1.465017   2.121501   0.000000
    16  C    4.192603   3.668623   2.383163   2.695207   1.292508
    17  H    6.281414   5.570108   4.072519   3.904129   4.265662
    18  H    4.890055   4.480318   3.378052   3.623379   4.098104
    19  H    2.840519   3.368000   2.786359   3.814053   2.633535
    20  H    3.493404   3.946804   3.505957   4.368046   3.994668
    21  H    2.180753   3.506009   3.989630   5.045911   4.275824
    22  H    2.168367   2.838723   3.450105   4.279506   4.331979
    23  H    1.113440   2.180956   2.831103   3.829544   2.643272
    24  H    1.111849   2.186228   3.522481   4.338757   3.972050
    25  H    2.179491   1.112081   2.187797   2.494025   2.683111
    26  H    2.181651   1.110177   2.190367   2.483469   3.409914
    27  H    4.854941   4.488026   3.377832   3.685623   2.051014
                   16         17         18         19         20
    16  C    0.000000
    17  H    3.548057   0.000000
    18  H    4.062522   2.426220   0.000000
    19  H    3.083014   4.499366   3.278201   0.000000
    20  H    4.438994   4.579932   2.545068   1.796856   0.000000
    21  H    5.201676   6.668419   4.844675   2.496501   2.531037
    22  H    5.326120   6.209516   4.150313   3.098164   2.470961
    23  H    3.806928   6.400196   5.299404   2.689555   3.849032
    24  H    5.233805   7.337645   5.844332   3.863175   4.330410
    25  H    3.893564   6.209161   5.432020   4.199057   5.002922
    26  H    4.532081   5.837188   4.512593   4.036813   4.153362
    27  H    1.100831   4.291977   5.042756   3.713932   5.255274
                   21         22         23         24         25
    21  H    0.000000
    22  H    1.799263   0.000000
    23  H    2.467792   3.084230   0.000000
    24  H    2.541539   2.467415   1.794429   0.000000
    25  H    4.337000   3.841622   2.487592   2.518523   0.000000
    26  H    3.851942   2.668364   3.097634   2.498873   1.794982
    27  H    5.814528   6.184958   4.249540   5.843478   4.546041
                   26         27
    26  H    0.000000
    27  H    5.442434   0.000000
 Symmetry turned off by external request.
 Stoichiometry    C9H13N3O2
 Framework group  C1[X(C9H13N3O2)]
 Deg. of freedom    75
 Full point group                 C1      NOp   1
 Rotational constants (GHZ):           1.6735995           0.4015545           0.3556961
 Standard basis: 6-31G(d) (6D, 7F)
   236 basis functions,   444 primitive gaussians,   236 cartesian basis functions
    52 alpha electrons       52 beta electrons
       nuclear repulsion energy       917.8098756334 Hartrees.
 NAtoms=   27 NActive=   27 NUniq=   27 SFac= 1.00D+00 NAtFMM=   60 NAOKFM=F Big=F
 Integral buffers will be    131072 words long.
 Raffenetti 1 integral format.
 Two-electron integral symmetry is turned off.
 One-electron integrals computed using PRISM.
 NBasis=   236 RedAO= T EigKep=  1.43D-03  NBF=   236
 NBsUse=   236 1.00D-06 EigRej= -1.00D+00 NBFU=   236
 ExpMin= 1.61D-01 ExpMax= 5.48D+03 ExpMxC= 8.25D+02 IAcc=3 IRadAn=         5 AccDes= 0.00D+00
 Harris functional with IExCor=  205 and IRadAn=       5 diagonalized for initial guess.
 HarFok:  IExCor=  205 AccDes= 0.00D+00 IRadAn=         5 IDoV= 1 UseB2=F ITyADJ=14
 ICtDFT=  3500011 ScaDFX=  1.000000  1.000000  1.000000  1.000000
 FoFCou: FMM=F IPFlag=           0 FMFlag=      100000 FMFlg1=           0
         NFxFlg=           0 DoJE=T BraDBF=F KetDBF=T FulRan=T
         wScrn=  0.000000 ICntrl=       500 IOpCl=  0 I1Cent=   200000004 NGrid=           0
         NMat0=    1 NMatS0=      1 NMatT0=    0 NMatD0=    1 NMtDS0=    0 NMtDT0=    0
 Symmetry not used in FoFCou.
 Keep R1 ints in memory in canonical form, NReq=397720213.
 Requested convergence on RMS density matrix=1.00D-08 within 128 cycles.
 Requested convergence on MAX density matrix=1.00D-06.
 Requested convergence on             energy=1.00D-06.
 No special actions if energy rises.
 SCF Done:  E(RHF) =  -661.280797960     A.U. after   17 cycles
            NFock= 17  Conv=0.48D-08     -V/T= 2.0037
 ExpMin= 1.61D-01 ExpMax= 5.48D+03 ExpMxC= 8.25D+02 IAcc=3 IRadAn=         5 AccDes= 0.00D+00
 HarFok:  IExCor=  205 AccDes= 0.00D+00 IRadAn=         5 IDoV=-2 UseB2=F ITyADJ=14
 ICtDFT= 12500011 ScaDFX=  1.000000  1.000000  1.000000  1.000000
 Range of M.O.s used for correlation:    15   236
 NBasis=   236 NAE=    52 NBE=    52 NFC=    14 NFV=     0
 NROrb=    222 NOA=    38 NOB=    38 NVA=   184 NVB=   184
 Fully direct method using O(ONN) memory.
 JobTyp=1 Pass  1:  I=  15 to  52 NPSUse=  4 ParTrn=T ParDer=T DoDerP=T.
 Spin components of T(2) and E(2):
     alpha-alpha T2 =       0.9194547140D-01 E2=     -0.2717547629D+00
     alpha-beta  T2 =       0.4997609443D+00 E2=     -0.1493853681D+01
     beta-beta   T2 =       0.9194547140D-01 E2=     -0.2717547629D+00
 ANorm=    0.1297556121D+01
 E2 =    -0.2037363206D+01 EUMP2 =    -0.66331816116657D+03
          IDoAtm=111111111111111111111111111
          Differentiating once with respect to electric field.
                with respect to dipole field.
          Differentiating once with respect to nuclear coordinates.
 Keep R1 ints in memory in canonical form, NReq=397723379.
          There are     1 degrees of freedom in the 1st order CPHF.  IDoFFX=0 NUNeed=     1.
 LinEq1:  Iter=  0 NonCon=     1 RMS=4.59D-03 Max=1.07D-01 NDo=     1
 AX will form     1 AO Fock derivatives at one time.
 LinEq1:  Iter=  1 NonCon=     1 RMS=1.56D-03 Max=2.87D-02 NDo=     1
 LinEq1:  Iter=  2 NonCon=     1 RMS=6.38D-04 Max=1.69D-02 NDo=     1
 LinEq1:  Iter=  3 NonCon=     1 RMS=2.92D-04 Max=8.79D-03 NDo=     1
 LinEq1:  Iter=  4 NonCon=     1 RMS=8.99D-05 Max=2.08D-03 NDo=     1
 LinEq1:  Iter=  5 NonCon=     1 RMS=3.71D-05 Max=1.83D-03 NDo=     1
 LinEq1:  Iter=  6 NonCon=     1 RMS=1.52D-05 Max=5.89D-04 NDo=     1
 LinEq1:  Iter=  7 NonCon=     1 RMS=5.83D-06 Max=9.98D-05 NDo=     1
 LinEq1:  Iter=  8 NonCon=     1 RMS=2.32D-06 Max=5.64D-05 NDo=     1
 LinEq1:  Iter=  9 NonCon=     1 RMS=8.49D-07 Max=2.35D-05 NDo=     1
 LinEq1:  Iter= 10 NonCon=     1 RMS=4.24D-07 Max=1.55D-05 NDo=     1
 LinEq1:  Iter= 11 NonCon=     1 RMS=1.54D-07 Max=5.79D-06 NDo=     1
 LinEq1:  Iter= 12 NonCon=     1 RMS=5.41D-08 Max=7.79D-07 NDo=     1
 LinEq1:  Iter= 13 NonCon=     1 RMS=1.66D-08 Max=2.86D-07 NDo=     1
 LinEq1:  Iter= 14 NonCon=     1 RMS=5.18D-09 Max=1.14D-07 NDo=     1
 LinEq1:  Iter= 15 NonCon=     1 RMS=1.93D-09 Max=4.65D-08 NDo=     1
 LinEq1:  Iter= 16 NonCon=     1 RMS=7.48D-10 Max=1.32D-08 NDo=     1
 LinEq1:  Iter= 17 NonCon=     1 RMS=2.50D-10 Max=4.15D-09 NDo=     1
 LinEq1:  Iter= 18 NonCon=     1 RMS=8.80D-11 Max=1.08D-09 NDo=     1
 LinEq1:  Iter= 19 NonCon=     0 RMS=2.98D-11 Max=4.04D-10 NDo=     1
 Linear equations converged to 1.000D-10 1.000D-09 after    19 iterations.
 End of Minotr F.D. properties file   721 does not exist.
 End of Minotr F.D. properties file   722 does not exist.
 End of Minotr F.D. properties file   788 does not exist.

 **********************************************************************

            Population analysis using the SCF Density.

 **********************************************************************

 Alpha  occ. eigenvalues --  -20.59925 -20.59469 -15.85226 -15.63259 -15.56828
 Alpha  occ. eigenvalues --  -11.35825 -11.30559 -11.30060 -11.29988 -11.27695
 Alpha  occ. eigenvalues --  -11.24608 -11.23866 -11.23391 -11.22844  -1.58539
 Alpha  occ. eigenvalues --   -1.38080  -1.28549  -1.22726  -1.13305  -1.08442
 Alpha  occ. eigenvalues --   -1.01802  -1.00679  -0.93626  -0.88966  -0.84915
 Alpha  occ. eigenvalues --   -0.81578  -0.78056  -0.76994  -0.74314  -0.71115
 Alpha  occ. eigenvalues --   -0.70537  -0.69585  -0.67321  -0.64404  -0.63249
 Alpha  occ. eigenvalues --   -0.61656  -0.60381  -0.57424  -0.56465  -0.54879
 Alpha  occ. eigenvalues --   -0.53616  -0.50697  -0.49561  -0.48566  -0.47773
 Alpha  occ. eigenvalues --   -0.47665  -0.46134  -0.45690  -0.43995  -0.42103
 Alpha  occ. eigenvalues --   -0.39953  -0.33693
 Alpha virt. eigenvalues --    0.07442   0.11698   0.18206   0.21322   0.23381
 Alpha virt. eigenvalues --    0.24256   0.26235   0.27825   0.28577   0.28864
 Alpha virt. eigenvalues --    0.29689   0.30969   0.31861   0.32290   0.33336
 Alpha virt. eigenvalues --    0.33792   0.34419   0.35556   0.37609   0.38617
 Alpha virt. eigenvalues --    0.40661   0.41652   0.44435   0.45247   0.45599
 Alpha virt. eigenvalues --    0.46318   0.49411   0.53168   0.57545   0.58823
 Alpha virt. eigenvalues --    0.63382   0.69069   0.69235   0.72209   0.74062
 Alpha virt. eigenvalues --    0.74899   0.75714   0.75856   0.77778   0.79195
 Alpha virt. eigenvalues --    0.80728   0.83500   0.84952   0.85326   0.88041
 Alpha virt. eigenvalues --    0.89120   0.90291   0.90630   0.91728   0.93893
 Alpha virt. eigenvalues --    0.95030   0.97210   0.98777   1.00436   1.01834
 Alpha virt. eigenvalues --    1.02994   1.05075   1.06494   1.07068   1.08556
 Alpha virt. eigenvalues --    1.09832   1.10482   1.11237   1.11939   1.13256
 Alpha virt. eigenvalues --    1.13814   1.14153   1.15320   1.16257   1.17164
 Alpha virt. eigenvalues --    1.17689   1.19718   1.21097   1.21899   1.22440
 Alpha virt. eigenvalues --    1.23405   1.24258   1.25449   1.27421   1.28240
 Alpha virt. eigenvalues --    1.29852   1.30964   1.33301   1.36074   1.39630
 Alpha virt. eigenvalues --    1.41899   1.45278   1.46220   1.48235   1.52397
 Alpha virt. eigenvalues --    1.53455   1.54988   1.60497   1.63381   1.64037
 Alpha virt. eigenvalues --    1.68548   1.70720   1.72784   1.73806   1.76830
 Alpha virt. eigenvalues --    1.77875   1.78558   1.84331   1.88922   1.91870
 Alpha virt. eigenvalues --    1.92506   1.96163   1.96975   1.99210   2.00169
 Alpha virt. eigenvalues --    2.02935   2.04900   2.05414   2.09065   2.12395
 Alpha virt. eigenvalues --    2.13120   2.14149   2.17751   2.18709   2.19599
 Alpha virt. eigenvalues --    2.20674   2.22027   2.24258   2.25190   2.26301
 Alpha virt. eigenvalues --    2.29319   2.32305   2.33149   2.35437   2.36122
 Alpha virt. eigenvalues --    2.38877   2.39242   2.41234   2.42910   2.46085
 Alpha virt. eigenvalues --    2.48671   2.50580   2.51049   2.56686   2.57299
 Alpha virt. eigenvalues --    2.60770   2.63046   2.65850   2.68553   2.69156
 Alpha virt. eigenvalues --    2.69701   2.70187   2.74425   2.76302   2.82006
 Alpha virt. eigenvalues --    2.84625   2.87037   2.89810   2.91343   2.96084
 Alpha virt. eigenvalues --    2.96837   2.98056   3.02049   3.03875   3.05730
 Alpha virt. eigenvalues --    3.07209   3.12891   3.18941   3.21778   3.26892
 Alpha virt. eigenvalues --    3.30000   3.33778   3.36932   3.43151   3.59802
 Alpha virt. eigenvalues --    4.09183   4.22089   4.30460   4.33363   4.43270
 Alpha virt. eigenvalues --    4.52620   4.59704   4.60290   4.70848   4.77190
 Alpha virt. eigenvalues --    4.96420   4.99252   5.02906   5.09959
          Condensed to atoms (all electrons):
               1          2          3          4          5          6
     1  O    8.328269   0.305476  -0.087339  -0.086797   0.008369   0.000438
     2  N    0.305476   5.700690   0.312877   0.258790  -0.044893   0.000950
     3  O   -0.087339   0.312877   8.294728  -0.079995   0.003169  -0.000016
     4  C   -0.086797   0.258790  -0.079995   5.247663   0.567821  -0.049027
     5  C    0.008369  -0.044893   0.003169   0.567821   4.667061   0.308150
     6  N    0.000438   0.000950  -0.000016  -0.049027   0.308150   7.188521
     7  C    0.000001  -0.000092   0.000003   0.004100  -0.029345   0.199314
     8  H   -0.000000   0.000002  -0.000000  -0.000174   0.002301  -0.049728
     9  C    0.000000  -0.000003  -0.000000   0.000461   0.001715  -0.056520
    10  C   -0.000000   0.000000  -0.000000  -0.000019  -0.000065   0.003346
    11  C   -0.000000  -0.000000  -0.000000  -0.000014   0.000016  -0.000155
    12  C   -0.000000   0.000002  -0.000000  -0.000103  -0.000135   0.003606
    13  C   -0.000002  -0.000023  -0.000022  -0.010214   0.000422  -0.044569
    14  H    0.000001  -0.000051  -0.000005   0.002793   0.004668  -0.005512
    15  N   -0.000018   0.001781   0.000101  -0.062135  -0.003601   0.001999
    16  C    0.001729  -0.026051   0.004389   0.317442  -0.039214  -0.001163
    17  H    0.010887  -0.003721   0.000097  -0.028064   0.378255  -0.033271
    18  H    0.000009  -0.000038   0.000000   0.001103  -0.024407   0.328400
    19  H    0.000000   0.000000   0.000000  -0.000801   0.000645   0.000632
    20  H    0.000000  -0.000000   0.000000  -0.000026   0.000023  -0.001650
    21  H   -0.000000  -0.000000   0.000000   0.000000   0.000001  -0.000059
    22  H   -0.000000   0.000000  -0.000000  -0.000000  -0.000002  -0.000097
    23  H    0.000000  -0.000000   0.000000   0.000024  -0.000001  -0.000024
    24  H    0.000000   0.000000   0.000000   0.000000  -0.000000   0.000004
    25  H    0.000000  -0.000000   0.000000   0.000019  -0.000001  -0.000071
    26  H    0.000000  -0.000000   0.000000   0.000006  -0.000001  -0.000067
    27  H   -0.000026   0.000062   0.004501  -0.069059   0.002207   0.000051
               7          8          9         10         11         12
     1  O    0.000001  -0.000000   0.000000  -0.000000  -0.000000  -0.000000
     2  N   -0.000092   0.000002  -0.000003   0.000000  -0.000000   0.000002
     3  O    0.000003  -0.000000  -0.000000  -0.000000  -0.000000  -0.000000
     4  C    0.004100  -0.000174   0.000461  -0.000019  -0.000014  -0.000103
     5  C   -0.029345   0.002301   0.001715  -0.000065   0.000016  -0.000135
     6  N    0.199314  -0.049728  -0.056520   0.003346  -0.000155   0.003606
     7  C    5.004911   0.416565   0.340900  -0.049366  -0.007706  -0.064127
     8  H    0.416565   0.547250  -0.060471   0.001429  -0.000317  -0.002895
     9  C    0.340900  -0.060471   5.180962   0.317965  -0.053077  -0.006149
    10  C   -0.049366   0.001429   0.317965   5.126903   0.332737  -0.060193
    11  C   -0.007706  -0.000317  -0.053077   0.332737   5.124069   0.330634
    12  C   -0.064127  -0.002895  -0.006149  -0.060193   0.330634   5.137119
    13  C    0.331525  -0.040132  -0.050701  -0.001678  -0.047941   0.368150
    14  H   -0.040351  -0.000941   0.003862  -0.000390   0.003952  -0.040726
    15  N   -0.058279   0.004031  -0.012815   0.001466  -0.007751  -0.074138
    16  C   -0.002374   0.000020  -0.000859  -0.000031   0.000005   0.002526
    17  H    0.001459  -0.000023  -0.000063   0.000001   0.000000   0.000001
    18  H   -0.028654  -0.002732   0.000850  -0.000121   0.000011  -0.000137
    19  H   -0.035038   0.004093   0.386064  -0.032642  -0.002257   0.000622
    20  H   -0.041630  -0.001840   0.397244  -0.037361   0.004137  -0.000362
    21  H    0.004045  -0.000080  -0.035837   0.400124  -0.035849   0.004214
    22  H   -0.004234   0.003512  -0.045670   0.395954  -0.045614  -0.001233
    23  H    0.000429   0.000033  -0.002001  -0.040104   0.396703  -0.036636
    24  H   -0.000141  -0.000099   0.004394  -0.038479   0.400303  -0.037870
    25  H    0.004983  -0.000004  -0.000371   0.004096  -0.033911   0.395434
    26  H   -0.004461   0.001592   0.001046  -0.002406  -0.042304   0.394663
    27  H   -0.000405   0.000009  -0.000058   0.000005   0.000005  -0.000021
              13         14         15         16         17         18
     1  O   -0.000002   0.000001  -0.000018   0.001729   0.010887   0.000009
     2  N   -0.000023  -0.000051   0.001781  -0.026051  -0.003721  -0.000038
     3  O   -0.000022  -0.000005   0.000101   0.004389   0.000097   0.000000
     4  C   -0.010214   0.002793  -0.062135   0.317442  -0.028064   0.001103
     5  C    0.000422   0.004668  -0.003601  -0.039214   0.378255  -0.024407
     6  N   -0.044569  -0.005512   0.001999  -0.001163  -0.033271   0.328400
     7  C    0.331525  -0.040351  -0.058279  -0.002374   0.001459  -0.028654
     8  H   -0.040132  -0.000941   0.004031   0.000020  -0.000023  -0.002732
     9  C   -0.050701   0.003862  -0.012815  -0.000859  -0.000063   0.000850
    10  C   -0.001678  -0.000390   0.001466  -0.000031   0.000001  -0.000121
    11  C   -0.047941   0.003952  -0.007751   0.000005   0.000000   0.000011
    12  C    0.368150  -0.040726  -0.074138   0.002526   0.000001  -0.000137
    13  C    5.022963   0.402743   0.241308  -0.070278  -0.000047   0.003701
    14  H    0.402743   0.518583  -0.035935  -0.004690   0.000060   0.000011
    15  N    0.241308  -0.035935   6.935317   0.589137  -0.000053  -0.000122
    16  C   -0.070278  -0.004690   0.589137   4.692326   0.001670  -0.000193
    17  H   -0.000047   0.000060  -0.000053   0.001670   0.388518  -0.001964
    18  H    0.003701   0.000011  -0.000122  -0.000193  -0.001964   0.324954
    19  H   -0.006238   0.000065   0.006944   0.002522   0.000011  -0.000128
    20  H    0.003868  -0.000049   0.000079  -0.000031  -0.000002   0.002843
    21  H   -0.000379   0.000009  -0.000030   0.000002  -0.000000  -0.000000
    22  H    0.000321  -0.000044   0.000003  -0.000001   0.000000   0.000002
    23  H   -0.005862   0.000008   0.006757   0.000064   0.000000   0.000000
    24  H    0.004145  -0.000058   0.000042   0.000005   0.000000  -0.000000
    25  H   -0.034467  -0.002659   0.000789  -0.000059  -0.000000   0.000002
    26  H   -0.044794  -0.000897   0.004180  -0.000055   0.000000  -0.000001
    27  H    0.004928  -0.000169  -0.038987   0.403126  -0.000059   0.000002
              19         20         21         22         23         24
     1  O    0.000000   0.000000  -0.000000  -0.000000   0.000000   0.000000
     2  N    0.000000  -0.000000  -0.000000   0.000000  -0.000000   0.000000
     3  O    0.000000   0.000000   0.000000  -0.000000   0.000000   0.000000
     4  C   -0.000801  -0.000026   0.000000  -0.000000   0.000024   0.000000
     5  C    0.000645   0.000023   0.000001  -0.000002  -0.000001  -0.000000
     6  N    0.000632  -0.001650  -0.000059  -0.000097  -0.000024   0.000004
     7  C   -0.035038  -0.041630   0.004045  -0.004234   0.000429  -0.000141
     8  H    0.004093  -0.001840  -0.000080   0.003512   0.000033  -0.000099
     9  C    0.386064   0.397244  -0.035837  -0.045670  -0.002001   0.004394
    10  C   -0.032642  -0.037361   0.400124   0.395954  -0.040104  -0.038479
    11  C   -0.002257   0.004137  -0.035849  -0.045614   0.396703   0.400303
    12  C    0.000622  -0.000362   0.004214  -0.001233  -0.036636  -0.037870
    13  C   -0.006238   0.003868  -0.000379   0.000321  -0.005862   0.004145
    14  H    0.000065  -0.000049   0.000009  -0.000044   0.000008  -0.000058
    15  N    0.006944   0.000079  -0.000030   0.000003   0.006757   0.000042
    16  C    0.002522  -0.000031   0.000002  -0.000001   0.000064   0.000005
    17  H    0.000011  -0.000002  -0.000000   0.000000   0.000000   0.000000
    18  H   -0.000128   0.002843  -0.000000   0.000002   0.000000  -0.000000
    19  H    0.507095  -0.023992  -0.002593   0.003759   0.001642  -0.000070
    20  H   -0.023992   0.549898  -0.002619  -0.002962  -0.000049  -0.000090
    21  H   -0.002593  -0.002619   0.526188  -0.024700  -0.002814  -0.002062
    22  H    0.003759  -0.002962  -0.024700   0.568899   0.004062  -0.003595
    23  H    0.001642  -0.000049  -0.002814   0.004062   0.509759  -0.024997
    24  H   -0.000070  -0.000090  -0.002062  -0.003595  -0.024997   0.541059
    25  H   -0.000027   0.000011  -0.000086  -0.000082  -0.002089  -0.002381
    26  H    0.000023  -0.000035  -0.000074   0.002463   0.003821  -0.002763
    27  H    0.000078   0.000000  -0.000000   0.000000  -0.000021  -0.000000
              25         26         27
     1  O    0.000000   0.000000  -0.000026
     2  N   -0.000000  -0.000000   0.000062
     3  O    0.000000   0.000000   0.004501
     4  C    0.000019   0.000006  -0.069059
     5  C   -0.000001  -0.000001   0.002207
     6  N   -0.000071  -0.000067   0.000051
     7  C    0.004983  -0.004461  -0.000405
     8  H   -0.000004   0.001592   0.000009
     9  C   -0.000371   0.001046  -0.000058
    10  C    0.004096  -0.002406   0.000005
    11  C   -0.033911  -0.042304   0.000005
    12  C    0.395434   0.394663  -0.000021
    13  C   -0.034467  -0.044794   0.004928
    14  H   -0.002659  -0.000897  -0.000169
    15  N    0.000789   0.004180  -0.038987
    16  C   -0.000059  -0.000055   0.403126
    17  H   -0.000000   0.000000  -0.000059
    18  H    0.000002  -0.000001   0.000002
    19  H   -0.000027   0.000023   0.000078
    20  H    0.000011  -0.000035   0.000000
    21  H   -0.000086  -0.000074  -0.000000
    22  H   -0.000082   0.002463   0.000000
    23  H   -0.002089   0.003821  -0.000021
    24  H   -0.002381  -0.002763  -0.000000
    25  H    0.510189  -0.023100  -0.000010
    26  H   -0.023100   0.560985   0.000001
    27  H   -0.000010   0.000001   0.458618
 Mulliken charges:
               1
     1  O   -0.480997
     2  N    0.494242
     3  O   -0.452488
     4  C   -0.013797
     5  C    0.196841
     6  N   -0.793481
     7  C    0.057969
     8  H    0.178598
     9  C   -0.310868
    10  C   -0.321172
    11  C   -0.315676
    12  C   -0.312243
    13  C   -0.026726
    14  H    0.195724
    15  N   -0.500070
    16  C    0.130033
    17  H    0.286310
    18  H    0.396608
    19  H    0.189591
    20  H    0.154596
    21  H    0.172599
    22  H    0.149258
    23  H    0.191296
    24  H    0.162652
    25  H    0.183796
    26  H    0.152179
    27  H    0.235225
 Sum of Mulliken charges =  -0.00000
 Mulliken charges with hydrogens summed into heavy atoms:
               1
     1  O   -0.480997
     2  N    0.494242
     3  O   -0.452488
     4  C   -0.013797
     5  C    0.483151
     6  N   -0.396873
     7  C    0.236567
     9  C    0.033320
    10  C    0.000685
    11  C    0.038272
    12  C    0.023731
    13  C    0.168999
    15  N   -0.500070
    16  C    0.365258
 Electronic spatial extent (au):  <R**2>=           3120.0719
 Charge=             -0.0000 electrons
 Dipole moment (field-independent basis, Debye):
    X=              5.3017    Y=              4.4955    Z=              0.1246  Tot=              6.9522
 Quadrupole moment (field-independent basis, Debye-Ang):
   XX=           -105.1076   YY=            -80.1778   ZZ=            -82.3856
   XY=             -1.6628   XZ=              0.6040   YZ=              0.8390
 Traceless Quadrupole moment (field-independent basis, Debye-Ang):
   XX=            -15.8839   YY=              9.0459   ZZ=              6.8381
   XY=             -1.6628   XZ=              0.6040   YZ=              0.8390
 Octapole moment (field-independent basis, Debye-Ang**2):
  XXX=             99.2250  YYY=             36.0872  ZZZ=             -4.9545  XYY=             -2.3189
  XXY=             11.3658  XXZ=              1.2129  XZZ=             -7.5528  YZZ=             -3.1390
  YYZ=             -4.2851  XYZ=             -5.5319
 Hexadecapole moment (field-independent basis, Debye-Ang**3):
 XXXX=          -3544.7326 YYYY=           -611.2093 ZZZZ=           -308.1137 XXXY=            -35.9694
 XXXZ=              1.4686 YYYX=            -14.8174 YYYZ=             32.5897 ZZZX=              6.5572
 ZZZY=             35.5592 XXYY=           -652.0065 XXZZ=           -545.6219 YYZZ=           -164.7347
 XXYZ=             29.0207 YYXZ=              9.7623 ZZXY=              2.7060
 N-N= 9.178098756334D+02 E-N=-3.381637432198D+03  KE= 6.588675130717D+02
 Calling FoFJK, ICntrl=  10002127 FMM=F ISym2X=0 I1Cent= 0 IOpClX= 0 NMat=1 NMatS=1 NMatT=0.
 -------------------------------------------------------------------
 Center     Atomic                   Forces (Hartrees/Bohr)
 Number     Number              X              Y              Z
 -------------------------------------------------------------------
      1        8          -0.006614080    0.015818949   -0.001467024
      2        7           0.039585203    0.013610296   -0.000507400
      3        8           0.001610280   -0.020003336    0.001090977
      4        6          -0.002694743    0.010044617    0.007248812
      5        6           0.003381572   -0.017581802   -0.004207065
      6        7           0.015356401   -0.009759656   -0.004998888
      7        6          -0.004891402    0.005539266    0.002124946
      8        1          -0.010154566   -0.002507469   -0.007476512
      9        6          -0.003869719   -0.000028990   -0.002112463
     10        6           0.002823838   -0.000788853    0.001038955
     11        6          -0.000980170   -0.004797507   -0.001913568
     12        6           0.000793942   -0.009080837   -0.002015137
     13        6           0.008748564   -0.001310637    0.004583003
     14        1           0.000927673    0.003339159   -0.010324496
     15        7          -0.000050636    0.000269291    0.001476953
     16        6          -0.020423530    0.008666207    0.004156049
     17        1           0.007638633   -0.006381764   -0.005568565
     18        1          -0.017653069   -0.001154705    0.006133444
     19        1           0.003070254    0.006626229    0.007056373
     20        1          -0.003269858   -0.007069051    0.003328339
     21        1          -0.004379224    0.003362453    0.009308362
     22        1          -0.003965048   -0.004705910   -0.006973486
     23        1           0.003943399    0.007030606    0.008644294
     24        1          -0.009369641    0.002382953   -0.002419564
     25        1          -0.000772668    0.010296113   -0.003485363
     26        1          -0.004778580   -0.005216479   -0.003891162
     27        1           0.005987175    0.003400855    0.001170186
 -------------------------------------------------------------------
 Cartesian Forces:  Max     0.039585203 RMS     0.008415457

 GradGradGradGradGradGradGradGradGradGradGradGradGradGradGradGradGradGrad
 Berny optimization.
 FormGI is forming the generalized inverse of G from B-inverse, IUseBI=4.
 Internal  Forces:  Max     0.035731549 RMS     0.006787276
 Search for a local minimum.
 Step number   1 out of a maximum of   20
 All quantities printed in internal units (Hartrees-Bohrs-Radians)
 Mixed Optimization -- RFO/linear search
 Second derivative matrix not updated -- first step.
 ITU=  0
     Eigenvalues ---    0.00230   0.00770   0.01051   0.01149   0.01200
     Eigenvalues ---    0.01480   0.01532   0.01606   0.01977   0.02021
     Eigenvalues ---    0.02095   0.02687   0.03663   0.04507   0.04695
     Eigenvalues ---    0.04838   0.05079   0.05138   0.05304   0.05889
     Eigenvalues ---    0.06265   0.07215   0.07700   0.07723   0.07868
     Eigenvalues ---    0.07994   0.08049   0.08052   0.10458   0.11737
     Eigenvalues ---    0.12267   0.13452   0.15225   0.15698   0.15990
     Eigenvalues ---    0.16000   0.20089   0.21976   0.23190   0.24979
     Eigenvalues ---    0.25000   0.25000   0.25365   0.26200   0.26651
     Eigenvalues ---    0.27981   0.28083   0.28468   0.30101   0.31462
     Eigenvalues ---    0.31704   0.32046   0.32238   0.32290   0.32381
     Eigenvalues ---    0.32388   0.32405   0.32516   0.32525   0.32581
     Eigenvalues ---    0.33378   0.33432   0.33590   0.35353   0.43882
     Eigenvalues ---    0.44373   0.49244   0.67071   0.90460   0.91222
     Eigenvalues --- 1000.000001000.000001000.000001000.000001000.00000
     Eigenvalues --- 1000.000001000.000001000.000001000.000001000.00000
     Eigenvalues --- 1000.000001000.000001000.000001000.000001000.00000
     Eigenvalues --- 1000.000001000.000001000.000001000.000001000.00000
     Eigenvalues --- 1000.000001000.000001000.000001000.000001000.00000
     Eigenvalues --- 1000.000001000.000001000.000001000.000001000.00000
     Eigenvalues --- 1000.000001000.000001000.000001000.000001000.00000
     Eigenvalues --- 1000.000001000.000001000.000001000.000001000.00000
     Eigenvalues --- 1000.000001000.000001000.000001000.000001000.00000
     Eigenvalues --- 1000.000001000.000001000.000001000.000001000.00000
     Eigenvalues --- 1000.000001000.000001000.000001000.000001000.00000
     Eigenvalues --- 1000.000001000.000001000.000001000.000001000.00000
     Eigenvalues --- 1000.000001000.000001000.000001000.000001000.00000
     Eigenvalues --- 1000.000001000.000001000.000001000.000001000.00000
     Eigenvalues --- 1000.000001000.000001000.000001000.000001000.00000
     Eigenvalues --- 1000.000001000.000001000.000001000.000001000.00000
     Eigenvalues --- 1000.000001000.000001000.000001000.000001000.00000
     Eigenvalues --- 1000.000001000.000001000.000001000.000001000.00000
     Eigenvalues --- 1000.00000
 RFO step:  Lambda=-2.33534748D-02 EMin= 2.30023701D-03
 Linear search not attempted -- first point.
 Iteration  1 RMS(Cart)=  0.05608970 RMS(Int)=  0.00116473
 Iteration  2 RMS(Cart)=  0.00125316 RMS(Int)=  0.00023846
 Iteration  3 RMS(Cart)=  0.00000107 RMS(Int)=  0.00023846
 Iteration  4 RMS(Cart)=  0.00000000 RMS(Int)=  0.00023846
 Iteration  1 RMS(Cart)=  0.00002971 RMS(Int)=  0.00002236
 Iteration  2 RMS(Cart)=  0.00001404 RMS(Int)=  0.00002491
 Iteration  3 RMS(Cart)=  0.00000722 RMS(Int)=  0.00002764
 Iteration  4 RMS(Cart)=  0.00000413 RMS(Int)=  0.00002928
 Iteration  5 RMS(Cart)=  0.00000263 RMS(Int)=  0.00003023
 Iteration  6 RMS(Cart)=  0.00000186 RMS(Int)=  0.00003080
 Iteration  7 RMS(Cart)=  0.00000142 RMS(Int)=  0.00003116
 Iteration  8 RMS(Cart)=  0.00000115 RMS(Int)=  0.00003141
 Iteration  9 RMS(Cart)=  0.00000097 RMS(Int)=  0.00003159
 Variable       Old X    -DE/DX   Delta X   Delta X   Delta X     New X
                                 (Linear)    (Quad)   (Total)
    R1        2.32722   0.01647   0.00000   0.01775   0.01775   2.34496
    R2        2.32375   0.01861   0.00000   0.01989   0.01989   2.34364
    R3        2.87762  -0.03573   0.00000  -0.11016  -0.11016   2.76746
    R4        2.64336  -0.03422   0.00000  -0.07372  -0.07349   2.56988
    R5        2.80711  -0.02159   0.00000  -0.06179  -0.06157   2.74554
    R6        2.59025  -0.02392   0.00000  -0.04627  -0.04617   2.54408
    R7        2.08392  -0.01052   0.00000  -0.02946  -0.02946   2.05447
    R8        2.82462  -0.01950   0.00000  -0.05408  -0.05418   2.77044
    R9        1.93296  -0.00669   0.00000  -0.01447  -0.01447   1.91850
   R10        2.11839  -0.01195   0.00000  -0.03536  -0.03536   2.08303
   R11        2.92744  -0.01293   0.00000  -0.04412  -0.04415   2.88329
   R12        2.90303  -0.00428   0.00000  -0.00830  -0.00835   2.89468
   R13        2.91141  -0.00462   0.00000  -0.01434  -0.01436   2.89706
   R14        2.09911  -0.00994   0.00000  -0.02851  -0.02851   2.07059
   R15        2.09893  -0.00805   0.00000  -0.02309  -0.02309   2.07584
   R16        2.90432  -0.00185   0.00000  -0.00721  -0.00726   2.89706
   R17        2.10139  -0.01057   0.00000  -0.03043  -0.03043   2.07096
   R18        2.10316  -0.00901   0.00000  -0.02601  -0.02601   2.07715
   R19        2.91762  -0.00910   0.00000  -0.02885  -0.02883   2.88879
   R20        2.10410  -0.01166   0.00000  -0.03373  -0.03373   2.07036
   R21        2.10109  -0.00994   0.00000  -0.02862  -0.02862   2.07247
   R22        2.93530  -0.01057   0.00000  -0.03646  -0.03644   2.89885
   R23        2.10153  -0.01074   0.00000  -0.03093  -0.03093   2.07060
   R24        2.09793  -0.00787   0.00000  -0.02253  -0.02253   2.07540
   R25        2.10760  -0.00923   0.00000  -0.02685  -0.02685   2.08075
   R26        2.76848  -0.00541   0.00000  -0.01158  -0.01187   2.75661
   R27        2.44249  -0.00600   0.00000  -0.00826  -0.00829   2.43419
   R28        2.08027  -0.00583   0.00000  -0.01624  -0.01624   2.06403
    A1        2.16428   0.00944   0.00000   0.03459   0.03385   2.19812
    A2        2.06868  -0.00190   0.00000  -0.00689  -0.00763   2.06105
    A3        2.05023  -0.00754   0.00000  -0.02754  -0.02828   2.02195
    A4        2.02968  -0.00617   0.00000  -0.02013  -0.02049   2.00919
    A5        2.02979  -0.00371   0.00000  -0.01111  -0.01150   2.01829
    A6        2.22285   0.00984   0.00000   0.02985   0.03005   2.25290
    A7        2.19949   0.00649   0.00000   0.02078   0.02109   2.22057
    A8        2.06283  -0.00306   0.00000  -0.00912  -0.00935   2.05348
    A9        2.01988  -0.00339   0.00000  -0.01087  -0.01111   2.00878
   A10        2.25368  -0.00585   0.00000  -0.02027  -0.02031   2.23336
   A11        2.11416  -0.01229   0.00000  -0.07120  -0.07152   2.04264
   A12        1.87375   0.01831   0.00000   0.09869   0.09885   1.97260
   A13        1.83806  -0.00168   0.00000  -0.01821  -0.01801   1.82004
   A14        2.00653  -0.00111   0.00000  -0.01268  -0.01265   1.99388
   A15        1.96774   0.00117   0.00000   0.00229   0.00177   1.96951
   A16        1.85208   0.00272   0.00000   0.02417   0.02399   1.87607
   A17        1.84920   0.00083   0.00000   0.01823   0.01809   1.86729
   A18        1.93627  -0.00161   0.00000  -0.00958  -0.00927   1.92700
   A19        1.91011   0.00020   0.00000  -0.00452  -0.00466   1.90545
   A20        1.92250  -0.00074   0.00000  -0.01313  -0.01310   1.90941
   A21        1.92284  -0.00168   0.00000  -0.00712  -0.00712   1.91572
   A22        1.91928  -0.00041   0.00000   0.00570   0.00565   1.92493
   A23        1.90454   0.00304   0.00000   0.02454   0.02456   1.92909
   A24        1.88438  -0.00038   0.00000  -0.00505  -0.00531   1.87907
   A25        1.94048  -0.00086   0.00000   0.00567   0.00554   1.94602
   A26        1.91893  -0.00068   0.00000  -0.00681  -0.00682   1.91211
   A27        1.90497   0.00029   0.00000  -0.00298  -0.00304   1.90193
   A28        1.91613   0.00077   0.00000   0.00711   0.00715   1.92328
   A29        1.89850   0.00172   0.00000   0.01116   0.01120   1.90970
   A30        1.88379  -0.00122   0.00000  -0.01463  -0.01472   1.86907
   A31        1.94465   0.00064   0.00000   0.00503   0.00517   1.94982
   A32        1.90241   0.00063   0.00000   0.00601   0.00595   1.90836
   A33        1.91743   0.00038   0.00000   0.00530   0.00528   1.92270
   A34        1.90663  -0.00116   0.00000  -0.01426  -0.01431   1.89233
   A35        1.91534  -0.00046   0.00000   0.00017   0.00008   1.91543
   A36        1.87601  -0.00007   0.00000  -0.00264  -0.00267   1.87334
   A37        1.94748  -0.00295   0.00000  -0.01806  -0.01808   1.92939
   A38        1.90602   0.00252   0.00000   0.01693   0.01677   1.92280
   A39        1.91084   0.00139   0.00000   0.01326   0.01324   1.92408
   A40        1.90616   0.00019   0.00000  -0.00302  -0.00286   1.90330
   A41        1.91152  -0.00022   0.00000  -0.00484  -0.00479   1.90673
   A42        1.88058  -0.00086   0.00000  -0.00377  -0.00396   1.87662
   A43        1.84641   0.00458   0.00000   0.02371   0.02375   1.87016
   A44        1.93802  -0.00434   0.00000  -0.03098  -0.03139   1.90664
   A45        1.98449   0.00096   0.00000   0.01235   0.01255   1.99704
   A46        1.88090   0.00225   0.00000   0.03017   0.03047   1.91137
   A47        1.89185  -0.00404   0.00000  -0.02903  -0.02909   1.86276
   A48        1.91756   0.00079   0.00000  -0.00393  -0.00377   1.91380
   A49        2.08499  -0.00647   0.00000  -0.01595  -0.01624   2.06875
   A50        2.25157  -0.00439   0.00000  -0.01891  -0.01900   2.23258
   A51        1.97677   0.00558   0.00000   0.02798   0.02746   2.00423
   A52        2.05484  -0.00118   0.00000  -0.00889  -0.00939   2.04544
    D1        0.30773  -0.00154   0.00000  -0.03229  -0.03168   0.27605
    D2       -2.79252  -0.00072   0.00000   0.00000  -0.00000  -2.79252
    D3       -2.83131  -0.00255   0.00000  -0.09942  -0.09910  -2.93041
    D4        0.35162  -0.00173   0.00000  -0.06714  -0.06742   0.28420
    D5        3.07724   0.00032   0.00000   0.01268   0.01271   3.08995
    D6       -0.01458  -0.00059   0.00000  -0.00703  -0.00706  -0.02164
    D7       -0.11098  -0.00104   0.00000  -0.02507  -0.02549  -0.13647
    D8        3.08039  -0.00195   0.00000  -0.04477  -0.04527   3.03512
    D9       -2.72432  -0.00171   0.00000  -0.04285  -0.04342  -2.76774
   D10        0.41296   0.00075   0.00000   0.00934   0.00915   0.42212
   D11        0.46391  -0.00029   0.00000  -0.00489  -0.00485   0.45905
   D12       -2.68200   0.00217   0.00000   0.04730   0.04772  -2.63427
   D13       -0.10893   0.00006   0.00000   0.02538   0.02558  -0.08335
   D14        2.68631   0.00396   0.00000   0.07172   0.07087   2.75718
   D15        2.98396   0.00095   0.00000   0.04467   0.04494   3.02890
   D16       -0.50398   0.00485   0.00000   0.09102   0.09022  -0.41376
   D17       -2.49996  -0.00072   0.00000  -0.01797  -0.01758  -2.51753
   D18        1.75131  -0.00235   0.00000  -0.02887  -0.02854   1.72277
   D19       -0.49159  -0.00013   0.00000  -0.00583  -0.00580  -0.49739
   D20        0.95099   0.00003   0.00000  -0.03541  -0.03584   0.91514
   D21       -1.08093  -0.00161   0.00000  -0.04631  -0.04680  -1.12773
   D22        2.95935   0.00061   0.00000  -0.02327  -0.02407   2.93529
   D23        2.94406   0.00228   0.00000   0.02525   0.02516   2.96923
   D24       -1.22702   0.00142   0.00000   0.02111   0.02104  -1.20599
   D25        0.84997  -0.00056   0.00000   0.00225   0.00226   0.85223
   D26        0.92017   0.00316   0.00000   0.03871   0.03871   0.95888
   D27        3.03226   0.00231   0.00000   0.03457   0.03459   3.06685
   D28       -1.17393   0.00033   0.00000   0.01571   0.01581  -1.15812
   D29       -1.08062   0.00147   0.00000   0.00857   0.00853  -1.07208
   D30        1.03148   0.00061   0.00000   0.00443   0.00441   1.03589
   D31        3.10847  -0.00136   0.00000  -0.01443  -0.01437   3.09410
   D32       -2.89972  -0.00102   0.00000  -0.01314  -0.01290  -2.91262
   D33       -0.86376   0.00205   0.00000   0.02045   0.02030  -0.84346
   D34        1.30938   0.00039   0.00000   0.00000  -0.00001   1.30937
   D35       -0.89807  -0.00195   0.00000  -0.02297  -0.02285  -0.92092
   D36        1.13789   0.00113   0.00000   0.01062   0.01035   1.14824
   D37       -2.97216  -0.00054   0.00000  -0.00983  -0.00995  -2.98212
   D38        1.10451   0.00093   0.00000   0.01088   0.01099   1.11550
   D39        3.14047   0.00400   0.00000   0.04446   0.04419  -3.09852
   D40       -0.96958   0.00234   0.00000   0.02402   0.02389  -0.94569
   D41        0.95665   0.00067   0.00000   0.00000   0.00001   0.95666
   D42        3.08231   0.00061   0.00000   0.00812   0.00808   3.09039
   D43       -1.13767  -0.00111   0.00000  -0.01547  -0.01543  -1.15311
   D44       -1.15740   0.00173   0.00000   0.01553   0.01560  -1.14180
   D45        0.96826   0.00166   0.00000   0.02364   0.02367   0.99193
   D46        3.03146  -0.00005   0.00000   0.00006   0.00016   3.03162
   D47        3.06193   0.00061   0.00000   0.00362   0.00359   3.06552
   D48       -1.09559   0.00055   0.00000   0.01174   0.01165  -1.08394
   D49        0.96761  -0.00117   0.00000  -0.01185  -0.01186   0.95575
   D50       -0.92191  -0.00077   0.00000   0.00000   0.00001  -0.92190
   D51        1.18348  -0.00139   0.00000  -0.01062  -0.01064   1.17284
   D52       -3.04834  -0.00088   0.00000  -0.00722  -0.00726  -3.05561
   D53       -3.04921   0.00014   0.00000  -0.00000   0.00002  -3.04919
   D54       -0.94382  -0.00048   0.00000  -0.01063  -0.01062  -0.95444
   D55        1.10755   0.00003   0.00000  -0.00723  -0.00725   1.10030
   D56        1.17624   0.00017   0.00000   0.00704   0.00707   1.18332
   D57       -3.00155  -0.00046   0.00000  -0.00359  -0.00357  -3.00512
   D58       -0.95019   0.00005   0.00000  -0.00019  -0.00020  -0.95038
   D59        0.98828  -0.00084   0.00000  -0.01168  -0.01174   0.97654
   D60        3.09728  -0.00081   0.00000  -0.01574  -0.01590   3.08138
   D61       -1.13070   0.00043   0.00000  -0.00275  -0.00273  -1.13343
   D62       -1.11463  -0.00126   0.00000  -0.01297  -0.01297  -1.12759
   D63        0.99438  -0.00123   0.00000  -0.01703  -0.01713   0.97725
   D64        3.04958   0.00001   0.00000  -0.00403  -0.00395   3.04562
   D65        3.11591  -0.00023   0.00000  -0.00150  -0.00151   3.11441
   D66       -1.05827  -0.00021   0.00000  -0.00556  -0.00567  -1.06394
   D67        0.99693   0.00103   0.00000   0.00744   0.00751   1.00444
   D68       -1.05350   0.00000   0.00000  -0.00029  -0.00019  -1.05370
   D69       -3.12772   0.00154   0.00000   0.00829   0.00793  -3.11979
   D70        1.08098   0.00157   0.00000   0.01212   0.01201   1.09299
   D71        3.12076  -0.00139   0.00000  -0.00787  -0.00770   3.11305
   D72        1.04654   0.00015   0.00000   0.00071   0.00042   1.04696
   D73       -1.02795   0.00017   0.00000   0.00453   0.00450  -1.02345
   D74        1.06509  -0.00033   0.00000   0.00127   0.00147   1.06656
   D75       -1.00913   0.00120   0.00000   0.00985   0.00959  -0.99954
   D76       -3.08362   0.00123   0.00000   0.01367   0.01367  -3.06994
   D77       -1.17215   0.00379   0.00000   0.00000  -0.00000  -1.17216
   D78        3.06313   0.00020   0.00000  -0.01765  -0.01749   3.04563
   D79        1.01195  -0.00061   0.00000  -0.03489  -0.03514   0.97681
   D80        0.15053   0.00162   0.00000   0.01809   0.01782   0.16835
   D81       -2.98659  -0.00095   0.00000  -0.03616  -0.03591  -3.02249
         Item               Value     Threshold  Converged?
 Maximum Force            0.035732     0.000450     NO 
 RMS     Force            0.006861     0.000300     NO 
 Maximum Displacement     0.275765     0.001800     NO 
 RMS     Displacement     0.056406     0.001200     NO 
 Predicted change in Energy=-1.316748D-02
 GradGradGradGradGradGradGradGradGradGradGradGradGradGradGradGradGradGrad

                          Input orientation:                          
 ---------------------------------------------------------------------
 Center     Atomic      Atomic             Coordinates (Angstroms)
 Number     Number       Type             X           Y           Z
 ---------------------------------------------------------------------
      1          8           0       -3.881291    0.719720   -0.202968
      2          7           0       -3.125137   -0.249948   -0.036205
      3          8           0       -3.472834   -1.436836    0.055974
      4          6           0       -1.681287   -0.005127   -0.028533
      5          6           0       -1.317161    1.295615    0.129163
      6          7           0       -0.066927    1.785390    0.226498
      7          6           0        1.192768    1.037522    0.282811
      8          1           0        1.826068    1.622911    0.969320
      9          6           0        1.926627    0.945122   -1.051693
     10          6           0        3.326296    0.365164   -0.817526
     11          6           0        3.261840   -0.979055   -0.083231
     12          6           0        2.439186   -0.882833    1.201624
     13          6           0        1.030731   -0.354674    0.900825
     14          1           0        0.461089   -0.270997    1.839388
     15          7           0        0.393610   -1.332565    0.025771
     16          6           0       -0.845491   -1.165715   -0.284136
     17          1           0       -2.109840    2.034842    0.213777
     18          1           0        0.063449    2.766183   -0.000943
     19          1           0        1.359193    0.303997   -1.735476
     20          1           0        1.994122    1.941949   -1.508261
     21          1           0        3.839929    0.247143   -1.778388
     22          1           0        3.913849    1.078697   -0.222674
     23          1           0        2.798426   -1.727157   -0.735846
     24          1           0        4.273899   -1.331145    0.150292
     25          1           0        2.358367   -1.868581    1.673168
     26          1           0        2.931668   -0.212579    1.918830
     27          1           0       -1.332157   -1.967025   -0.844533
 ---------------------------------------------------------------------
                    Distance matrix (angstroms):
                    1          2          3          4          5
     1  O    0.000000
     2  N    1.240901   0.000000
     3  O    2.210118   1.240199   0.000000
     4  C    2.322897   1.464479   2.294901   0.000000
     5  C    2.648911   2.384300   3.481173   1.359920   0.000000
     6  N    3.983650   3.682969   4.691697   2.424283   1.346269
     7  C    5.107157   4.517040   5.285995   3.073149   2.527838
     8  H    5.896097   5.388238   6.186647   3.993464   3.269996
     9  C    5.873930   5.289587   6.004567   3.868704   3.469788
    10  C    7.242424   6.527620   7.087903   5.082865   4.829457
    11  C    7.343330   6.428630   6.751649   5.038455   5.117273
    12  C    6.670044   5.735369   6.047430   4.388844   4.472802
    13  C    5.147878   4.261483   4.708178   2.888067   2.971787
    14  H    4.899898   4.047136   4.473867   2.854749   2.922553
    15  N    4.747523   3.682048   3.867967   2.463785   3.137635
    16  C    3.574568   2.469187   2.663102   1.452878   2.539967
    17  H    2.245275   2.512684   3.732988   2.098534   1.087178
    18  H    4.448573   4.389233   5.493077   3.274908   2.021283
    19  H    5.475772   4.827379   5.439510   3.500533   3.409260
    20  H    6.141507   5.760050   6.614425   4.414672   3.750134
    21  H    7.894461   7.196835   7.725099   5.797366   5.597644
    22  H    7.803426   7.165709   7.808241   5.702447   5.247314
    23  H    7.133708   6.144937   6.327714   4.851135   5.179136
    24  H    8.416529   7.479940   7.748027   6.103650   6.177399
    25  H    7.010886   5.967474   6.066681   4.763093   5.089754
    26  H    7.196362   6.364625   6.781348   5.011448   4.850784
    27  H    3.758762   2.610848   2.382123   2.153321   3.404868
                    6          7          8          9         10
     6  N    0.000000
     7  C    1.466052   0.000000
     8  H    2.040003   1.102290   0.000000
     9  C    2.512783   1.525774   2.134010   0.000000
    10  C    3.823741   2.492940   2.650553   1.533056   0.000000
    11  C    4.338061   2.912323   3.152702   2.534398   1.533059
    12  C    3.788257   2.466889   2.590103   2.946451   2.534054
    13  C    2.497888   1.531799   2.132626   2.510862   2.956437
    14  H    2.666261   2.161137   2.491400   3.461950   3.958953
    15  N    3.158168   2.514365   3.417171   2.949394   3.492003
    16  C    3.094500   3.054534   4.060149   3.567830   4.475702
    17  H    2.058126   3.450599   4.028884   4.368291   5.779532
    18  H    1.015225   2.084261   2.314153   2.809229   4.132538
    19  H    2.842127   2.153888   3.045230   1.095711   2.171605
    20  H    2.698485   2.160577   2.503684   1.098487   2.176707
    21  H    4.652880   3.446839   3.673999   2.162403   1.095903
    22  H    4.067892   2.767940   2.464923   2.157351   1.099180
    23  H    4.634042   3.355480   3.882785   2.828581   2.159427
    24  H    5.344283   3.888638   3.922897   3.483654   2.170734
    25  H    4.618053   3.425952   3.601286   3.940583   3.482824
    26  H    3.980884   2.695011   2.343703   3.342811   2.824388
    27  H    4.102260   4.083314   5.113911   4.375293   5.209705
                   11         12         13         14         15
    11  C    0.000000
    12  C    1.528682   0.000000
    13  C    2.517154   1.534007   0.000000
    14  H    3.470161   2.166554   1.101088   0.000000
    15  N    2.891988   2.401931   1.458737   2.102543   0.000000
    16  C    4.116475   3.616159   2.362653   2.648967   1.288119
    17  H    6.166582   5.493843   4.005622   3.816960   4.200242
    18  H    4.925777   4.517257   3.389479   3.573430   4.112110
    19  H    2.827755   3.346865   2.737118   3.730531   2.590883
    20  H    3.488565   3.939664   3.465010   4.295821   3.954407
    21  H    2.170554   3.481292   3.928353   4.977282   4.198521
    22  H    2.163077   2.837403   3.410157   4.242090   4.274107
    23  H    1.095589   2.143764   2.772571   3.770329   2.553215
    24  H    1.096706   2.161585   3.469140   4.302845   3.882287
    25  H    2.166207   1.095712   2.156628   2.485874   2.619447
    26  H    2.169043   1.098255   2.161038   2.472546   3.358538
    27  H    4.760302   4.425523   3.350999   3.646323   2.034266
                   16         17         18         19         20
    16  C    0.000000
    17  H    3.477076   0.000000
    18  H    4.045515   2.303074   0.000000
    19  H    3.021104   4.339309   3.278706   0.000000
    20  H    4.384000   4.451578   2.584350   1.771341   0.000000
    21  H    5.116846   6.524135   4.875107   2.481758   2.520385
    22  H    5.262364   6.114698   4.209792   3.068386   2.466432
    23  H    3.714484   6.256636   5.311335   2.682581   3.834824
    24  H    5.140452   7.217064   5.876976   3.837358   4.319876
    25  H    3.819655   6.109944   5.436022   4.163808   4.977379
    26  H    4.475316   5.777102   4.559082   4.011668   4.155230
    27  H    1.092239   4.211858   5.006258   3.632449   5.175398
                   21         22         23         24         25
    21  H    0.000000
    22  H    1.765557   0.000000
    23  H    2.463632   3.062732   0.000000
    24  H    2.529650   2.464970   1.766093   0.000000
    25  H    4.310980   3.834083   2.452957   2.505444   0.000000
    26  H    3.834802   2.686655   3.059249   2.486061   1.769567
    27  H    5.703077   6.097844   4.138969   5.729038   4.468610
                   26         27
    26  H    0.000000
    27  H    5.375357   0.000000
 Symmetry turned off by external request.
 Stoichiometry    C9H13N3O2
 Framework group  C1[X(C9H13N3O2)]
 Deg. of freedom    75
 Full point group                 C1      NOp   1
 Rotational constants (GHZ):           1.6823435           0.4226312           0.3722717
 Standard basis: 6-31G(d) (6D, 7F)
   236 basis functions,   444 primitive gaussians,   236 cartesian basis functions
    52 alpha electrons       52 beta electrons
       nuclear repulsion energy       932.1184648242 Hartrees.
 NAtoms=   27 NActive=   27 NUniq=   27 SFac= 1.00D+00 NAtFMM=   60 NAOKFM=F Big=F
 Integral buffers will be    131072 words long.
 Raffenetti 1 integral format.
 Two-electron integral symmetry is turned off.
 One-electron integrals computed using PRISM.
 NBasis=   236 RedAO= T EigKep=  1.13D-03  NBF=   236
 NBsUse=   236 1.00D-06 EigRej= -1.00D+00 NBFU=   236
 Initial guess from the checkpoint file:  "/home/alexey/tmp/Gau-1162645.chk"
 B after Tr=     0.054321    0.004253   -0.002480
         Rot=    0.999996   -0.002024    0.001591    0.000770 Ang=  -0.31 deg.
 ExpMin= 1.61D-01 ExpMax= 5.48D+03 ExpMxC= 8.25D+02 IAcc=3 IRadAn=         5 AccDes= 0.00D+00
 Harris functional with IExCor=  205 and IRadAn=       5 diagonalized for initial guess.
 HarFok:  IExCor=  205 AccDes= 0.00D+00 IRadAn=         5 IDoV= 1 UseB2=F ITyADJ=14
 ICtDFT=  3500011 ScaDFX=  1.000000  1.000000  1.000000  1.000000
 FoFCou: FMM=F IPFlag=           0 FMFlag=      100000 FMFlg1=           0
         NFxFlg=           0 DoJE=T BraDBF=F KetDBF=T FulRan=T
         wScrn=  0.000000 ICntrl=       500 IOpCl=  0 I1Cent=   200000004 NGrid=           0
         NMat0=    1 NMatS0=      1 NMatT0=    0 NMatD0=    1 NMtDS0=    0 NMtDT0=    0
 Symmetry not used in FoFCou.
 Keep R1 ints in memory in canonical form, NReq=397720213.
 Requested convergence on RMS density matrix=1.00D-08 within 128 cycles.
 Requested convergence on MAX density matrix=1.00D-06.
 Requested convergence on             energy=1.00D-06.
 No special actions if energy rises.
 SCF Done:  E(RHF) =  -661.297440620     A.U. after   15 cycles
            NFock= 15  Conv=0.38D-08     -V/T= 2.0024
 ExpMin= 1.61D-01 ExpMax= 5.48D+03 ExpMxC= 8.25D+02 IAcc=3 IRadAn=         5 AccDes= 0.00D+00
 HarFok:  IExCor=  205 AccDes= 0.00D+00 IRadAn=         5 IDoV=-2 UseB2=F ITyADJ=14
 ICtDFT= 12500011 ScaDFX=  1.000000  1.000000  1.000000  1.000000
 Range of M.O.s used for correlation:    15   236
 NBasis=   236 NAE=    52 NBE=    52 NFC=    14 NFV=     0
 NROrb=    222 NOA=    38 NOB=    38 NVA=   184 NVB=   184
 Fully direct method using O(ONN) memory.
 JobTyp=1 Pass  1:  I=  15 to  52 NPSUse=  4 ParTrn=T ParDer=T DoDerP=T.
 Spin components of T(2) and E(2):
     alpha-alpha T2 =       0.9127098437D-01 E2=     -0.2723608199D+00
     alpha-beta  T2 =       0.4916323040D+00 E2=     -0.1488411215D+01
     beta-beta   T2 =       0.9127098437D-01 E2=     -0.2723608199D+00
 ANorm=    0.1293898865D+01
 E2 =    -0.2033132855D+01 EUMP2 =    -0.66333057347466D+03
          IDoAtm=111111111111111111111111111
          Differentiating once with respect to electric field.
                with respect to dipole field.
          Differentiating once with respect to nuclear coordinates.
 Keep R1 ints in memory in canonical form, NReq=397723379.
          There are     1 degrees of freedom in the 1st order CPHF.  IDoFFX=0 NUNeed=     1.
 LinEq1:  Iter=  0 NonCon=     1 RMS=4.56D-03 Max=1.04D-01 NDo=     1
 AX will form     1 AO Fock derivatives at one time.
 LinEq1:  Iter=  1 NonCon=     1 RMS=1.53D-03 Max=2.74D-02 NDo=     1
 LinEq1:  Iter=  2 NonCon=     1 RMS=6.41D-04 Max=1.76D-02 NDo=     1
 LinEq1:  Iter=  3 NonCon=     1 RMS=2.80D-04 Max=7.88D-03 NDo=     1
 LinEq1:  Iter=  4 NonCon=     1 RMS=8.72D-05 Max=1.84D-03 NDo=     1
 LinEq1:  Iter=  5 NonCon=     1 RMS=3.62D-05 Max=1.70D-03 NDo=     1
 LinEq1:  Iter=  6 NonCon=     1 RMS=1.41D-05 Max=5.08D-04 NDo=     1
 LinEq1:  Iter=  7 NonCon=     1 RMS=5.40D-06 Max=7.76D-05 NDo=     1
 LinEq1:  Iter=  8 NonCon=     1 RMS=2.15D-06 Max=5.15D-05 NDo=     1
 LinEq1:  Iter=  9 NonCon=     1 RMS=7.78D-07 Max=2.04D-05 NDo=     1
 LinEq1:  Iter= 10 NonCon=     1 RMS=3.98D-07 Max=1.73D-05 NDo=     1
[...]
                   16         17         18         19         20
    16  C    0.000000
    17  H    3.464748   0.000000
    18  H    4.092527   2.237722   0.000000
    19  H    2.992181   4.286647   3.516602   0.000000
    20  H    4.376693   4.432580   2.886245   1.768470   0.000000
    21  H    5.097261   6.499407   5.089350   2.499277   2.521018
    22  H    5.249040   6.097108   4.313830   3.070248   2.461536
    23  H    3.694480   6.231629   5.423350   2.704317   3.842990
    24  H    5.133084   7.201972   5.937189   3.849649   4.317127
    25  H    3.820118   6.100736   5.368701   4.171667   4.984997
    26  H    4.493737   5.793215   4.482031   4.035238   4.181358
    27  H    1.090509   4.212590   5.086168   3.590489   5.154508
                   21         22         23         24         25
    21  H    0.000000
    22  H    1.758853   0.000000
    23  H    2.469549   3.062312   0.000000
    24  H    2.517354   2.459849   1.764568   0.000000
    25  H    4.311972   3.839149   2.444356   2.519511   0.000000
    26  H    3.846256   2.703668   3.060468   2.492036   1.768013
    27  H    5.658993   6.064823   4.093667   5.697098   4.453445
                   26         27
    26  H    0.000000
    27  H    5.378384   0.000000
 Symmetry turned off by external request.
 Stoichiometry    C9H13N3O2
 Framework group  C1[X(C9H13N3O2)]
 Deg. of freedom    75
 Full point group                 C1      NOp   1
 Rotational constants (GHZ):           1.6738685           0.4210464           0.3724950

 **********************************************************************

            Population analysis using the SCF Density.

 **********************************************************************

 Alpha  occ. eigenvalues --  -20.59328 -20.59017 -15.84666 -15.64082 -15.56097
 Alpha  occ. eigenvalues --  -11.35016 -11.29648 -11.29608 -11.28587 -11.27130
 Alpha  occ. eigenvalues --  -11.23708 -11.23193 -11.22680 -11.22077  -1.57111
 Alpha  occ. eigenvalues --   -1.36743  -1.30936  -1.23084  -1.14719  -1.09843
 Alpha  occ. eigenvalues --   -1.02793  -1.01292  -0.94518  -0.89675  -0.85543
 Alpha  occ. eigenvalues --   -0.82483  -0.78586  -0.77453  -0.75213  -0.72010
 Alpha  occ. eigenvalues --   -0.69997  -0.69193  -0.67662  -0.64960  -0.63740
 Alpha  occ. eigenvalues --   -0.62399  -0.60273  -0.57689  -0.56987  -0.55096
 Alpha  occ. eigenvalues --   -0.54591  -0.50716  -0.50217  -0.48687  -0.48083
 Alpha  occ. eigenvalues --   -0.47455  -0.46115  -0.46068  -0.43628  -0.41696
 Alpha  occ. eigenvalues --   -0.39873  -0.33784
 Alpha virt. eigenvalues --    0.07499   0.11761   0.17299   0.21805   0.24074
 Alpha virt. eigenvalues --    0.25641   0.27112   0.28673   0.29042   0.29585
 Alpha virt. eigenvalues --    0.30469   0.31731   0.32017   0.32758   0.33919
 Alpha virt. eigenvalues --    0.34372   0.35843   0.37342   0.38596   0.40330
 Alpha virt. eigenvalues --    0.41487   0.42357   0.44946   0.46078   0.46798
 Alpha virt. eigenvalues --    0.47279   0.48797   0.53856   0.57537   0.59160
 Alpha virt. eigenvalues --    0.63791   0.69505   0.69864   0.72896   0.74237
 Alpha virt. eigenvalues --    0.74940   0.75778   0.76732   0.78705   0.79339
 Alpha virt. eigenvalues --    0.81583   0.84621   0.85694   0.85786   0.88574
 Alpha virt. eigenvalues --    0.89398   0.91135   0.91936   0.92783   0.94503
 Alpha virt. eigenvalues --    0.95521   0.98042   0.99571   1.01790   1.02202
 Alpha virt. eigenvalues --    1.03450   1.05870   1.06889   1.07903   1.08815
 Alpha virt. eigenvalues --    1.10514   1.11305   1.11865   1.12277   1.13897
 Alpha virt. eigenvalues --    1.14698   1.15015   1.15795   1.16775   1.18645
 Alpha virt. eigenvalues --    1.18975   1.21089   1.22293   1.23587   1.23745
 Alpha virt. eigenvalues --    1.24523   1.25845   1.26990   1.28459   1.29411
 Alpha virt. eigenvalues --    1.30179   1.33375   1.35895   1.37381   1.40943
 Alpha virt. eigenvalues --    1.41578   1.44931   1.47006   1.51169   1.53625
 Alpha virt. eigenvalues --    1.55783   1.58082   1.60515   1.63939   1.66214
 Alpha virt. eigenvalues --    1.67584   1.68687   1.73042   1.75418   1.77436
 Alpha virt. eigenvalues --    1.80922   1.83617   1.86788   1.90333   1.92751
 Alpha virt. eigenvalues --    1.94994   1.96140   1.99205   2.01978   2.02131
 Alpha virt. eigenvalues --    2.04965   2.06330   2.08123   2.09547   2.13389
 Alpha virt. eigenvalues --    2.13896   2.15207   2.18989   2.20139   2.21761
 Alpha virt. eigenvalues --    2.22604   2.24571   2.25497   2.28184   2.29544
 Alpha virt. eigenvalues --    2.32128   2.33610   2.34448   2.36693   2.38175
 Alpha virt. eigenvalues --    2.40143   2.41312   2.43770   2.44517   2.47606
 Alpha virt. eigenvalues --    2.50678   2.52454   2.53446   2.55534   2.61958
 Alpha virt. eigenvalues --    2.62461   2.65325   2.67349   2.70500   2.70744
 Alpha virt. eigenvalues --    2.72193   2.72617   2.76781   2.78254   2.83732
 Alpha virt. eigenvalues --    2.88390   2.88997   2.92401   2.94055   2.96639
 Alpha virt. eigenvalues --    2.99495   3.01082   3.03735   3.05598   3.07871
 Alpha virt. eigenvalues --    3.09420   3.15256   3.20733   3.24149   3.27206
 Alpha virt. eigenvalues --    3.32930   3.37221   3.38663   3.51697   3.65582
 Alpha virt. eigenvalues --    4.12296   4.26637   4.31824   4.37726   4.46317
 Alpha virt. eigenvalues --    4.56140   4.62084   4.62389   4.73473   4.79077
 Alpha virt. eigenvalues --    4.99303   5.00900   5.05076   5.11156
          Condensed to atoms (all electrons):
               1          2          3          4          5          6
     1  O    8.348127   0.299795  -0.080629  -0.091522   0.004945   0.000717
     2  N    0.299795   5.740549   0.304971   0.257434  -0.053367   0.001099
     3  O   -0.080629   0.304971   8.311666  -0.085543   0.004490  -0.000018
     4  C   -0.091522   0.257434  -0.085543   5.230879   0.561208  -0.047343
     5  C    0.004945  -0.053367   0.004490   0.561208   4.701731   0.317330
     6  N    0.000717   0.001099  -0.000018  -0.047343   0.317330   7.195163
     7  C    0.000000  -0.000136   0.000005   0.004880  -0.030469   0.170028
     8  H   -0.000000   0.000002  -0.000000  -0.000258   0.003155  -0.050440
     9  C   -0.000000  -0.000004  -0.000000   0.000831   0.000640  -0.062072
    10  C    0.000000   0.000000   0.000000  -0.000039  -0.000054   0.003761
    11  C   -0.000000  -0.000000  -0.000000  -0.000028   0.000026  -0.000190
    12  C   -0.000000   0.000002  -0.000000  -0.000131  -0.000181   0.003865
    13  C   -0.000002  -0.000038  -0.000029  -0.011538  -0.000647  -0.047653
    14  H    0.000001  -0.000098  -0.000006   0.002526   0.005845  -0.006820
    15  N   -0.000023   0.002535   0.000277  -0.064537  -0.006010   0.001731
    16  C    0.002177  -0.025452   0.001364   0.324430  -0.047201  -0.001928
    17  H    0.016019  -0.006623   0.000190  -0.024162   0.375671  -0.033878
    18  H    0.000011  -0.000053   0.000001   0.001554  -0.031073   0.338528
    19  H    0.000000  -0.000004   0.000000  -0.001277   0.001224  -0.000364
    20  H    0.000000  -0.000000   0.000000  -0.000078   0.000147  -0.000360
    21  H   -0.000000   0.000000  -0.000000   0.000001   0.000001  -0.000077
    22  H   -0.000000   0.000000  -0.000000  -0.000000  -0.000003  -0.000116
    23  H    0.000000  -0.000000   0.000000   0.000040  -0.000000  -0.000030
    24  H    0.000000   0.000000   0.000000   0.000000  -0.000000   0.000006
    25  H    0.000000  -0.000000   0.000000   0.000024  -0.000000  -0.000090
    26  H    0.000000  -0.000000   0.000000   0.000006  -0.000002  -0.000060
    27  H   -0.000004  -0.000615   0.005421  -0.067070   0.002307   0.000026
               7          8          9         10         11         12
     1  O    0.000000  -0.000000  -0.000000   0.000000  -0.000000  -0.000000
     2  N   -0.000136   0.000002  -0.000004   0.000000  -0.000000   0.000002
     3  O    0.000005  -0.000000  -0.000000   0.000000  -0.000000  -0.000000
     4  C    0.004880  -0.000258   0.000831  -0.000039  -0.000028  -0.000131
     5  C   -0.030469   0.003155   0.000640  -0.000054   0.000026  -0.000181
     6  N    0.170028  -0.050440  -0.062072   0.003761  -0.000190   0.003865
     7  C    5.018776   0.418203   0.350812  -0.054675  -0.009015  -0.060904
     8  H    0.418203   0.537941  -0.054844   0.000729  -0.000318  -0.002283
     9  C    0.350812  -0.054844   5.157734   0.324879  -0.050435  -0.005284
    10  C   -0.054675   0.000729   0.324879   5.119263   0.336979  -0.061069
    11  C   -0.009015  -0.000318  -0.050435   0.336979   5.119984   0.335997
    12  C   -0.060904  -0.002283  -0.005284  -0.061069   0.335997   5.118721
    13  C    0.337678  -0.037820  -0.060585  -0.000213  -0.050764   0.371749
    14  H   -0.046697  -0.000749   0.004425  -0.000404   0.004194  -0.036306
    15  N   -0.057777   0.003867  -0.014400   0.001561  -0.013085  -0.081990
    16  C   -0.002079   0.000024  -0.001302  -0.000031   0.000026   0.002716
    17  H    0.001667  -0.000051  -0.000065   0.000001   0.000000   0.000000
    18  H   -0.021300  -0.004527   0.001366  -0.000083   0.000004  -0.000113
    19  H   -0.036925   0.004356   0.390337  -0.032131  -0.002211   0.000683
    20  H   -0.042427  -0.002064   0.399510  -0.035284   0.003929  -0.000416
    21  H    0.004601  -0.000076  -0.036362   0.402416  -0.034908   0.004355
    22  H   -0.004859   0.003559  -0.046953   0.397754  -0.045397  -0.001032
    23  H    0.000573   0.000035  -0.001957  -0.039018   0.399202  -0.037878
    24  H   -0.000130  -0.000103   0.004388  -0.038435   0.402351  -0.038690
    25  H    0.005146  -0.000024  -0.000425   0.004192  -0.033397   0.398308
    26  H   -0.003923   0.001685   0.000972  -0.002241  -0.041480   0.396708
    27  H   -0.000419   0.000009  -0.000058   0.000007   0.000012  -0.000039
              13         14         15         16         17         18
     1  O   -0.000002   0.000001  -0.000023   0.002177   0.016019   0.000011
     2  N   -0.000038  -0.000098   0.002535  -0.025452  -0.006623  -0.000053
     3  O   -0.000029  -0.000006   0.000277   0.001364   0.000190   0.000001
     4  C   -0.011538   0.002526  -0.064537   0.324430  -0.024162   0.001554
     5  C   -0.000647   0.005845  -0.006010  -0.047201   0.375671  -0.031073
     6  N   -0.047653  -0.006820   0.001731  -0.001928  -0.033878   0.338528
     7  C    0.337678  -0.046697  -0.057777  -0.002079   0.001667  -0.021300
     8  H   -0.037820  -0.000749   0.003867   0.000024  -0.000051  -0.004527
     9  C   -0.060585   0.004425  -0.014400  -0.001302  -0.000065   0.001366
    10  C   -0.000213  -0.000404   0.001561  -0.000031   0.000001  -0.000083
    11  C   -0.050764   0.004194  -0.013085   0.000026   0.000000   0.000004
    12  C    0.371749  -0.036306  -0.081990   0.002716   0.000000  -0.000113
    13  C    5.040260   0.403393   0.246211  -0.071832  -0.000022   0.002942
    14  H    0.403393   0.526657  -0.037551  -0.004435   0.000088  -0.000112
    15  N    0.246211  -0.037551   6.962396   0.586694  -0.000068  -0.000133
    16  C   -0.071832  -0.004435   0.586694   4.706160   0.002062  -0.000194
    17  H   -0.000022   0.000088  -0.000068   0.002062   0.379849  -0.002837
    18  H    0.002942  -0.000112  -0.000133  -0.000194  -0.002837   0.310663
    19  H   -0.007514   0.000106   0.007639   0.003024   0.000016  -0.000150
    20  H    0.004348  -0.000066   0.000125  -0.000035   0.000001   0.000783
    21  H   -0.000437   0.000010  -0.000042   0.000004  -0.000000   0.000001
    22  H    0.000051  -0.000055   0.000019  -0.000002   0.000000   0.000001
    23  H   -0.007512   0.000003   0.008560   0.000104   0.000000   0.000000
    24  H    0.004702  -0.000057   0.000134   0.000007   0.000000  -0.000000
    25  H   -0.035568  -0.002825   0.000410  -0.000020  -0.000000   0.000002
    26  H   -0.047392  -0.001038   0.004889  -0.000064   0.000000  -0.000000
    27  H    0.005174  -0.000168  -0.039536   0.404759  -0.000080   0.000001
              19         20         21         22         23         24
     1  O    0.000000   0.000000  -0.000000  -0.000000   0.000000   0.000000
     2  N   -0.000004  -0.000000   0.000000   0.000000  -0.000000   0.000000
     3  O    0.000000   0.000000  -0.000000  -0.000000   0.000000   0.000000
     4  C   -0.001277  -0.000078   0.000001  -0.000000   0.000040   0.000000
     5  C    0.001224   0.000147   0.000001  -0.000003  -0.000000  -0.000000
     6  N   -0.000364  -0.000360  -0.000077  -0.000116  -0.000030   0.000006
     7  C   -0.036925  -0.042427   0.004601  -0.004859   0.000573  -0.000130
     8  H    0.004356  -0.002064  -0.000076   0.003559   0.000035  -0.000103
     9  C    0.390337   0.399510  -0.036362  -0.046953  -0.001957   0.004388
    10  C   -0.032131  -0.035284   0.402416   0.397754  -0.039018  -0.038435
    11  C   -0.002211   0.003929  -0.034908  -0.045397   0.399202   0.402351
    12  C    0.000683  -0.000416   0.004355  -0.001032  -0.037878  -0.038690
    13  C   -0.007514   0.004348  -0.000437   0.000051  -0.007512   0.004702
    14  H    0.000106  -0.000066   0.000010  -0.000055   0.000003  -0.000057
    15  N    0.007639   0.000125  -0.000042   0.000019   0.008560   0.000134
    16  C    0.003024  -0.000035   0.000004  -0.000002   0.000104   0.000007
    17  H    0.000016   0.000001  -0.000000   0.000000   0.000000   0.000000
    18  H   -0.000150   0.000783   0.000001   0.000001   0.000000  -0.000000
    19  H    0.505242  -0.024726  -0.002786   0.003962   0.001514  -0.000067
    20  H   -0.024726   0.540823  -0.002699  -0.002987  -0.000045  -0.000083
    21  H   -0.002786  -0.002699   0.524144  -0.027412  -0.002898  -0.002244
    22  H    0.003962  -0.002987  -0.027412   0.571379   0.004137  -0.003655
    23  H    0.001514  -0.000045  -0.002898   0.004137   0.499022  -0.025460
    24  H   -0.000067  -0.000083  -0.002244  -0.003655  -0.025460   0.538162
    25  H   -0.000029   0.000012  -0.000087  -0.000080  -0.002313  -0.002295
    26  H    0.000019  -0.000030  -0.000081   0.002381   0.004068  -0.003031
    27  H    0.000087   0.000000  -0.000000   0.000000  -0.000035  -0.000000
              25         26         27
     1  O    0.000000   0.000000  -0.000004
     2  N   -0.000000  -0.000000  -0.000615
     3  O    0.000000   0.000000   0.005421
     4  C    0.000024   0.000006  -0.067070
     5  C   -0.000000  -0.000002   0.002307
     6  N   -0.000090  -0.000060   0.000026
     7  C    0.005146  -0.003923  -0.000419
     8  H   -0.000024   0.001685   0.000009
     9  C   -0.000425   0.000972  -0.000058
    10  C    0.004192  -0.002241   0.000007
    11  C   -0.033397  -0.041480   0.000012
    12  C    0.398308   0.396708  -0.000039
    13  C   -0.035568  -0.047392   0.005174
    14  H   -0.002825  -0.001038  -0.000168
    15  N    0.000410   0.004889  -0.039536
    16  C   -0.000020  -0.000064   0.404759
    17  H   -0.000000   0.000000  -0.000080
    18  H    0.000002  -0.000000   0.000001
    19  H   -0.000029   0.000019   0.000087
    20  H    0.000012  -0.000030   0.000000
    21  H   -0.000087  -0.000081  -0.000000
    22  H   -0.000080   0.002381   0.000000
    23  H   -0.002313   0.004068  -0.000035
    24  H   -0.002295  -0.003031  -0.000000
    25  H    0.505957  -0.024077  -0.000013
    26  H   -0.024077   0.562420   0.000001
    27  H   -0.000013   0.000001   0.446313
 Mulliken charges:
               1
     1  O   -0.499612
     2  N    0.480003
     3  O   -0.462159
     4  C    0.009711
     5  C    0.190284
     6  N   -0.780815
     7  C    0.059365
     8  H    0.179991
     9  C   -0.301148
    10  C   -0.327864
    11  C   -0.321475
    12  C   -0.306789
    13  C   -0.036942
    14  H    0.190137
    15  N   -0.511896
    16  C    0.121024
    17  H    0.292222
    18  H    0.404719
    19  H    0.189972
    20  H    0.161620
    21  H    0.174577
    22  H    0.149309
    23  H    0.199888
    24  H    0.164500
    25  H    0.187190
    26  H    0.150269
    27  H    0.243919
 Sum of Mulliken charges =  -0.00000
 Mulliken charges with hydrogens summed into heavy atoms:
               1
     1  O   -0.499612
     2  N    0.480003
     3  O   -0.462159
     4  C    0.009711
     5  C    0.482506
     6  N   -0.376096
     7  C    0.239356
     9  C    0.050445
    10  C   -0.003979
    11  C    0.042914
    12  C    0.030670
    13  C    0.153195
    15  N   -0.511896
    16  C    0.364943
 Electronic spatial extent (au):  <R**2>=           3000.4182
 Charge=             -0.0000 electrons
 Dipole moment (field-independent basis, Debye):
    X=              5.3537    Y=              4.9040    Z=              0.9188  Tot=              7.3182
 Quadrupole moment (field-independent basis, Debye-Ang):
   XX=           -105.7403   YY=            -78.9159   ZZ=            -81.9292
   XY=             -1.8397   XZ=             -0.6370   YZ=              2.6446
 Traceless Quadrupole moment (field-independent basis, Debye-Ang):
   XX=            -16.8785   YY=              9.9459   ZZ=              6.9326
   XY=             -1.8397   XZ=             -0.6370   YZ=              2.6446
 Octapole moment (field-independent basis, Debye-Ang**2):
  XXX=             89.7571  YYY=             38.3063  ZZZ=             -1.8826  XYY=             -4.6837
  XXY=             10.4090  XXZ=              7.2352  XZZ=             -9.4589  YZZ=             -1.9374
  YYZ=              3.3556  XYZ=             -3.7982
 Hexadecapole moment (field-independent basis, Debye-Ang**3):
 XXXX=          -3361.9661 YYYY=           -589.9579 ZZZZ=           -311.8159 XXXY=            -24.0083
 XXXZ=            -41.2652 YYYX=             -8.2281 YYYZ=             46.4714 ZZZX=            -13.4746
 ZZZY=             32.5187 XXYY=           -626.1970 XXZZ=           -524.1680 YYZZ=           -160.8327
 XXYZ=             21.6466 YYXZ=              0.3415 ZZXY=              5.3102
 N-N= 9.314016161927D+02 E-N=-3.409515153965D+03  KE= 6.596279093146D+02
 Unable to Open any file for archive entry.
 1\1\GINC-LOTUS\FOpt\RMP2-FC\6-31G(d)\C9H13N3O2\ALEXEY\30-Jun-2023\0\\#
 MP2/6-31G* SCF=Tight Opt=(ModRedun, MaxCycle=20 ) NoSymm\\MolName:\\0,
 1\O,-3.8748040354,0.7300349626,-0.3016325949\N,-3.1142170441,-0.241685
 1965,-0.1248906895\O,-3.5056853863,-1.4231018505,-0.0453764763\C,-1.68
 42662042,-0.0215141409,-0.0063279179\C,-1.3012295909,1.2860535166,0.13
 99280649\N,-0.0571769021,1.7829092201,0.2201721154\C,1.2036725949,1.05
 46241527,0.2708714046\H,1.8506924673,1.6519746771,0.9307379602\C,1.909
 8073012,0.9272851407,-1.0777535626\C,3.3075376441,0.3398315476,-0.8506
 305015\C,3.2577730158,-0.9852842934,-0.0854695461\C,2.460738569,-0.862
 3076549,1.2149249415\C,1.0513557128,-0.3361227693,0.9204738111\H,0.472
 8711874,-0.21967418,1.8505906577\N,0.4066203326,-1.3234950848,0.060101
 5565\C,-0.8400466188,-1.1733431886,-0.2522961385\H,-2.0960788251,2.025
 6779144,0.1871660577\H,0.002015267,2.785012116,0.356913439\H,1.3162392
 464,0.2802144966,-1.7324143667\H,1.9768689719,1.9113652376,-1.55805446
 08\H,3.8130048755,0.202882405,-1.813443359\H,3.9067116317,1.0671197413
 ,-0.2844320674\H,2.7807885475,-1.7490883275,-0.7075457186\H,4.27644903
 08,-1.3293124306,0.129406971\H,2.3745396827,-1.8396175923,1.7011144048
 \H,2.96937204,-0.1889431972,1.9186391766\H,-1.3045635118,-1.9914752218
 ,-0.8037431611\\Version=ES64L-G16RevC.02\HF=-661.2995056\MP2=-663.3343
 303\RMSD=3.307e-09\RMSF=3.246e-04\Dipole=1.9628303,1.7328236,0.3401284
 \PG=C01 [X(C9H13N3O2)]\\@
 The archive entry for this job was punched.


 POCKETA-POCKETA
 BARON VON RICHTOFEN
 SLAUGHTERED THE ALLIES WITH
 HARDLY A CARE.
 KILLED EIGHTY-ONE WITH HIS
 BLOOD-COLORED TRIPLANE, THEN
 UN-AEROBATICALLY
 PLUNGED FROM THE AIR.
   -- TONY HOFFMAN
 Job cpu time:       0 days  1 hours 24 minutes 18.1 seconds.
 Elapsed time:       0 days  0 hours 25 minutes 32.8 seconds.
 File lengths (MBytes):  RWF=     36 Int=      0 D2E=      0 Chk=      7 Scr=      1
 Normal termination of Gaussian 16 at Fri Jun 30 15:22:03 2023.
