 Entering Gaussian System, Link 0=g16
 Initial command:
 /home/alexey/programs//g16/l1.exe "/home/alexey/tmp/Gau-1131588.inp" -scrdir="/home/alexey/tmp/"
 Entering Link 1 = /home/alexey/programs//g16/l1.exe PID=   1131590.
  
 Copyright (c) 1988-2021, Gaussian, Inc.  All Rights Reserved.
  
 This is part of the Gaussian(R) 16 program.  It is based on
 the Gaussian(R) 09 system (copyright 2009, Gaussian, Inc.),
 the Gaussian(R) 03 system (copyright 2003, Gaussian, Inc.),
 the Gaussian(R) 98 system (copyright 1998, Gaussian, Inc.),
 the Gaussian(R) 94 system (copyright 1995, Gaussian, Inc.),
 the Gaussian 92(TM) system (copyright 1992, Gaussian, Inc.),
 the Gaussian 90(TM) system (copyright 1990, Gaussian, Inc.),
 the Gaussian 88(TM) system (copyright 1988, Gaussian, Inc.),
 the Gaussian 86(TM) system (copyright 1986, Carnegie Mellon
 University), and the Gaussian 82(TM) system (copyright 1983,
 Carnegie Mellon University). Gaussian is a federally registered
 trademark of Gaussian, Inc.
  
 This software contains proprietary and confidential information,
 including trade secrets, belonging to Gaussian, Inc.
  
 This software is provided under written license and may be
 used, copied, transmitted, or stored only in accord with that
 written license.
  
 The following legend is applicable only to US Government
 contracts under FAR:
  
                    RESTRICTED RIGHTS LEGEND
  
 Use, reproduction and disclosure by the US Government is
 subject to restrictions as set forth in subparagraphs (a)
 and (c) of the Commercial Computer Software - Restricted
 Rights clause in FAR 52.227-19.
  
 Gaussian, Inc.
 340 Quinnipiac St., Bldg. 40, Wallingford CT 06492
  
  
 ---------------------------------------------------------------
 Warning -- This program may not be used in any manner that
 competes with the business of Gaussian, Inc. or will provide
 assistance to any competitor of Gaussian, Inc.  The licensee
 of this program is prohibited from giving any competitor of
 Gaussian, Inc. access to this program.  By using this program,
 the user acknowledges that Gaussian, Inc. is engaged in the
 business of creating and licensing software in the field of
 computational chemistry and represents and warrants to the
 licensee that it is not a competitor of Gaussian, Inc. and that
 it will not use this program in any manner prohibited above.
 ---------------------------------------------------------------
  

 Cite this work as:
 Gaussian 16, Revision C.02,
 M. J. Frisch, G. W. Trucks, H. B. Schlegel, G. E. Scuseria, 
 M. A. Robb, J. R. Cheeseman, G. Scalmani, V. Barone, 
 G. A. Petersson, H. Nakatsuji, X. Li, M. Caricato, A. V. Marenich, 
 J. Bloino, B. G. Janesko, R. Gomperts, B. Mennucci, H. P. Hratchian, 
 J. V. Ortiz, A. F. Izmaylov, J. L. Sonnenberg, D. Williams-Young, 
 F. Ding, F. Lipparini, F. Egidi, J. Goings, B. Peng, A. Petrone, 
 T. Henderson, D. Ranasinghe, V. G. Zakrzewski, J. Gao, N. Rega, 
 G. Zheng, W. Liang, M. Hada, M. Ehara, K. Toyota, R. Fukuda, 
 J. Hasegawa, M. Ishida, T. Nakajima, Y. Honda, O. Kitao, H. Nakai, 
 T. Vreven, K. Throssell, J. A. Montgomery, Jr., J. E. Peralta, 
 F. Ogliaro, M. J. Bearpark, J. J. Heyd, E. N. Brothers, K. N. Kudin, 
 V. N. Staroverov, T. A. Keith, R. Kobayashi, J. Normand, 
 K. Raghavachari, A. P. Rendell, J. C. Burant, S. S. Iyengar, 
 J. Tomasi, M. Cossi, J. M. Millam, M. Klene, C. Adamo, R. Cammi, 
 J. W. Ochterski, R. L. Martin, K. Morokuma, O. Farkas, 
 J. B. Foresman, and D. J. Fox, Gaussian, Inc., Wallingford CT, 2019.
 
 ******************************************
 Gaussian 16:  ES64L-G16RevC.02  7-Dec-2021
                30-Jun-2023 
 ******************************************
 %mem=8GB
 %NPROCS=4
 Will use up to    4 processors via shared memory.
 %NoSave
 ---------------------------------------------------------
 #MP2/6-31G* SCF=Tight Opt=(ModRedun, MaxCycle=20 ) NoSymm
 ---------------------------------------------------------
 1/6=20,18=120,19=15,38=1/1,3;
 2/9=110,12=2,15=1,17=6,18=5,40=1/2;
 3/5=1,6=6,7=1,11=9,25=1,30=1,71=1/1,2,3;
 4//1;
 5/5=2,32=2,38=5/2;
 8/6=4,10=2/1;
 9/15=2,16=-3/6;
 10/5=1,31=1/2;
 6/7=2,8=2,9=2,10=2/1;
 7/12=2,30=1/1,2,3,16;
 1/6=20,18=20,19=15/3(2);
 2/9=110,15=1/2;
 99//99;
 2/9=110,15=1/2;
 3/5=1,6=6,7=1,11=9,25=1,30=1,71=1/1,2,3;
 4/5=5,16=3,69=1/1;
 5/5=2,32=2,38=5/2;
 8/6=4,10=2/1;
 9/15=2,16=-3/6;
 10/5=1,31=1/2;
 7/12=2,30=1/1,2,3,16;
 1/6=20,18=20,19=15/3(-8);
 2/9=110,15=1/2;
 6/7=2,8=2,9=2,10=2/1;
 99/9=10/99;
 --------
 MolName:
 --------
 Symbolic Z-matrix:
 Charge =  0 Multiplicity = 1
 8                    0    -3.67875  -0.67737  -1.11142 
 7                    0    -3.20261  -0.28204  -0.05022 
 8                    0    -3.84163   0.04247   0.94898 
 6                    0    -1.73649  -0.01176  -0.04294 
 6                    0    -1.3801    1.31045   0.21639 
 7                    0    -0.09682   1.7729    0.34563 
 6                    0     1.18568   1.0026    0.33892 
 1                    0     1.8513    1.53083   1.0698 
 6                    0     1.94152   1.007    -1.01326 
 6                    0     3.35805   0.43582  -0.81113 
 6                    0     3.3084   -0.95706  -0.16347 
 6                    0     2.46871  -0.94686   1.13199 
 6                    0     1.02666  -0.43125   0.87262 
 1                    0     0.48342  -0.43537   1.84669 
 7                    0     0.37038  -1.34715  -0.06653 
 6                    0    -0.87445  -1.16872  -0.36377 
 1                    0    -2.18745   2.04401   0.38022 
 1                    0     0.13378   2.75259   0.16344 
 1                    0     1.39015   0.39816  -1.76114 
 1                    0     2.0194    2.04329  -1.40529 
 1                    0     3.88659   0.37811  -1.78781 
 1                    0     3.93575   1.11853  -0.1487 
 1                    0     2.86089  -1.67684  -0.88554 
 1                    0     4.33998  -1.30629   0.06042 
 1                    0     2.4201   -1.97833   1.54479 
 1                    0     2.96295  -0.30238   1.88884 
 1                    0    -1.38939  -1.95335  -0.93951 
 
 The following ModRedundant input section has been read:
 D       1       2       4      16 F                                           
 D       7      13      15      16 F                                           
 D       7       9      10      11 F                                           
 D       9      10      11      12 F                                           
 D       6       7      13      15 F                                           
 

 GradGradGradGradGradGradGradGradGradGradGradGradGradGradGradGradGradGrad
 Berny optimization.
 Initialization pass.
                           ----------------------------
                           !    Initial Parameters    !
                           ! (Angstroms and Degrees)  !
 --------------------------                            --------------------------
 ! Name  Definition              Value          Derivative Info.                !
 --------------------------------------------------------------------------------
 ! R1    R(1,2)                  1.2285         estimate D2E/DX2                !
 ! R2    R(2,3)                  1.2297         estimate D2E/DX2                !
 ! R3    R(2,4)                  1.4908         estimate D2E/DX2                !
 ! R4    R(4,5)                  1.3937         estimate D2E/DX2                !
 ! R5    R(4,16)                 1.478          estimate D2E/DX2                !
 ! R6    R(5,6)                  1.3702         estimate D2E/DX2                !
 ! R7    R(5,17)                 1.1031         estimate D2E/DX2                !
 ! R8    R(6,7)                  1.4961         estimate D2E/DX2                !
 ! R9    R(6,18)                 1.0228         estimate D2E/DX2                !
 ! R10   R(7,8)                  1.1208         estimate D2E/DX2                !
 ! R11   R(7,9)                  1.5491         estimate D2E/DX2                !
 ! R12   R(7,13)                 1.5382         estimate D2E/DX2                !
 ! R13   R(9,10)                 1.5407         estimate D2E/DX2                !
 ! R14   R(9,19)                 1.1109         estimate D2E/DX2                !
 ! R15   R(9,20)                 1.1107         estimate D2E/DX2                !
 ! R16   R(10,11)                1.5369         estimate D2E/DX2                !
 ! R17   R(10,21)                1.112          estimate D2E/DX2                !
 ! R18   R(10,22)                1.1129         estimate D2E/DX2                !
 ! R19   R(11,12)                1.5438         estimate D2E/DX2                !
 ! R20   R(11,23)                1.1134         estimate D2E/DX2                !
 ! R21   R(11,24)                1.1119         estimate D2E/DX2                !
 ! R22   R(12,13)                1.5533         estimate D2E/DX2                !
 ! R23   R(12,25)                1.1121         estimate D2E/DX2                !
 ! R24   R(12,26)                1.1102         estimate D2E/DX2                !
 ! R25   R(13,14)                1.1153         estimate D2E/DX2                !
 ! R26   R(13,15)                1.4668         estimate D2E/DX2                !
 ! R27   R(15,16)                1.2922         estimate D2E/DX2                !
 ! R28   R(16,27)                1.101          estimate D2E/DX2                !
 ! A1    A(1,2,3)              125.8347         estimate D2E/DX2                !
 ! A2    A(1,2,4)              116.3415         estimate D2E/DX2                !
 ! A3    A(3,2,4)              117.3383         estimate D2E/DX2                !
 ! A4    A(2,4,5)              115.1105         estimate D2E/DX2                !
 ! A5    A(2,4,16)             115.505          estimate D2E/DX2                !
 ! A6    A(5,4,16)             129.3344         estimate D2E/DX2                !
 ! A7    A(4,5,6)              125.2562         estimate D2E/DX2                !
 ! A8    A(4,5,17)             118.123          estimate D2E/DX2                !
 ! A9    A(6,5,17)             116.5537         estimate D2E/DX2                !
 ! A10   A(5,6,7)              128.9529         estimate D2E/DX2                !
 ! A11   A(5,6,18)             121.1738         estimate D2E/DX2                !
 ! A12   A(7,6,18)             107.4037         estimate D2E/DX2                !
 ! A13   A(6,7,8)              105.2782         estimate D2E/DX2                !
 ! A14   A(6,7,9)              114.8803         estimate D2E/DX2                !
 ! A15   A(6,7,13)             112.9406         estimate D2E/DX2                !
 ! A16   A(8,7,9)              106.1467         estimate D2E/DX2                !
 ! A17   A(8,7,13)             105.9296         estimate D2E/DX2                !
 ! A18   A(9,7,13)             110.8516         estimate D2E/DX2                !
 ! A19   A(7,9,10)             109.4532         estimate D2E/DX2                !
 ! A20   A(7,9,19)             110.1163         estimate D2E/DX2                !
 ! A21   A(7,9,20)             110.1789         estimate D2E/DX2                !
 ! A22   A(10,9,19)            109.9674         estimate D2E/DX2                !
 ! A23   A(10,9,20)            109.1315         estimate D2E/DX2                !
 ! A24   A(19,9,20)            107.9711         estimate D2E/DX2                !
 ! A25   A(9,10,11)            111.1973         estimate D2E/DX2                !
 ! A26   A(9,10,21)            109.9385         estimate D2E/DX2                !
 ! A27   A(9,10,22)            109.1425         estimate D2E/DX2                !
 ! A28   A(11,10,21)           109.7819         estimate D2E/DX2                !
 ! A29   A(11,10,22)           108.7773         estimate D2E/DX2                !
 ! A30   A(21,10,22)           107.9318         estimate D2E/DX2                !
 ! A31   A(10,11,12)           111.4197         estimate D2E/DX2                !
 ! A32   A(10,11,23)           109.0003         estimate D2E/DX2                !
 ! A33   A(10,11,24)           109.8492         estimate D2E/DX2                !
 ! A34   A(12,11,23)           109.2593         estimate D2E/DX2                !
 ! A35   A(12,11,24)           109.7388         estimate D2E/DX2                !
 ! A36   A(23,11,24)           107.4839         estimate D2E/DX2                !
 ! A37   A(11,12,13)           111.5326         estimate D2E/DX2                !
 ! A38   A(11,12,25)           109.2159         estimate D2E/DX2                !
 ! A39   A(11,12,26)           109.4974         estimate D2E/DX2                !
 ! A40   A(13,12,25)           109.2261         estimate D2E/DX2                !
 ! A41   A(13,12,26)           109.5394         estimate D2E/DX2                !
 ! A42   A(25,12,26)           107.7491         estimate D2E/DX2                !
 ! A43   A(7,13,12)            105.7471         estimate D2E/DX2                !
 ! A44   A(7,13,14)            110.9051         estimate D2E/DX2                !
 ! A45   A(7,13,15)            113.9637         estimate D2E/DX2                !
 ! A46   A(12,13,14)           107.7662         estimate D2E/DX2                !
 ! A47   A(12,13,15)           108.3619         estimate D2E/DX2                !
 ! A48   A(14,13,15)           109.8126         estimate D2E/DX2                !
 ! A49   A(13,15,16)           119.4766         estimate D2E/DX2                !
 ! A50   A(4,16,15)            128.3165         estimate D2E/DX2                !
 ! A51   A(4,16,27)            113.4879         estimate D2E/DX2                !
 ! A52   A(15,16,27)           118.1916         estimate D2E/DX2                !
 ! D1    D(1,2,4,5)            117.6704         estimate D2E/DX2                !
 ! D2    D(1,2,4,16)           -60.0            Frozen                          !
 ! D3    D(3,2,4,5)            -54.8087         estimate D2E/DX2                !
 ! D4    D(3,2,4,16)           127.521          estimate D2E/DX2                !
 ! D5    D(2,4,5,6)            176.158          estimate D2E/DX2                !
 ! D6    D(2,4,5,17)            -0.7517         estimate D2E/DX2                !
 ! D7    D(16,4,5,6)            -6.5607         estimate D2E/DX2                !
 ! D8    D(16,4,5,17)          176.5296         estimate D2E/DX2                !
 ! D9    D(2,4,16,15)         -157.9811         estimate D2E/DX2                !
 ! D10   D(2,4,16,27)           22.7632         estimate D2E/DX2                !
 ! D11   D(5,4,16,15)           24.7464         estimate D2E/DX2                !
 ! D12   D(5,4,16,27)         -154.5092         estimate D2E/DX2                !
 ! D13   D(4,5,6,7)             -4.5918         estimate D2E/DX2                !
 ! D14   D(4,5,6,18)           155.2298         estimate D2E/DX2                !
 ! D15   D(17,5,6,7)           172.3614         estimate D2E/DX2                !
 ! D16   D(17,5,6,18)          -27.817          estimate D2E/DX2                !
 ! D17   D(5,6,7,8)           -144.55           estimate D2E/DX2                !
 ! D18   D(5,6,7,9)             99.061          estimate D2E/DX2                !
 ! D19   D(5,6,7,13)           -29.4271         estimate D2E/DX2                !
 ! D20   D(18,6,7,8)            53.4667         estimate D2E/DX2                !
 ! D21   D(18,6,7,9)           -62.9223         estimate D2E/DX2                !
 ! D22   D(18,6,7,13)          168.5896         estimate D2E/DX2                !
 ! D23   D(6,7,9,10)           168.5431         estimate D2E/DX2                !
 ! D24   D(6,7,9,19)           -70.4558         estimate D2E/DX2                !
 ! D25   D(6,7,9,20)            48.5355         estimate D2E/DX2                !
 ! D26   D(8,7,9,10)            52.6519         estimate D2E/DX2                !
 ! D27   D(8,7,9,19)           173.6531         estimate D2E/DX2                !
 ! D28   D(8,7,9,20)           -67.3556         estimate D2E/DX2                !
 ! D29   D(13,7,9,10)          -61.9322         estimate D2E/DX2                !
 ! D30   D(13,7,9,19)           59.0689         estimate D2E/DX2                !
 ! D31   D(13,7,9,20)          178.0603         estimate D2E/DX2                !
 ! D32   D(6,7,13,12)         -166.063          estimate D2E/DX2                !
 ! D33   D(6,7,13,14)          -49.5067         estimate D2E/DX2                !
 ! D34   D(6,7,13,15)           75.0224         Frozen                          !
 ! D35   D(8,7,13,12)          -51.3315         estimate D2E/DX2                !
 ! D36   D(8,7,13,14)           65.2248         estimate D2E/DX2                !
 ! D37   D(8,7,13,15)         -170.2461         estimate D2E/DX2                !
 ! D38   D(9,7,13,12)           63.3886         estimate D2E/DX2                !
 ! D39   D(9,7,13,14)          179.9449         estimate D2E/DX2                !
 ! D40   D(9,7,13,15)          -55.526          estimate D2E/DX2                !
 ! D41   D(7,9,10,11)           54.8124         Frozen                          !
 ! D42   D(7,9,10,21)          176.604          estimate D2E/DX2                !
 ! D43   D(7,9,10,22)          -65.1926         estimate D2E/DX2                !
 ! D44   D(19,9,10,11)         -66.2789         estimate D2E/DX2                !
 ! D45   D(19,9,10,21)          55.5127         estimate D2E/DX2                !
 ! D46   D(19,9,10,22)         173.7161         estimate D2E/DX2                !
 ! D47   D(20,9,10,11)         175.4595         estimate D2E/DX2                !
 ! D48   D(20,9,10,21)         -62.7489         estimate D2E/DX2                !
 ! D49   D(20,9,10,22)          55.4545         estimate D2E/DX2                !
 ! D50   D(9,10,11,12)         -52.8227         Frozen                          !
 ! D51   D(9,10,11,23)          67.8287         estimate D2E/DX2                !
 ! D52   D(9,10,11,24)        -174.6473         estimate D2E/DX2                !
 ! D53   D(21,10,11,12)       -174.7054         estimate D2E/DX2                !
 ! D54   D(21,10,11,23)        -54.054          estimate D2E/DX2                !
 ! D55   D(21,10,11,24)         63.47           estimate D2E/DX2                !
 ! D56   D(22,10,11,12)         67.3986         estimate D2E/DX2                !
 ! D57   D(22,10,11,23)       -171.9501         estimate D2E/DX2                !
 ! D58   D(22,10,11,24)        -54.426          estimate D2E/DX2                !
 ! D59   D(10,11,12,13)         56.7135         estimate D2E/DX2                !
 ! D60   D(10,11,12,25)        177.5384         estimate D2E/DX2                !
 ! D61   D(10,11,12,26)        -64.6941         estimate D2E/DX2                !
 ! D62   D(23,11,12,13)        -63.7858         estimate D2E/DX2                !
 ! D63   D(23,11,12,25)         57.0391         estimate D2E/DX2                !
 ! D64   D(23,11,12,26)        174.8066         estimate D2E/DX2                !
 ! D65   D(24,11,12,13)        178.602          estimate D2E/DX2                !
 ! D66   D(24,11,12,25)        -60.5731         estimate D2E/DX2                !
 ! D67   D(24,11,12,26)         57.1944         estimate D2E/DX2                !
 ! D68   D(11,12,13,7)         -60.5029         estimate D2E/DX2                !
 ! D69   D(11,12,13,14)       -179.1654         estimate D2E/DX2                !
 ! D70   D(11,12,13,15)         62.0601         estimate D2E/DX2                !
 ! D71   D(25,12,13,7)         178.6781         estimate D2E/DX2                !
 ! D72   D(25,12,13,14)         60.0156         estimate D2E/DX2                !
 ! D73   D(25,12,13,15)        -58.7588         estimate D2E/DX2                !
 ! D74   D(26,12,13,7)          60.8803         estimate D2E/DX2                !
 ! D75   D(26,12,13,14)        -57.7822         estimate D2E/DX2                !
 ! D76   D(26,12,13,15)       -176.5567         estimate D2E/DX2                !
 ! D77   D(7,13,15,16)         -67.1596         Frozen                          !
 ! D78   D(12,13,15,16)        175.4241         estimate D2E/DX2                !
 ! D79   D(14,13,15,16)         57.9524         estimate D2E/DX2                !
 ! D80   D(13,15,16,4)          10.3683         estimate D2E/DX2                !
 ! D81   D(13,15,16,27)       -170.4063         estimate D2E/DX2                !
 --------------------------------------------------------------------------------
 Trust Radius=3.00D-01 FncErr=1.00D-07 GrdErr=1.00D-07 EigMax=2.50D+02 EigMin=1.00D-04
 Number of steps in this run=     20 maximum allowed number of steps=    162.
 GradGradGradGradGradGradGradGradGradGradGradGradGradGradGradGradGradGrad

                          Input orientation:                          
 ---------------------------------------------------------------------
 Center     Atomic      Atomic             Coordinates (Angstroms)
 Number     Number       Type             X           Y           Z
 ---------------------------------------------------------------------
      1          8           0       -3.678750   -0.677370   -1.111420
      2          7           0       -3.202610   -0.282040   -0.050220
      3          8           0       -3.841630    0.042470    0.948980
      4          6           0       -1.736490   -0.011760   -0.042940
      5          6           0       -1.380100    1.310450    0.216390
      6          7           0       -0.096820    1.772900    0.345630
      7          6           0        1.185680    1.002600    0.338920
      8          1           0        1.851300    1.530830    1.069800
      9          6           0        1.941520    1.007000   -1.013260
     10          6           0        3.358050    0.435820   -0.811130
     11          6           0        3.308400   -0.957060   -0.163470
     12          6           0        2.468710   -0.946860    1.131990
     13          6           0        1.026660   -0.431250    0.872620
     14          1           0        0.483420   -0.435370    1.846690
     15          7           0        0.370380   -1.347150   -0.066530
     16          6           0       -0.874450   -1.168720   -0.363770
     17          1           0       -2.187450    2.044010    0.380220
     18          1           0        0.133780    2.752590    0.163440
     19          1           0        1.390150    0.398160   -1.761140
     20          1           0        2.019400    2.043290   -1.405290
     21          1           0        3.886590    0.378110   -1.787810
     22          1           0        3.935750    1.118530   -0.148700
     23          1           0        2.860890   -1.676840   -0.885540
     24          1           0        4.339980   -1.306290    0.060420
     25          1           0        2.420100   -1.978330    1.544790
     26          1           0        2.962950   -0.302380    1.888840
     27          1           0       -1.389390   -1.953350   -0.939510
 ---------------------------------------------------------------------
                    Distance matrix (angstroms):
                    1          2          3          4          5
     1  O    0.000000
     2  N    1.228471   0.000000
     3  O    2.188595   1.229656   0.000000
     4  C    2.314532   1.490843   2.327759   0.000000
     5  C    3.316368   2.434882   2.864191   1.393738   0.000000
     6  N    4.577886   3.745051   4.169175   2.454489   1.370172
     7  C    5.346818   4.588989   5.154403   3.116700   2.587086
     8  H    6.341555   5.484792   5.885513   4.060789   3.349451
     9  C    5.868064   5.389911   6.182680   3.937912   3.554895
    10  C    7.130633   6.643536   7.422136   5.171536   4.926544
    11  C    7.056706   6.546887   7.304761   5.134105   5.221870
    12  C    6.549563   5.831250   6.390044   4.465264   4.554900
    13  C    5.112521   4.331353   4.891880   2.940956   3.042474
    14  H    5.112009   4.148324   4.443003   2.945870   3.029599
    15  N    4.235074   3.728402   4.550091   2.494539   3.194849
    16  C    2.943553   2.510945   3.463301   1.478040   2.595872
    17  H    3.443091   2.574167   2.658188   2.146770   1.103071
    18  H    5.284437   4.515100   4.875009   3.343970   2.091508
    19  H    5.222322   4.948067   5.902778   3.591117   3.523802
    20  H    6.321176   5.874756   6.625522   4.492876   3.837121
    21  H    7.668501   7.328832   8.205368   5.900474   5.711751
    22  H    7.882430   7.275127   7.927827   5.784725   5.331828
    23  H    6.619430   6.277679   7.158580   4.961690   5.303220
    24  H    8.128270   7.612621   8.339510   6.213693   6.292136
    25  H    6.778194   6.085748   6.606655   4.864722   5.198292
    26  H    7.297558   6.463319   6.877832   5.089300   4.925484
    27  H    2.626566   2.621427   3.682821   2.166584   3.462453
                    6          7          8          9         10
     6  N    0.000000
     7  C    1.496066   0.000000
     8  H    2.092413   1.120831   0.000000
     9  C    2.566713   1.549098   2.149808   0.000000
    10  C    3.880980   2.522508   2.647119   1.540669   0.000000
    11  C    4.394017   2.932338   3.135872   2.539298   1.536894
    12  C    3.820654   2.464857   2.554214   2.949169   2.545279
    13  C    2.529467   1.538197   2.137445   2.542061   3.003698
    14  H    2.732456   2.198704   2.518054   3.519347   4.010795
    15  N    3.181645   2.520006   3.430326   2.984426   3.558031
    16  C    3.124274   3.074498   4.095413   3.617358   4.548487
    17  H    2.108419   3.530474   4.129210   4.479461   5.895605
    18  H    1.022821   2.049330   2.294354   2.774821   4.088169
    19  H    2.922237   2.194859   3.083800   1.110864   2.185536
    20  H    2.759931   2.195539   2.533169   1.110698   2.174619
    21  H    4.729118   3.493978   3.692845   2.186030   1.112020
    22  H    4.115116   2.795371   2.449421   2.176432   1.112944
    23  H    4.707922   3.388957   3.889958   2.839815   2.171644
    24  H    5.408137   3.918947   3.906613   3.500958   2.181452
    25  H    4.673820   3.444395   3.586552   3.960411   3.501175
    26  H    4.006305   2.695165   2.295049   3.343648   2.826815
    27  H    4.148164   4.123471   5.165163   4.456913   5.316277
                   11         12         13         14         15
    11  C    0.000000
    12  C    1.543826   0.000000
    13  C    2.560527   1.553266   0.000000
    14  H    3.506197   2.171127   1.115320   0.000000
    15  N    2.965389   2.449423   1.466826   2.122388   0.000000
    16  C    4.192989   3.669229   2.384689   2.695876   1.292204
    17  H    6.285411   5.584827   4.086548   3.928283   4.271071
    18  H    4.893525   4.480616   3.381865   3.621970   4.112996
    19  H    2.840573   3.367873   2.785092   3.812266   2.637753
    20  H    3.493671   3.947235   3.506815   4.367879   4.000829
    21  H    2.180702   3.505875   3.989004   5.045087   4.278208
    22  H    2.168377   2.838698   3.450756   4.279576   4.335688
    23  H    1.113433   2.181078   2.829668   3.828667   2.642369
    24  H    1.111866   2.186116   3.521854   4.338469   3.971840
    25  H    2.179500   1.112069   2.187909   2.494514   2.682553
    26  H    2.181724   1.110157   2.190555   2.483452   3.411222
    27  H    4.864572   4.493225   3.381997   3.684371   2.055812
                   16         17         18         19         20
    16  C    0.000000
    17  H    3.549524   0.000000
    18  H    4.083032   2.436635   0.000000
    19  H    3.088069   4.482574   3.290261   0.000000
    20  H    4.447037   4.570080   2.553347   1.796952   0.000000
    21  H    5.204621   6.661046   4.850682   2.496663   2.530918
    22  H    5.330646   6.215291   4.150007   3.098221   2.471153
    23  H    3.805679   6.397860   5.306349   2.689866   3.849365
    24  H    5.233464   7.343986   5.846130   3.863254   4.330483
    25  H    3.892574   6.226151   5.432954   4.199723   5.003695
    26  H    4.533259   5.857312   4.507111   4.035692   4.152559
    27  H    1.101038   4.284562   5.067782   3.732361   5.273512
                   21         22         23         24         25
    21  H    0.000000
    22  H    1.799255   0.000000
    23  H    2.467584   3.084210   0.000000
    24  H    2.541401   2.467161   1.794395   0.000000
    25  H    4.337006   3.841308   2.488312   2.518121   0.000000
    26  H    3.851484   2.667751   3.097861   2.499433   1.794955
    27  H    5.830204   6.198302   4.259607   5.851857   4.548031
                   26         27
    26  H    0.000000
    27  H    5.446846   0.000000
 Symmetry turned off by external request.
 Stoichiometry    C9H13N3O2
 Framework group  C1[X(C9H13N3O2)]
 Deg. of freedom    75
 Full point group                 C1      NOp   1
 Rotational constants (GHZ):           1.6672016           0.3973000           0.3703408
 Standard basis: 6-31G(d) (6D, 7F)
   236 basis functions,   444 primitive gaussians,   236 cartesian basis functions
    52 alpha electrons       52 beta electrons
       nuclear repulsion energy       920.1731321977 Hartrees.
 NAtoms=   27 NActive=   27 NUniq=   27 SFac= 1.00D+00 NAtFMM=   60 NAOKFM=F Big=F
 Integral buffers will be    131072 words long.
 Raffenetti 1 integral format.
 Two-electron integral symmetry is turned off.
 One-electron integrals computed using PRISM.
 NBasis=   236 RedAO= T EigKep=  1.72D-03  NBF=   236
 NBsUse=   236 1.00D-06 EigRej= -1.00D+00 NBFU=   236
 ExpMin= 1.61D-01 ExpMax= 5.48D+03 ExpMxC= 8.25D+02 IAcc=3 IRadAn=         5 AccDes= 0.00D+00
 Harris functional with IExCor=  205 and IRadAn=       5 diagonalized for initial guess.
 HarFok:  IExCor=  205 AccDes= 0.00D+00 IRadAn=         5 IDoV= 1 UseB2=F ITyADJ=14
 ICtDFT=  3500011 ScaDFX=  1.000000  1.000000  1.000000  1.000000
 FoFCou: FMM=F IPFlag=           0 FMFlag=      100000 FMFlg1=           0
         NFxFlg=           0 DoJE=T BraDBF=F KetDBF=T FulRan=T
         wScrn=  0.000000 ICntrl=       500 IOpCl=  0 I1Cent=   200000004 NGrid=           0
         NMat0=    1 NMatS0=      1 NMatT0=    0 NMatD0=    1 NMtDS0=    0 NMtDT0=    0
 Symmetry not used in FoFCou.
 Keep R1 ints in memory in canonical form, NReq=397720213.
 Requested convergence on RMS density matrix=1.00D-08 within 128 cycles.
 Requested convergence on MAX density matrix=1.00D-06.
 Requested convergence on             energy=1.00D-06.
 No special actions if energy rises.
 SCF Done:  E(RHF) =  -661.273432900     A.U. after   17 cycles
            NFock= 17  Conv=0.50D-08     -V/T= 2.0035
 ExpMin= 1.61D-01 ExpMax= 5.48D+03 ExpMxC= 8.25D+02 IAcc=3 IRadAn=         5 AccDes= 0.00D+00
 HarFok:  IExCor=  205 AccDes= 0.00D+00 IRadAn=         5 IDoV=-2 UseB2=F ITyADJ=14
 ICtDFT= 12500011 ScaDFX=  1.000000  1.000000  1.000000  1.000000
 Range of M.O.s used for correlation:    15   236
 NBasis=   236 NAE=    52 NBE=    52 NFC=    14 NFV=     0
 NROrb=    222 NOA=    38 NOB=    38 NVA=   184 NVB=   184
 Fully direct method using O(ONN) memory.
 JobTyp=1 Pass  1:  I=  15 to  52 NPSUse=  4 ParTrn=T ParDer=T DoDerP=T.
 Spin components of T(2) and E(2):
     alpha-alpha T2 =       0.9190561330D-01 E2=     -0.2719239751D+00
     alpha-beta  T2 =       0.5011049818D+00 E2=     -0.1495607593D+01
     beta-beta   T2 =       0.9190561330D-01 E2=     -0.2719239751D+00
 ANorm=    0.1298043223D+01
 E2 =    -0.2039455543D+01 EUMP2 =    -0.66331288844339D+03
          IDoAtm=111111111111111111111111111
          Differentiating once with respect to electric field.
                with respect to dipole field.
          Differentiating once with respect to nuclear coordinates.
 Keep R1 ints in memory in canonical form, NReq=397723379.
          There are     1 degrees of freedom in the 1st order CPHF.  IDoFFX=0 NUNeed=     1.
 LinEq1:  Iter=  0 NonCon=     1 RMS=4.53D-03 Max=1.21D-01 NDo=     1
 AX will form     1 AO Fock derivatives at one time.
 LinEq1:  Iter=  1 NonCon=     1 RMS=1.52D-03 Max=3.72D-02 NDo=     1
 LinEq1:  Iter=  2 NonCon=     1 RMS=6.21D-04 Max=1.99D-02 NDo=     1
 LinEq1:  Iter=  3 NonCon=     1 RMS=2.83D-04 Max=5.65D-03 NDo=     1
 LinEq1:  Iter=  4 NonCon=     1 RMS=8.61D-05 Max=1.55D-03 NDo=     1
 LinEq1:  Iter=  5 NonCon=     1 RMS=3.47D-05 Max=1.31D-03 NDo=     1
 LinEq1:  Iter=  6 NonCon=     1 RMS=1.49D-05 Max=6.24D-04 NDo=     1
 LinEq1:  Iter=  7 NonCon=     1 RMS=6.04D-06 Max=1.11D-04 NDo=     1
 LinEq1:  Iter=  8 NonCon=     1 RMS=2.50D-06 Max=6.76D-05 NDo=     1
 LinEq1:  Iter=  9 NonCon=     1 RMS=1.03D-06 Max=3.04D-05 NDo=     1
 LinEq1:  Iter= 10 NonCon=     1 RMS=4.98D-07 Max=1.60D-05 NDo=     1
 LinEq1:  Iter= 11 NonCon=     1 RMS=1.84D-07 Max=4.69D-06 NDo=     1
 LinEq1:  Iter= 12 NonCon=     1 RMS=7.11D-08 Max=1.92D-06 NDo=     1
 LinEq1:  Iter= 13 NonCon=     1 RMS=2.24D-08 Max=5.07D-07 NDo=     1
 LinEq1:  Iter= 14 NonCon=     1 RMS=7.58D-09 Max=1.72D-07 NDo=     1
 LinEq1:  Iter= 15 NonCon=     1 RMS=2.73D-09 Max=5.67D-08 NDo=     1
 LinEq1:  Iter= 16 NonCon=     1 RMS=9.47D-10 Max=1.97D-08 NDo=     1
 LinEq1:  Iter= 17 NonCon=     1 RMS=2.93D-10 Max=3.81D-09 NDo=     1
 LinEq1:  Iter= 18 NonCon=     1 RMS=1.06D-10 Max=1.82D-09 NDo=     1
 LinEq1:  Iter= 19 NonCon=     0 RMS=3.36D-11 Max=7.50D-10 NDo=     1
 Linear equations converged to 1.000D-10 1.000D-09 after    19 iterations.
 End of Minotr F.D. properties file   721 does not exist.
 End of Minotr F.D. properties file   722 does not exist.
 End of Minotr F.D. properties file   788 does not exist.

 **********************************************************************

            Population analysis using the SCF Density.

 **********************************************************************

 Alpha  occ. eigenvalues --  -20.60432 -20.60284 -15.85111 -15.62661 -15.56768
 Alpha  occ. eigenvalues --  -11.35367 -11.30679 -11.29862 -11.29473 -11.27621
 Alpha  occ. eigenvalues --  -11.24405 -11.23729 -11.23296 -11.22751  -1.59181
 Alpha  occ. eigenvalues --   -1.38853  -1.28178  -1.22657  -1.13472  -1.08860
 Alpha  occ. eigenvalues --   -1.01688  -1.00654  -0.93788  -0.88975  -0.84732
 Alpha  occ. eigenvalues --   -0.81762  -0.78348  -0.77146  -0.74099  -0.71492
 Alpha  occ. eigenvalues --   -0.71137  -0.69061  -0.67135  -0.64337  -0.63054
 Alpha  occ. eigenvalues --   -0.61613  -0.60371  -0.57330  -0.56278  -0.54694
 Alpha  occ. eigenvalues --   -0.53533  -0.51007  -0.50148  -0.48809  -0.47886
 Alpha  occ. eigenvalues --   -0.47723  -0.46211  -0.45468  -0.44185  -0.42019
 Alpha  occ. eigenvalues --   -0.39885  -0.33003
 Alpha virt. eigenvalues --    0.08193   0.11258   0.18303   0.21015   0.22634
 Alpha virt. eigenvalues --    0.24076   0.25343   0.27681   0.28717   0.28837
 Alpha virt. eigenvalues --    0.29578   0.31010   0.31898   0.32401   0.33442
 Alpha virt. eigenvalues --    0.33919   0.34947   0.36298   0.37740   0.38477
 Alpha virt. eigenvalues --    0.40586   0.42063   0.44819   0.45141   0.45713
 Alpha virt. eigenvalues --    0.46765   0.50067   0.53575   0.57334   0.58393
 Alpha virt. eigenvalues --    0.62065   0.68869   0.69425   0.72192   0.73697
 Alpha virt. eigenvalues --    0.74567   0.75859   0.76253   0.77833   0.78624
 Alpha virt. eigenvalues --    0.79692   0.83260   0.84968   0.85877   0.88308
 Alpha virt. eigenvalues --    0.89223   0.89474   0.90877   0.92229   0.93274
 Alpha virt. eigenvalues --    0.94860   0.96996   0.99196   1.00489   1.01311
 Alpha virt. eigenvalues --    1.03829   1.05152   1.06395   1.07047   1.07829
 Alpha virt. eigenvalues --    1.09748   1.10570   1.11048   1.11766   1.12490
 Alpha virt. eigenvalues --    1.13200   1.13501   1.14888   1.15860   1.16112
 Alpha virt. eigenvalues --    1.16971   1.17816   1.18321   1.20887   1.22098
 Alpha virt. eigenvalues --    1.23274   1.23741   1.25817   1.26424   1.29214
 Alpha virt. eigenvalues --    1.31030   1.32320   1.33190   1.34463   1.36223
 Alpha virt. eigenvalues --    1.39800   1.41954   1.44656   1.44879   1.48952
 Alpha virt. eigenvalues --    1.53267   1.54832   1.59818   1.63677   1.67866
 Alpha virt. eigenvalues --    1.68916   1.70124   1.72728   1.74033   1.75240
 Alpha virt. eigenvalues --    1.78753   1.80078   1.85460   1.89035   1.90807
 Alpha virt. eigenvalues --    1.92571   1.97587   1.98072   1.99244   2.00587
 Alpha virt. eigenvalues --    2.02551   2.04639   2.07537   2.09041   2.12210
 Alpha virt. eigenvalues --    2.12695   2.15352   2.17448   2.19342   2.20811
 Alpha virt. eigenvalues --    2.22434   2.23112   2.25199   2.26033   2.27572
 Alpha virt. eigenvalues --    2.29842   2.31954   2.32946   2.34274   2.36722
 Alpha virt. eigenvalues --    2.37521   2.38934   2.40653   2.43827   2.44765
 Alpha virt. eigenvalues --    2.47690   2.49825   2.50742   2.57122   2.57605
 Alpha virt. eigenvalues --    2.60779   2.63604   2.66304   2.68340   2.69383
 Alpha virt. eigenvalues --    2.69678   2.70643   2.72942   2.75810   2.83369
 Alpha virt. eigenvalues --    2.84982   2.86816   2.90072   2.93934   2.95022
 Alpha virt. eigenvalues --    2.97448   2.99014   3.03301   3.05738   3.06158
 Alpha virt. eigenvalues --    3.08899   3.13289   3.18969   3.19719   3.24006
 Alpha virt. eigenvalues --    3.29650   3.33439   3.38536   3.40159   3.59282
 Alpha virt. eigenvalues --    4.12033   4.20095   4.24328   4.33135   4.43842
 Alpha virt. eigenvalues --    4.53375   4.59854   4.61746   4.71089   4.77184
 Alpha virt. eigenvalues --    4.97883   4.99382   5.03604   5.09912
          Condensed to atoms (all electrons):
               1          2          3          4          5          6
     1  O    8.307786   0.294367  -0.079732  -0.085941   0.000254  -0.000020
     2  N    0.294367   5.760908   0.304726   0.238851  -0.043879   0.001345
     3  O   -0.079732   0.304726   8.300246  -0.084822   0.005582   0.000155
     4  C   -0.085941   0.238851  -0.084822   5.244815   0.588245  -0.052462
     5  C    0.000254  -0.043879   0.005582   0.588245   4.626994   0.323266
     6  N   -0.000020   0.001345   0.000155  -0.052462   0.323266   7.169519
     7  C   -0.000004  -0.000100   0.000010   0.003126  -0.032045   0.208073
     8  H    0.000000   0.000002  -0.000000  -0.000174   0.002567  -0.049364
     9  C    0.000000  -0.000005   0.000000   0.000507   0.001633  -0.057774
    10  C    0.000000   0.000000  -0.000000  -0.000018  -0.000065   0.003389
    11  C   -0.000000  -0.000000   0.000000  -0.000021   0.000015  -0.000155
    12  C    0.000000   0.000002  -0.000000  -0.000054  -0.000119   0.003547
    13  C    0.000003  -0.000053  -0.000016  -0.010128   0.001222  -0.045763
    14  H    0.000001  -0.000071  -0.000003   0.002785   0.004947  -0.005539
    15  N    0.000221   0.001854  -0.000023  -0.066834  -0.005386   0.003197
    16  C    0.004848  -0.029085   0.002191   0.317710  -0.032635  -0.002421
    17  H    0.000088  -0.002337   0.004646  -0.037102   0.386414  -0.032284
    18  H    0.000002  -0.000052   0.000001   0.001337  -0.022568   0.327238
    19  H    0.000000   0.000000  -0.000000  -0.000803   0.000714   0.000679
    20  H    0.000000  -0.000000   0.000000  -0.000032   0.000045  -0.001490
    21  H   -0.000000  -0.000000   0.000000   0.000000   0.000001  -0.000060
    22  H    0.000000   0.000000  -0.000000  -0.000000  -0.000002  -0.000097
    23  H    0.000000  -0.000000   0.000000   0.000025   0.000000  -0.000024
    24  H    0.000000   0.000000  -0.000000   0.000000  -0.000000   0.000004
    25  H    0.000000  -0.000000   0.000000   0.000019  -0.000000  -0.000070
    26  H    0.000000  -0.000000   0.000000   0.000005  -0.000001  -0.000066
    27  H    0.004859   0.001126   0.000034  -0.071542   0.001833   0.000037
               7          8          9         10         11         12
     1  O   -0.000004   0.000000   0.000000   0.000000  -0.000000   0.000000
     2  N   -0.000100   0.000002  -0.000005   0.000000  -0.000000   0.000002
     3  O    0.000010  -0.000000   0.000000  -0.000000   0.000000  -0.000000
     4  C    0.003126  -0.000174   0.000507  -0.000018  -0.000021  -0.000054
     5  C   -0.032045   0.002567   0.001633  -0.000065   0.000015  -0.000119
     6  N    0.208073  -0.049364  -0.057774   0.003389  -0.000155   0.003547
     7  C    5.003311   0.415784   0.341670  -0.049475  -0.007621  -0.064624
     8  H    0.415784   0.548327  -0.060763   0.001320  -0.000286  -0.002912
     9  C    0.341670  -0.060763   5.181490   0.317725  -0.053091  -0.006048
    10  C   -0.049475   0.001320   0.317725   5.127450   0.332786  -0.060185
    11  C   -0.007621  -0.000286  -0.053091   0.332786   5.124364   0.330485
    12  C   -0.064624  -0.002912  -0.006048  -0.060185   0.330485   5.138296
    13  C    0.330525  -0.039561  -0.051465  -0.001557  -0.047992   0.367229
    14  H   -0.039890  -0.000940   0.003815  -0.000385   0.003943  -0.040564
    15  N   -0.060488   0.004049  -0.012669   0.001536  -0.007796  -0.074035
    16  C   -0.001053  -0.000072  -0.000442  -0.000052   0.000033   0.002475
    17  H    0.001579  -0.000027  -0.000073   0.000001   0.000000   0.000001
    18  H   -0.029237  -0.002704   0.000672  -0.000113   0.000011  -0.000134
    19  H   -0.035071   0.004092   0.386333  -0.032863  -0.002259   0.000635
    20  H   -0.041536  -0.001789   0.397193  -0.037394   0.004137  -0.000359
    21  H    0.004046  -0.000082  -0.035796   0.400017  -0.035909   0.004220
    22  H   -0.004247   0.003538  -0.045613   0.395862  -0.045619  -0.001262
    23  H    0.000432   0.000033  -0.001989  -0.040147   0.396679  -0.036755
    24  H   -0.000147  -0.000098   0.004385  -0.038489   0.400232  -0.037894
    25  H    0.004999  -0.000003  -0.000377   0.004106  -0.033985   0.395316
    26  H   -0.004450   0.001548   0.001046  -0.002403  -0.042249   0.394627
    27  H   -0.000383   0.000008  -0.000053   0.000004   0.000005  -0.000021
              13         14         15         16         17         18
     1  O    0.000003   0.000001   0.000221   0.004848   0.000088   0.000002
     2  N   -0.000053  -0.000071   0.001854  -0.029085  -0.002337  -0.000052
     3  O   -0.000016  -0.000003  -0.000023   0.002191   0.004646   0.000001
     4  C   -0.010128   0.002785  -0.066834   0.317710  -0.037102   0.001337
     5  C    0.001222   0.004947  -0.005386  -0.032635   0.386414  -0.022568
     6  N   -0.045763  -0.005539   0.003197  -0.002421  -0.032284   0.327238
     7  C    0.330525  -0.039890  -0.060488  -0.001053   0.001579  -0.029237
     8  H   -0.039561  -0.000940   0.004049  -0.000072  -0.000027  -0.002704
     9  C   -0.051465   0.003815  -0.012669  -0.000442  -0.000073   0.000672
    10  C   -0.001557  -0.000385   0.001536  -0.000052   0.000001  -0.000113
    11  C   -0.047992   0.003943  -0.007796   0.000033   0.000000   0.000011
    12  C    0.367229  -0.040564  -0.074035   0.002475   0.000001  -0.000134
    13  C    5.020965   0.403212   0.246170  -0.070341  -0.000051   0.003738
    14  H    0.403212   0.514585  -0.035181  -0.005730   0.000061   0.000012
    15  N    0.246170  -0.035181   6.932946   0.590897  -0.000045  -0.000113
    16  C   -0.070341  -0.005730   0.590897   4.699781   0.001452  -0.000195
    17  H   -0.000051   0.000061  -0.000045   0.001452   0.411160  -0.001967
    18  H    0.003738   0.000012  -0.000113  -0.000195  -0.001967   0.329215
    19  H   -0.006157   0.000062   0.006809   0.002133   0.000012  -0.000111
    20  H    0.003874  -0.000050   0.000080  -0.000035  -0.000001   0.002778
    21  H   -0.000385   0.000009  -0.000033   0.000002  -0.000000  -0.000000
    22  H    0.000325  -0.000043   0.000006  -0.000001   0.000000   0.000003
    23  H   -0.005851   0.000007   0.006765   0.000064   0.000000   0.000000
    24  H    0.004145  -0.000059   0.000038   0.000005   0.000000  -0.000000
    25  H   -0.034606  -0.002655   0.000884  -0.000058  -0.000000   0.000002
    26  H   -0.044562  -0.000912   0.004157  -0.000055   0.000000  -0.000001
    27  H    0.004808  -0.000176  -0.036669   0.402600  -0.000067   0.000002
              19         20         21         22         23         24
     1  O    0.000000   0.000000  -0.000000   0.000000   0.000000   0.000000
     2  N    0.000000  -0.000000  -0.000000   0.000000  -0.000000   0.000000
     3  O   -0.000000   0.000000   0.000000  -0.000000   0.000000  -0.000000
     4  C   -0.000803  -0.000032   0.000000  -0.000000   0.000025   0.000000
     5  C    0.000714   0.000045   0.000001  -0.000002   0.000000  -0.000000
     6  N    0.000679  -0.001490  -0.000060  -0.000097  -0.000024   0.000004
     7  C   -0.035071  -0.041536   0.004046  -0.004247   0.000432  -0.000147
     8  H    0.004092  -0.001789  -0.000082   0.003538   0.000033  -0.000098
     9  C    0.386333   0.397193  -0.035796  -0.045613  -0.001989   0.004385
    10  C   -0.032863  -0.037394   0.400017   0.395862  -0.040147  -0.038489
    11  C   -0.002259   0.004137  -0.035909  -0.045619   0.396679   0.400232
    12  C    0.000635  -0.000359   0.004220  -0.001262  -0.036755  -0.037894
    13  C   -0.006157   0.003874  -0.000385   0.000325  -0.005851   0.004145
    14  H    0.000062  -0.000050   0.000009  -0.000043   0.000007  -0.000059
    15  N    0.006809   0.000080  -0.000033   0.000006   0.006765   0.000038
    16  C    0.002133  -0.000035   0.000002  -0.000001   0.000064   0.000005
    17  H    0.000012  -0.000001  -0.000000   0.000000   0.000000   0.000000
    18  H   -0.000111   0.002778  -0.000000   0.000003   0.000000  -0.000000
    19  H    0.507144  -0.023857  -0.002599   0.003769   0.001655  -0.000070
    20  H   -0.023857   0.549767  -0.002639  -0.002951  -0.000050  -0.000090
    21  H   -0.002599  -0.002639   0.526955  -0.024772  -0.002826  -0.002073
    22  H    0.003769  -0.002951  -0.024772   0.569338   0.004069  -0.003589
    23  H    0.001655  -0.000050  -0.002826   0.004069   0.510622  -0.025047
    24  H   -0.000070  -0.000090  -0.002073  -0.003589  -0.025047   0.541777
    25  H   -0.000027   0.000011  -0.000086  -0.000082  -0.002083  -0.002397
    26  H    0.000023  -0.000035  -0.000073   0.002458   0.003821  -0.002754
    27  H    0.000076   0.000000  -0.000000   0.000000  -0.000021  -0.000000
              25         26         27
     1  O    0.000000   0.000000   0.004859
     2  N   -0.000000  -0.000000   0.001126
     3  O    0.000000   0.000000   0.000034
     4  C    0.000019   0.000005  -0.071542
     5  C   -0.000000  -0.000001   0.001833
     6  N   -0.000070  -0.000066   0.000037
     7  C    0.004999  -0.004450  -0.000383
     8  H   -0.000003   0.001548   0.000008
     9  C   -0.000377   0.001046  -0.000053
    10  C    0.004106  -0.002403   0.000004
    11  C   -0.033985  -0.042249   0.000005
    12  C    0.395316   0.394627  -0.000021
    13  C   -0.034606  -0.044562   0.004808
    14  H   -0.002655  -0.000912  -0.000176
    15  N    0.000884   0.004157  -0.036669
    16  C   -0.000058  -0.000055   0.402600
    17  H   -0.000000   0.000000  -0.000067
    18  H    0.000002  -0.000001   0.000002
    19  H   -0.000027   0.000023   0.000076
    20  H    0.000011  -0.000035   0.000000
    21  H   -0.000086  -0.000073  -0.000000
    22  H   -0.000082   0.002458   0.000000
    23  H   -0.002083   0.003821  -0.000021
    24  H   -0.002397  -0.002754  -0.000000
    25  H    0.511741  -0.023187  -0.000010
    26  H   -0.023187   0.560618   0.000001
    27  H   -0.000010   0.000001   0.456461
 Mulliken charges:
               1
     1  O   -0.446731
     2  N    0.472401
     3  O   -0.452996
     4  C    0.012509
     5  C    0.192967
     6  N   -0.792863
     7  C    0.056816
     8  H    0.177508
     9  C   -0.310312
    10  C   -0.321052
    11  C   -0.315709
    12  C   -0.311867
    13  C   -0.027728
    14  H    0.198760
    15  N   -0.500334
    16  C    0.117987
    17  H    0.268540
    18  H    0.392186
    19  H    0.189679
    20  H    0.154424
    21  H    0.172085
    22  H    0.148909
    23  H    0.190620
    24  H    0.162122
    25  H    0.182550
    26  H    0.152444
    27  H    0.237087
 Sum of Mulliken charges =  -0.00000
 Mulliken charges with hydrogens summed into heavy atoms:
               1
     1  O   -0.446731
     2  N    0.472401
     3  O   -0.452996
     4  C    0.012509
     5  C    0.461507
     6  N   -0.400677
     7  C    0.234324
     9  C    0.033792
    10  C   -0.000059
    11  C    0.037032
    12  C    0.023127
    13  C    0.171032
    15  N   -0.500334
    16  C    0.355074
 Electronic spatial extent (au):  <R**2>=           3079.9056
 Charge=             -0.0000 electrons
 Dipole moment (field-independent basis, Debye):
    X=              4.7921    Y=              4.1292    Z=              0.4708  Tot=              6.3432
 Quadrupole moment (field-independent basis, Debye-Ang):
   XX=           -102.4932   YY=            -76.2352   ZZ=            -86.8988
   XY=             -1.5586   XZ=              0.6293   YZ=             -1.1987
 Traceless Quadrupole moment (field-independent basis, Debye-Ang):
   XX=            -13.9508   YY=             12.3072   ZZ=              1.6436
   XY=             -1.5586   XZ=              0.6293   YZ=             -1.1987
 Octapole moment (field-independent basis, Debye-Ang**2):
  XXX=             82.6286  YYY=             30.2161  ZZZ=             -3.4325  XYY=            -18.8060
  XXY=             14.0694  XXZ=              0.4403  XZZ=              7.6670  YZZ=             -1.7682
  YYZ=             -0.0595  XYZ=              3.0040
 Hexadecapole moment (field-independent basis, Debye-Ang**3):
 XXXX=          -3426.2736 YYYY=           -547.4259 ZZZZ=           -374.6468 XXXY=            -56.2914
 XXXZ=             15.3893 YYYX=              2.9180 YYYZ=              8.8809 ZZZX=              7.3795
 ZZZY=              5.6005 XXYY=           -577.9030 XXZZ=           -605.0081 YYZZ=           -166.7315
 XXYZ=            -11.4891 YYXZ=              5.7251 ZZXY=             -2.2086
 N-N= 9.201731321977D+02 E-N=-3.386439427923D+03  KE= 6.589705439648D+02
 Calling FoFJK, ICntrl=  10002127 FMM=F ISym2X=0 I1Cent= 0 IOpClX= 0 NMat=1 NMatS=1 NMatT=0.
 -------------------------------------------------------------------
 Center     Atomic                   Forces (Hartrees/Bohr)
 Number     Number              X              Y              Z
 -------------------------------------------------------------------
      1        8          -0.009294861   -0.018455697   -0.016444929
      2        7           0.036349926    0.026324881   -0.005712994
      3        8          -0.012095979    0.001834705    0.017912045
      4        6           0.005224818    0.004688375    0.009289749
      5        6           0.005479449   -0.021145905    0.000149123
      6        7           0.017822046   -0.004659233   -0.005480981
      7        6          -0.006000910    0.006055177    0.002783831
      8        1          -0.010184616   -0.001945864   -0.007516065
      9        6          -0.003818884   -0.000174199   -0.001938465
     10        6           0.002793879   -0.000830894    0.000831868
     11        6          -0.000800567   -0.004594610   -0.002103446
     12        6           0.000782749   -0.008954207   -0.002781558
     13        6           0.008666806   -0.000516945    0.002412049
     14        1           0.000646584    0.003648342   -0.010485829
     15        7           0.001162322   -0.003481645    0.005489658
     16        6          -0.014842260    0.014612837   -0.000562147
     17        1           0.009091463   -0.004829818   -0.002702050
     18        1          -0.016792573   -0.002369963    0.003903136
     19        1           0.003108945    0.006150498    0.007334011
     20        1          -0.003228668   -0.007348670    0.002963486
     21        1          -0.004247456    0.002728781    0.009551479
     22        1          -0.004016324   -0.004297681   -0.007188639
     23        1           0.003940027    0.006455155    0.009010998
     24        1          -0.009398726    0.002428799   -0.002187934
     25        1          -0.000903584    0.010490561   -0.002859499
     26        1          -0.004789222   -0.004994729   -0.004190298
     27        1           0.005345615    0.003181952    0.000523400
 -------------------------------------------------------------------
 Cartesian Forces:  Max     0.036349926 RMS     0.008972441

 GradGradGradGradGradGradGradGradGradGradGradGradGradGradGradGradGradGrad
 Berny optimization.
 FormGI is forming the generalized inverse of G from B-inverse, IUseBI=4.
 Internal  Forces:  Max     0.029809759 RMS     0.006289808
 Search for a local minimum.
 Step number   1 out of a maximum of   20
 All quantities printed in internal units (Hartrees-Bohrs-Radians)
 Mixed Optimization -- RFO/linear search
 Second derivative matrix not updated -- first step.
 ITU=  0
     Eigenvalues ---    0.00558   0.00769   0.01091   0.01177   0.01281
     Eigenvalues ---    0.01500   0.01539   0.01645   0.01998   0.02057
     Eigenvalues ---    0.02133   0.02673   0.03656   0.04507   0.04696
     Eigenvalues ---    0.04837   0.05072   0.05138   0.05301   0.05873
     Eigenvalues ---    0.06270   0.07215   0.07701   0.07718   0.07863
     Eigenvalues ---    0.07996   0.08044   0.08050   0.10460   0.11739
     Eigenvalues ---    0.12271   0.13441   0.15215   0.15685   0.15988
     Eigenvalues ---    0.16000   0.20097   0.22003   0.23247   0.24980
     Eigenvalues ---    0.25000   0.25000   0.25324   0.26142   0.26655
     Eigenvalues ---    0.27988   0.28082   0.28430   0.31480   0.31755
     Eigenvalues ---    0.32043   0.32239   0.32290   0.32382   0.32387
     Eigenvalues ---    0.32403   0.32509   0.32526   0.32583   0.33345
     Eigenvalues ---    0.33357   0.33568   0.33994   0.35233   0.43891
     Eigenvalues ---    0.45157   0.49417   0.67211   0.91230   0.91726
     Eigenvalues --- 1000.000001000.000001000.000001000.000001000.00000
     Eigenvalues --- 1000.000001000.000001000.000001000.000001000.00000
     Eigenvalues --- 1000.000001000.000001000.000001000.000001000.00000
     Eigenvalues --- 1000.000001000.000001000.000001000.000001000.00000
     Eigenvalues --- 1000.000001000.000001000.000001000.000001000.00000
     Eigenvalues --- 1000.000001000.000001000.000001000.000001000.00000
     Eigenvalues --- 1000.000001000.000001000.000001000.000001000.00000
     Eigenvalues --- 1000.000001000.000001000.000001000.000001000.00000
     Eigenvalues --- 1000.000001000.000001000.000001000.000001000.00000
     Eigenvalues --- 1000.000001000.000001000.000001000.000001000.00000
     Eigenvalues --- 1000.000001000.000001000.000001000.000001000.00000
     Eigenvalues --- 1000.000001000.000001000.000001000.000001000.00000
     Eigenvalues --- 1000.000001000.000001000.000001000.000001000.00000
     Eigenvalues --- 1000.000001000.000001000.000001000.000001000.00000
     Eigenvalues --- 1000.000001000.000001000.000001000.000001000.00000
     Eigenvalues --- 1000.000001000.000001000.000001000.000001000.00000
     Eigenvalues --- 1000.000001000.000001000.000001000.000001000.00000
     Eigenvalues --- 1000.000001000.000001000.000001000.000001000.00000
     Eigenvalues --- 1000.00000
 RFO step:  Lambda=-1.93321730D-02 EMin= 5.57618286D-03
 Linear search not attempted -- first point.
 Iteration  1 RMS(Cart)=  0.04881322 RMS(Int)=  0.00198146
 Iteration  2 RMS(Cart)=  0.00192594 RMS(Int)=  0.00072467
 Iteration  3 RMS(Cart)=  0.00000294 RMS(Int)=  0.00072467
 Iteration  4 RMS(Cart)=  0.00000001 RMS(Int)=  0.00072467
 Iteration  1 RMS(Cart)=  0.00001738 RMS(Int)=  0.00001807
 Iteration  2 RMS(Cart)=  0.00001185 RMS(Int)=  0.00001946
 Iteration  3 RMS(Cart)=  0.00000896 RMS(Int)=  0.00002199
 Iteration  4 RMS(Cart)=  0.00000721 RMS(Int)=  0.00002459
 Iteration  5 RMS(Cart)=  0.00000599 RMS(Int)=  0.00002698
 Iteration  6 RMS(Cart)=  0.00000504 RMS(Int)=  0.00002910
 Iteration  7 RMS(Cart)=  0.00000426 RMS(Int)=  0.00003096
 Iteration  8 RMS(Cart)=  0.00000361 RMS(Int)=  0.00003256
 Iteration  9 RMS(Cart)=  0.00000306 RMS(Int)=  0.00003394
 Iteration 10 RMS(Cart)=  0.00000259 RMS(Int)=  0.00003512
 Iteration 11 RMS(Cart)=  0.00000219 RMS(Int)=  0.00003613
 Iteration 12 RMS(Cart)=  0.00000185 RMS(Int)=  0.00003699
 Iteration 13 RMS(Cart)=  0.00000157 RMS(Int)=  0.00003773
 Iteration 14 RMS(Cart)=  0.00000132 RMS(Int)=  0.00003835
 Iteration 15 RMS(Cart)=  0.00000112 RMS(Int)=  0.00003888
 Iteration 16 RMS(Cart)=  0.00000094 RMS(Int)=  0.00003933
 Variable       Old X    -DE/DX   Delta X   Delta X   Delta X     New X
                                 (Linear)    (Quad)   (Total)
    R1        2.32147   0.02375   0.00000   0.02536   0.02536   2.34683
    R2        2.32371   0.02133   0.00000   0.02289   0.02289   2.34660
    R3        2.81728  -0.01645   0.00000  -0.04661  -0.04661   2.77067
    R4        2.63378  -0.02981   0.00000  -0.06355  -0.06337   2.57041
    R5        2.79309  -0.01952   0.00000  -0.05616  -0.05599   2.73710
    R6        2.58925  -0.02041   0.00000  -0.03896  -0.03890   2.55035
    R7        2.08450  -0.01027   0.00000  -0.02910  -0.02910   2.05540
    R8        2.82715  -0.02054   0.00000  -0.05691  -0.05698   2.77017
    R9        1.93285  -0.00675   0.00000  -0.01473  -0.01473   1.91812
   R10        2.11806  -0.01187   0.00000  -0.03551  -0.03551   2.08255
   R11        2.92737  -0.01283   0.00000  -0.04434  -0.04434   2.88303
   R12        2.90677  -0.00434   0.00000  -0.01001  -0.00997   2.89680
   R13        2.91144  -0.00459   0.00000  -0.01453  -0.01458   2.89686
   R14        2.09923  -0.00985   0.00000  -0.02860  -0.02860   2.07063
   R15        2.09891  -0.00813   0.00000  -0.02359  -0.02359   2.07533
   R16        2.90431  -0.00194   0.00000  -0.00739  -0.00746   2.89685
   R17        2.10141  -0.01055   0.00000  -0.03074  -0.03074   2.07068
   R18        2.10316  -0.00900   0.00000  -0.02630  -0.02630   2.07686
   R19        2.91741  -0.00916   0.00000  -0.02944  -0.02944   2.88797
   R20        2.10408  -0.01160   0.00000  -0.03395  -0.03395   2.07014
   R21        2.10112  -0.00992   0.00000  -0.02890  -0.02890   2.07222
   R22        2.93525  -0.01060   0.00000  -0.03689  -0.03684   2.89840
   R23        2.10151  -0.01075   0.00000  -0.03133  -0.03133   2.07017
   R24        2.09789  -0.00789   0.00000  -0.02285  -0.02285   2.07504
   R25        2.10765  -0.00949   0.00000  -0.02792  -0.02792   2.07973
   R26        2.77190  -0.00659   0.00000  -0.01501  -0.01526   2.75664
   R27        2.44191  -0.00434   0.00000  -0.00647  -0.00650   2.43541
   R28        2.08066  -0.00504   0.00000  -0.01420  -0.01420   2.06646
    A1        2.19623  -0.00255   0.00000  -0.00454  -0.00942   2.18681
    A2        2.03054   0.00274   0.00000   0.01503   0.01015   2.04069
    A3        2.04794   0.00188   0.00000   0.01184   0.00697   2.05491
    A4        2.00906  -0.00322   0.00000  -0.00802  -0.00845   2.00061
    A5        2.01594  -0.00058   0.00000   0.00164   0.00121   2.01716
    A6        2.25731   0.00374   0.00000   0.00807   0.00811   2.26542
    A7        2.18613   0.00924   0.00000   0.03488   0.03502   2.22116
    A8        2.06164  -0.00224   0.00000  -0.00345  -0.00372   2.05791
    A9        2.03424  -0.00694   0.00000  -0.03005  -0.03033   2.00391
   A10        2.25065  -0.00615   0.00000  -0.01865  -0.01870   2.23195
   A11        2.11488  -0.01154   0.00000  -0.06919  -0.06982   2.04506
   A12        1.87455   0.01775   0.00000   0.09830   0.09839   1.97294
   A13        1.83745  -0.00193   0.00000  -0.01711  -0.01687   1.82058
   A14        2.00504  -0.00060   0.00000  -0.01047  -0.01080   1.99424
   A15        1.97119   0.00099   0.00000  -0.00596  -0.00627   1.96492
   A16        1.85261   0.00269   0.00000   0.02565   0.02557   1.87818
   A17        1.84882   0.00111   0.00000   0.02405   0.02367   1.87250
   A18        1.93473  -0.00194   0.00000  -0.01062  -0.01032   1.92441
   A19        1.91032   0.00041   0.00000  -0.00526  -0.00538   1.90494
   A20        1.92189  -0.00071   0.00000  -0.01358  -0.01357   1.90833
   A21        1.92299  -0.00183   0.00000  -0.00721  -0.00721   1.91578
   A22        1.91929  -0.00052   0.00000   0.00549   0.00544   1.92473
   A23        1.90470   0.00302   0.00000   0.02628   0.02627   1.93097
   A24        1.88445  -0.00035   0.00000  -0.00528  -0.00555   1.87890
   A25        1.94076  -0.00098   0.00000   0.00549   0.00542   1.94618
   A26        1.91879  -0.00059   0.00000  -0.00659  -0.00661   1.91217
   A27        1.90490   0.00030   0.00000  -0.00296  -0.00303   1.90186
   A28        1.91606   0.00073   0.00000   0.00746   0.00749   1.92355
   A29        1.89852   0.00180   0.00000   0.01157   0.01158   1.91010
   A30        1.88377  -0.00124   0.00000  -0.01549  -0.01557   1.86819
   A31        1.94464   0.00069   0.00000   0.00549   0.00555   1.95019
   A32        1.90241   0.00058   0.00000   0.00638   0.00638   1.90880
   A33        1.91723   0.00043   0.00000   0.00557   0.00552   1.92275
   A34        1.90693  -0.00123   0.00000  -0.01533  -0.01536   1.89157
   A35        1.91530  -0.00043   0.00000   0.00044   0.00037   1.91567
   A36        1.87595  -0.00006   0.00000  -0.00294  -0.00299   1.87296
   A37        1.94661  -0.00294   0.00000  -0.01970  -0.01968   1.92693
   A38        1.90618   0.00244   0.00000   0.01694   0.01678   1.92296
   A39        1.91109   0.00146   0.00000   0.01469   0.01462   1.92571
   A40        1.90635   0.00023   0.00000  -0.00367  -0.00355   1.90280
   A41        1.91182  -0.00027   0.00000  -0.00426  -0.00416   1.90766
   A42        1.88058  -0.00084   0.00000  -0.00345  -0.00365   1.87692
   A43        1.84564   0.00474   0.00000   0.02373   0.02372   1.86936
   A44        1.93566  -0.00435   0.00000  -0.03076  -0.03135   1.90431
   A45        1.98904   0.00099   0.00000   0.01442   0.01506   2.00410
   A46        1.88088   0.00234   0.00000   0.03330   0.03364   1.91452
   A47        1.89127  -0.00437   0.00000  -0.03157  -0.03178   1.85950
   A48        1.91659   0.00085   0.00000  -0.00656  -0.00649   1.91010
   A49        2.08526  -0.00618   0.00000  -0.01145  -0.01208   2.07318
   A50        2.23955  -0.00143   0.00000  -0.00659  -0.00703   2.23252
   A51        1.98074   0.00358   0.00000   0.01900   0.01831   1.99905
   A52        2.06283  -0.00217   0.00000  -0.01310  -0.01372   2.04911
    D1        2.05374   0.01128   0.00000   0.03949   0.03914   2.09287
    D2       -1.04720   0.01262   0.00000   0.00000  -0.00000  -1.04720
    D3       -0.95659  -0.00444   0.00000  -0.13208  -0.13216  -1.08875
    D4        2.22566  -0.00309   0.00000  -0.17157  -0.17130   2.05436
    D5        3.07454   0.00251   0.00000   0.00417   0.00462   3.07915
    D6       -0.01312   0.00128   0.00000  -0.02654  -0.02672  -0.03984
    D7       -0.11451   0.00079   0.00000   0.05000   0.05028  -0.06422
    D8        3.08102  -0.00045   0.00000   0.01928   0.01895   3.09997
    D9       -2.75729  -0.00150   0.00000  -0.00750  -0.00726  -2.76456
   D10        0.39729  -0.00001   0.00000   0.05809   0.05849   0.45578
   D11        0.43191   0.00029   0.00000  -0.05325  -0.05307   0.37884
   D12       -2.69669   0.00178   0.00000   0.01233   0.01268  -2.68401
   D13       -0.08014  -0.00106   0.00000  -0.02598  -0.02552  -0.10567
   D14        2.70927   0.00236   0.00000   0.03287   0.03153   2.74080
   D15        3.00827   0.00028   0.00000   0.00500   0.00565   3.01392
   D16       -0.48550   0.00370   0.00000   0.06386   0.06270  -0.42280
   D17       -2.52287  -0.00066   0.00000  -0.00622  -0.00601  -2.52888
   D18        1.72894  -0.00238   0.00000  -0.02087  -0.02059   1.70835
   D19       -0.51360   0.00001   0.00000   0.00937   0.00913  -0.50447
   D20        0.93317   0.00039   0.00000  -0.03467  -0.03542   0.89775
   D21       -1.09820  -0.00132   0.00000  -0.04932  -0.05001  -1.14821
   D22        2.94244   0.00106   0.00000  -0.01908  -0.02028   2.92216
   D23        2.94163   0.00230   0.00000   0.03429   0.03407   2.97570
   D24       -1.22969   0.00147   0.00000   0.02913   0.02895  -1.20073
   D25        0.84711  -0.00055   0.00000   0.00967   0.00957   0.85667
   D26        0.91895   0.00324   0.00000   0.04424   0.04418   0.96312
   D27        3.03082   0.00241   0.00000   0.03908   0.03906   3.06988
   D28       -1.17558   0.00039   0.00000   0.01962   0.01967  -1.15590
   D29       -1.08092   0.00140   0.00000   0.00699   0.00705  -1.07387
   D30        1.03095   0.00057   0.00000   0.00184   0.00194   1.03289
   D31        3.10774  -0.00145   0.00000  -0.01763  -0.01745   3.09029
   D32       -2.89835  -0.00079   0.00000  -0.01499  -0.01470  -2.91305
   D33       -0.86406   0.00247   0.00000   0.02236   0.02220  -0.84185
   D34        1.30939   0.00089   0.00000   0.00000  -0.00001   1.30938
   D35       -0.89590  -0.00194   0.00000  -0.02417  -0.02411  -0.92001
   D36        1.13839   0.00132   0.00000   0.01317   0.01279   1.15118
   D37       -2.97136  -0.00026   0.00000  -0.00919  -0.00942  -2.98077
   D38        1.10634   0.00090   0.00000   0.01406   0.01417   1.12051
   D39        3.14063   0.00416   0.00000   0.05141   0.05107  -3.09148
   D40       -0.96911   0.00257   0.00000   0.02905   0.02886  -0.94025
   D41        0.95666   0.00082   0.00000   0.00000   0.00000   0.95666
   D42        3.08232   0.00068   0.00000   0.00860   0.00856   3.09089
   D43       -1.13782  -0.00100   0.00000  -0.01588  -0.01585  -1.15367
   D44       -1.15679   0.00176   0.00000   0.01669   0.01676  -1.14003
   D45        0.96888   0.00162   0.00000   0.02529   0.02532   0.99420
   D46        3.03192  -0.00006   0.00000   0.00082   0.00091   3.03283
   D47        3.06235   0.00068   0.00000   0.00414   0.00410   3.06644
   D48       -1.09518   0.00055   0.00000   0.01274   0.01266  -1.08252
   D49        0.96786  -0.00113   0.00000  -0.01173  -0.01175   0.95611
   D50       -0.92193  -0.00068   0.00000   0.00000   0.00000  -0.92193
   D51        1.18383  -0.00140   0.00000  -0.01143  -0.01143   1.17240
   D52       -3.04817  -0.00089   0.00000  -0.00804  -0.00806  -3.05623
   D53       -3.04918   0.00022   0.00000  -0.00041  -0.00041  -3.04959
   D54       -0.94342  -0.00050   0.00000  -0.01184  -0.01184  -0.95526
   D55        1.10776   0.00001   0.00000  -0.00846  -0.00847   1.09929
   D56        1.17633   0.00025   0.00000   0.00723   0.00725   1.18358
   D57       -3.00109  -0.00047   0.00000  -0.00420  -0.00418  -3.00528
   D58       -0.94991   0.00003   0.00000  -0.00081  -0.00081  -0.95072
   D59        0.98984  -0.00094   0.00000  -0.01144  -0.01141   0.97843
   D60        3.09863  -0.00091   0.00000  -0.01736  -0.01747   3.08116
   D61       -1.12913   0.00034   0.00000  -0.00313  -0.00305  -1.13217
   D62       -1.11327  -0.00128   0.00000  -0.01276  -0.01271  -1.12599
   D63        0.99552  -0.00126   0.00000  -0.01868  -0.01878   0.97674
   D64        3.05095  -0.00000   0.00000  -0.00445  -0.00435   3.04660
   D65        3.11719  -0.00023   0.00000  -0.00044  -0.00042   3.11678
   D66       -1.05720  -0.00021   0.00000  -0.00636  -0.00648  -1.06368
   D67        0.99823   0.00105   0.00000   0.00787   0.00795   1.00618
   D68       -1.05597  -0.00005   0.00000  -0.00231  -0.00233  -1.05831
   D69       -3.12703   0.00138   0.00000   0.00456   0.00415  -3.12288
   D70        1.08315   0.00147   0.00000   0.01117   0.01131   1.09446
   D71        3.11852  -0.00137   0.00000  -0.00843  -0.00840   3.11012
   D72        1.04747   0.00006   0.00000  -0.00157  -0.00192   1.04555
   D73       -1.02554   0.00014   0.00000   0.00505   0.00524  -1.02030
   D74        1.06256  -0.00033   0.00000   0.00037   0.00045   1.06301
   D75       -1.00849   0.00110   0.00000   0.00724   0.00693  -1.00156
   D76       -3.08150   0.00119   0.00000   0.01385   0.01409  -3.06740
   D77       -1.17216   0.00420   0.00000   0.00000  -0.00001  -1.17217
   D78        3.06173   0.00061   0.00000  -0.01714  -0.01702   3.04471
   D79        1.01146  -0.00015   0.00000  -0.03523  -0.03549   0.97597
   D80        0.18096  -0.00127   0.00000   0.01968   0.01959   0.20055
   D81       -2.97415  -0.00278   0.00000  -0.04837  -0.04759  -3.02174
         Item               Value     Threshold  Converged?
 Maximum Force            0.029487     0.000450     NO 
 RMS     Force            0.006191     0.000300     NO 
 Maximum Displacement     0.205052     0.001800     NO 
 RMS     Displacement     0.049315     0.001200     NO 
 Predicted change in Energy=-1.106068D-02
 GradGradGradGradGradGradGradGradGradGradGradGradGradGradGradGradGradGrad

                          Input orientation:                          
 ---------------------------------------------------------------------
 Center     Atomic      Atomic             Coordinates (Angstroms)
 Number     Number       Type             X           Y           Z
 ---------------------------------------------------------------------
      1          8           0       -3.617431   -0.664371   -1.127859
      2          7           0       -3.119318   -0.247991   -0.069182
      3          8           0       -3.738014   -0.066039    0.991996
      4          6           0       -1.673715   -0.003246   -0.066839
      5          6           0       -1.316641    1.280533    0.206224
      6          7           0       -0.066061    1.770261    0.338878
      7          6           0        1.196559    1.025499    0.342660
      8          1           0        1.831865    1.569999    1.059873
      9          6           0        1.921426    1.013675   -0.999721
     10          6           0        3.321091    0.417935   -0.810050
     11          6           0        3.258322   -0.968386   -0.158825
     12          6           0        2.444119   -0.949922    1.134342
     13          6           0        1.035024   -0.404282    0.871324
     14          1           0        0.465731   -0.378114    1.812824
     15          7           0        0.396929   -1.331837   -0.056268
     16          6           0       -0.844106   -1.154943   -0.355346
     17          1           0       -2.110433    2.008509    0.357780
     18          1           0        0.060417    2.765859    0.187015
     19          1           0        1.347961    0.415363   -1.716506
     20          1           0        1.986290    2.035924   -1.395796
     21          1           0        3.828811    0.358272   -1.779244
     22          1           0        3.913876    1.092970   -0.176965
     23          1           0        2.789042   -1.674628   -0.852405
     24          1           0        4.270927   -1.336088    0.045860
     25          1           0        2.364077   -1.962385    1.544958
     26          1           0        2.940296   -0.325120    1.888778
     27          1           0       -1.331023   -1.925457   -0.959508
 ---------------------------------------------------------------------
                    Distance matrix (angstroms):
                    1          2          3          4          5
     1  O    0.000000
     2  N    1.241888   0.000000
     3  O    2.205975   1.241769   0.000000
     4  C    2.311036   1.466177   2.320863   0.000000
     5  C    3.294854   2.379470   2.879885   1.360203   0.000000
     6  N    4.548734   3.682694   4.157138   2.427856   1.349586
     7  C    5.309670   4.518649   5.095401   3.076439   2.529789
     8  H    6.282786   5.393891   5.805582   4.004206   3.274996
     9  C    5.788886   5.278902   6.096063   3.850900   3.465631
    10  C    7.029615   6.516994   7.301546   5.067331   4.825500
    11  C    6.950355   6.418823   7.147541   5.026424   5.110889
    12  C    6.476224   5.735242   6.246622   4.392674   4.469860
    13  C    5.070475   4.262339   4.786529   2.894520   2.968381
    14  H    5.040017   4.051105   4.294488   2.872435   2.917040
    15  N    4.208195   3.679522   4.449591   2.460250   3.135236
    16  C    2.920406   2.465976   3.372795   1.448410   2.543657
    17  H    3.409173   2.508374   2.712011   2.101947   1.087669
    18  H    5.198263   4.388581   4.805801   3.277132   2.025550
    19  H    5.115414   4.807317   5.782290   3.468020   3.397869
    20  H    6.226160   5.748339   6.548852   4.395449   3.747858
    21  H    7.544310   7.181111   8.069489   5.774150   5.591809
    22  H    7.791857   7.160699   7.826953   5.695172   5.247887
    23  H    6.491486   6.128413   6.970784   4.829785   5.168201
    24  H    8.003438   7.470804   8.164028   6.093270   6.171981
    25  H    6.678865   5.967597   6.413846   4.768635   5.084920
    26  H    7.226270   6.368554   6.743231   5.021666   4.850837
    27  H    2.616551   2.608557   3.613780   2.146903   3.411379
                    6          7          8          9         10
     6  N    0.000000
     7  C    1.465911   0.000000
     8  H    2.040113   1.102038   0.000000
     9  C    2.512842   1.525634   2.135285   0.000000
    10  C    3.823823   2.492290   2.653612   1.532952   0.000000
    11  C    4.335830   2.911689   3.156486   2.534356   1.532945
    12  C    3.785916   2.466871   2.594301   2.946717   2.533924
    13  C    2.494900   1.532923   2.137356   2.509406   2.954516
    14  H    2.659104   2.160004   2.495676   3.459267   3.958060
    15  N    3.161252   2.521029   3.424247   2.952223   3.490074
    16  C    3.105498   3.066896   4.072956   3.572994   4.475441
    17  H    2.058294   3.450034   4.028267   4.369026   5.778858
    18  H    1.015024   2.084202   2.308677   2.818128   4.139913
    19  H    2.838981   2.152988   3.045591   1.095728   2.171384
    20  H    2.700336   2.160292   2.504245   1.098215   2.177769
    21  H    4.652976   3.446218   3.676501   2.162250   1.095754
    22  H    4.069977   2.767376   2.468216   2.157098   1.099028
    23  H    4.630122   3.354827   3.885948   2.828680   2.159558
    24  H    5.342727   3.888049   3.927160   3.483502   2.170569
    25  H    4.614417   3.425795   3.605037   3.940591   3.482508
    26  H    3.978818   2.693561   2.346738   3.342737   2.825032
    27  H    4.116341   4.097860   5.128350   4.383895   5.211141
                   11         12         13         14         15
    11  C    0.000000
    12  C    1.528250   0.000000
    13  C    2.514453   1.533770   0.000000
    14  H    3.469061   2.168253   1.100545   0.000000
    15  N    2.886206   2.398833   1.458750   2.099483   0.000000
    16  C    4.111367   3.615747   2.366292   2.649546   1.288762
    17  H    6.160545   5.486283   3.997398   3.801281   4.197168
    18  H    4.928568   4.515140   3.386434   3.562597   4.118682
    19  H    2.826767   3.345579   2.732511   3.723453   2.591054
    20  H    3.489132   3.940365   3.464007   4.293590   3.957552
    21  H    2.170539   3.481052   3.925843   4.975492   4.195584
    22  H    2.163162   2.837802   3.410053   4.244178   4.273544
    23  H    1.095470   2.142739   2.767959   3.765921   2.544315
    24  H    1.096572   2.161283   3.467092   4.303417   3.875347
    25  H    2.165776   1.095488   2.155887   2.487043   2.613654
    26  H    2.169703   1.098064   2.161375   2.476297   3.356397
    27  H    4.755961   4.425785   3.356203   3.648071   2.038148
                   16         17         18         19         20
    16  C    0.000000
    17  H    3.481316   0.000000
    18  H    4.060173   2.305500   0.000000
    19  H    3.020559   4.336043   3.287247   0.000000
    20  H    4.390365   4.456334   2.597514   1.771027   0.000000
    21  H    5.114045   6.524168   4.885022   2.482299   2.521197
    22  H    5.265294   6.116899   4.216655   3.068103   2.467853
    23  H    3.703634   6.247791   5.314481   2.681687   3.835085
    24  H    5.133941   7.211476   5.879991   3.836307   4.320695
    25  H    3.815175   6.099068   5.432048   4.162130   4.977673
    26  H    4.477320   5.770584   4.554542   4.010227   4.156090
    27  H    1.093523   4.221234   5.025840   3.637230   5.185311
                   21         22         23         24         25
    21  H    0.000000
    22  H    1.764743   0.000000
    23  H    2.464312   3.062853   0.000000
    24  H    2.529294   2.465251   1.765637   0.000000
    25  H    4.310593   3.834330   2.451683   2.505119   0.000000
    26  H    3.835475   2.688146   3.059106   2.487767   1.769428
    27  H    5.701866   6.101823   4.129082   5.721886   4.464021
                   26         27
    26  H    0.000000
    27  H    5.377544   0.000000
 Symmetry turned off by external request.
 Stoichiometry    C9H13N3O2
 Framework group  C1[X(C9H13N3O2)]
 Deg. of freedom    75
 Full point group                 C1      NOp   1
 Rotational constants (GHZ):           1.6733539           0.4106556           0.3828798
 Standard basis: 6-31G(d) (6D, 7F)
   236 basis functions,   444 primitive gaussians,   236 cartesian basis functions
    52 alpha electrons       52 beta electrons
       nuclear repulsion energy       930.5829736087 Hartrees.
 NAtoms=   27 NActive=   27 NUniq=   27 SFac= 1.00D+00 NAtFMM=   60 NAOKFM=F Big=F
 Integral buffers will be    131072 words long.
 Raffenetti 1 integral format.
 Two-electron integral symmetry is turned off.
 One-electron integrals computed using PRISM.
 NBasis=   236 RedAO= T EigKep=  1.51D-03  NBF=   236
 NBsUse=   236 1.00D-06 EigRej= -1.00D+00 NBFU=   236
 Initial guess from the checkpoint file:  "/home/alexey/tmp/Gau-1131590.chk"
 B after Tr=     0.040303   -0.005369    0.001539
         Rot=    0.999998   -0.001736   -0.000191   -0.001142 Ang=  -0.24 deg.
 ExpMin= 1.61D-01 ExpMax= 5.48D+03 ExpMxC= 8.25D+02 IAcc=3 IRadAn=         5 AccDes= 0.00D+00
 Harris functional with IExCor=  205 and IRadAn=       5 diagonalized for initial guess.
 HarFok:  IExCor=  205 AccDes= 0.00D+00 IRadAn=         5 IDoV= 1 UseB2=F ITyADJ=14
 ICtDFT=  3500011 ScaDFX=  1.000000  1.000000  1.000000  1.000000
 FoFCou: FMM=F IPFlag=           0 FMFlag=      100000 FMFlg1=           0
         NFxFlg=           0 DoJE=T BraDBF=F KetDBF=T FulRan=T
         wScrn=  0.000000 ICntrl=       500 IOpCl=  0 I1Cent=   200000004 NGrid=           0
         NMat0=    1 NMatS0=      1 NMatT0=    0 NMatD0=    1 NMtDS0=    0 NMtDT0=    0
 Symmetry not used in FoFCou.
 Keep R1 ints in memory in canonical form, NReq=397720213.
 Requested convergence on RMS density matrix=1.00D-08 within 128 cycles.
 Requested convergence on MAX density matrix=1.00D-06.
 Requested convergence on             energy=1.00D-06.
 No special actions if energy rises.
 SCF Done:  E(RHF) =  -661.284642445     A.U. after   16 cycles
            NFock= 16  Conv=0.32D-08     -V/T= 2.0025
 ExpMin= 1.61D-01 ExpMax= 5.48D+03 ExpMxC= 8.25D+02 IAcc=3 IRadAn=         5 AccDes= 0.00D+00
 HarFok:  IExCor=  205 AccDes= 0.00D+00 IRadAn=         5 IDoV=-2 UseB2=F ITyADJ=14
 ICtDFT= 12500011 ScaDFX=  1.000000  1.000000  1.000000  1.000000
 Range of M.O.s used for correlation:    15   236
 NBasis=   236 NAE=    52 NBE=    52 NFC=    14 NFV=     0
 NROrb=    222 NOA=    38 NOB=    38 NVA=   184 NVB=   184
 Fully direct method using O(ONN) memory.
 JobTyp=1 Pass  1:  I=  15 to  52 NPSUse=  4 ParTrn=T ParDer=T DoDerP=T.
 Spin components of T(2) and E(2):
     alpha-alpha T2 =       0.9150975459D-01 E2=     -0.2726219248D+00
     alpha-beta  T2 =       0.4956973670D+00 E2=     -0.1492707518D+01
     beta-beta   T2 =       0.9150975459D-01 E2=     -0.2726219248D+00
 ANorm=    0.1295653069D+01
 E2 =    -0.2037951368D+01 EUMP2 =    -0.66332259381282D+03
          IDoAtm=111111111111111111111111111
          Differentiating once with respect to electric field.
                with respect to dipole field.
          Differentiating once with respect to nuclear coordinates.
 Keep R1 ints in memory in canonical form, NReq=397723379.
          There are     1 degrees of freedom in the 1st order CPHF.  IDoFFX=0 NUNeed=     1.
 LinEq1:  Iter=  0 NonCon=     1 RMS=4.52D-03 Max=1.15D-01 NDo=     1
 AX will form     1 AO Fock derivatives at one time.
 LinEq1:  Iter=  1 NonCon=     1 RMS=1.51D-03 Max=3.48D-02 NDo=     1
 LinEq1:  Iter=  2 NonCon=     1 RMS=6.37D-04 Max=1.65D-02 NDo=     1
 LinEq1:  Iter=  3 NonCon=     1 RMS=2.78D-04 Max=4.54D-03 NDo=     1
 LinEq1:  Iter=  4 NonCon=     1 RMS=8.47D-05 Max=1.26D-03 NDo=     1
[...]
    27  H    4.733111   4.421481   3.360587   3.646224   2.036571
                   16         17         18         19         20
    16  C    0.000000
    17  H    3.473104   0.000000
    18  H    4.104132   2.232746   0.000000
    19  H    3.001363   4.361323   3.560015   0.000000
    20  H    4.390074   4.515365   2.948127   1.768054   0.000000
    21  H    5.100867   6.553862   5.129600   2.499463   2.522277
    22  H    5.255806   6.115147   4.336263   3.070400   2.463083
    23  H    3.687381   6.237712   5.433272   2.704066   3.843375
    24  H    5.128933   7.190421   5.941209   3.849447   4.318172
    25  H    3.816675   6.033264   5.340662   4.173711   4.986089
    26  H    4.493578   5.723890   4.448279   4.032044   4.177697
    27  H    1.093205   4.243067   5.111095   3.617891   5.183255
                   21         22         23         24         25
    21  H    0.000000
    22  H    1.758808   0.000000
    23  H    2.469863   3.062360   0.000000
    24  H    2.517019   2.460038   1.764353   0.000000
    25  H    4.312100   3.837818   2.445805   2.518444   0.000000
    26  H    3.844266   2.700688   3.060513   2.494246   1.768139
    27  H    5.677036   6.082061   4.096472   5.699552   4.450315
                   26         27
    26  H    0.000000
    27  H    5.381052   0.000000
 Symmetry turned off by external request.
 Stoichiometry    C9H13N3O2
 Framework group  C1[X(C9H13N3O2)]
 Deg. of freedom    75
 Full point group                 C1      NOp   1
 Rotational constants (GHZ):           1.6718551           0.4104870           0.3835519

 **********************************************************************

            Population analysis using the SCF Density.

 **********************************************************************

 Alpha  occ. eigenvalues --  -20.60442 -20.60311 -15.84962 -15.63012 -15.56324
 Alpha  occ. eigenvalues --  -11.34624 -11.30045 -11.29273 -11.28697 -11.27038
 Alpha  occ. eigenvalues --  -11.23346 -11.22973 -11.22557 -11.21951  -1.57741
 Alpha  occ. eigenvalues --   -1.37494  -1.30148  -1.23110  -1.14691  -1.09790
 Alpha  occ. eigenvalues --   -1.02555  -1.01036  -0.94551  -0.89805  -0.85220
 Alpha  occ. eigenvalues --   -0.82605  -0.78332  -0.77859  -0.74943  -0.71938
 Alpha  occ. eigenvalues --   -0.70892  -0.68674  -0.67425  -0.65082  -0.63479
 Alpha  occ. eigenvalues --   -0.62074  -0.60400  -0.57515  -0.56743  -0.54911
 Alpha  occ. eigenvalues --   -0.54294  -0.51068  -0.50231  -0.49187  -0.48217
 Alpha  occ. eigenvalues --   -0.47943  -0.46258  -0.45801  -0.43848  -0.41712
 Alpha  occ. eigenvalues --   -0.39822  -0.33280
 Alpha virt. eigenvalues --    0.08158   0.10908   0.17555   0.21274   0.23316
 Alpha virt. eigenvalues --    0.24715   0.26566   0.28290   0.29253   0.29523
 Alpha virt. eigenvalues --    0.29790   0.31760   0.32032   0.32845   0.34145
 Alpha virt. eigenvalues --    0.34497   0.35772   0.37455   0.38764   0.39464
 Alpha virt. eigenvalues --    0.41104   0.42604   0.44973   0.45884   0.46891
 Alpha virt. eigenvalues --    0.47947   0.50078   0.53639   0.57921   0.59277
 Alpha virt. eigenvalues --    0.61117   0.69911   0.70049   0.72733   0.74478
 Alpha virt. eigenvalues --    0.74549   0.75874   0.76330   0.78533   0.79063
 Alpha virt. eigenvalues --    0.80083   0.83986   0.85620   0.86257   0.88912
 Alpha virt. eigenvalues --    0.89584   0.90839   0.91330   0.93031   0.93453
 Alpha virt. eigenvalues --    0.95410   0.97593   1.00077   1.01469   1.02648
 Alpha virt. eigenvalues --    1.04029   1.06423   1.06456   1.07792   1.08254
 Alpha virt. eigenvalues --    1.09555   1.10700   1.11882   1.12515   1.13274
 Alpha virt. eigenvalues --    1.14073   1.14314   1.15020   1.15987   1.16683
 Alpha virt. eigenvalues --    1.17835   1.19006   1.19657   1.21799   1.23447
 Alpha virt. eigenvalues --    1.24370   1.25050   1.27551   1.28332   1.30130
 Alpha virt. eigenvalues --    1.31682   1.32723   1.34025   1.35918   1.36890
 Alpha virt. eigenvalues --    1.40267   1.42564   1.44685   1.48081   1.52009
 Alpha virt. eigenvalues --    1.54401   1.56479   1.60572   1.62573   1.66835
 Alpha virt. eigenvalues --    1.68242   1.70501   1.71643   1.74178   1.75701
 Alpha virt. eigenvalues --    1.79350   1.83403   1.86444   1.90500   1.92181
 Alpha virt. eigenvalues --    1.92793   1.96166   1.99627   2.01065   2.02227
 Alpha virt. eigenvalues --    2.05317   2.06589   2.08371   2.09142   2.12993
 Alpha virt. eigenvalues --    2.13861   2.15913   2.18743   2.19657   2.22669
 Alpha virt. eigenvalues --    2.23821   2.25169   2.26123   2.28244   2.29929
 Alpha virt. eigenvalues --    2.31853   2.33526   2.33714   2.36429   2.38122
 Alpha virt. eigenvalues --    2.39179   2.40759   2.42661   2.45518   2.46803
 Alpha virt. eigenvalues --    2.49677   2.51916   2.54141   2.55543   2.60175
 Alpha virt. eigenvalues --    2.62649   2.65504   2.69008   2.69394   2.70728
 Alpha virt. eigenvalues --    2.71458   2.73298   2.74769   2.77683   2.83485
 Alpha virt. eigenvalues --    2.88817   2.89684   2.93381   2.95033   2.98388
 Alpha virt. eigenvalues --    2.99031   3.01249   3.03495   3.06518   3.09312
 Alpha virt. eigenvalues --    3.10188   3.14854   3.19214   3.20076   3.24274
 Alpha virt. eigenvalues --    3.30853   3.37491   3.38075   3.43785   3.64380
 Alpha virt. eigenvalues --    4.11198   4.18621   4.26607   4.36196   4.46263
 Alpha virt. eigenvalues --    4.55960   4.62092   4.63450   4.73972   4.78114
 Alpha virt. eigenvalues --    4.99710   5.01162   5.05781   5.10566
          Condensed to atoms (all electrons):
               1          2          3          4          5          6
     1  O    8.304564   0.289021  -0.076455  -0.080494   0.000986  -0.000028
     2  N    0.289021   5.807980   0.300565   0.228399  -0.049842   0.001471
     3  O   -0.076455   0.300565   8.303894  -0.086238   0.007607   0.000291
     4  C   -0.080494   0.228399  -0.086238   5.215975   0.582490  -0.053465
     5  C    0.000986  -0.049842   0.007607   0.582490   4.660877   0.332535
     6  N   -0.000028   0.001471   0.000291  -0.053465   0.332535   7.176940
     7  C   -0.000004  -0.000146   0.000012   0.002080  -0.035748   0.183034
     8  H    0.000000   0.000003  -0.000000  -0.000161   0.002925  -0.050018
     9  C    0.000000  -0.000005   0.000000   0.000965   0.001089  -0.062197
    10  C    0.000000   0.000000  -0.000000  -0.000034  -0.000068   0.003717
    11  C   -0.000000  -0.000000   0.000000  -0.000045   0.000024  -0.000200
    12  C    0.000000   0.000002  -0.000000  -0.000078  -0.000099   0.003945
    13  C    0.000004  -0.000058  -0.000019  -0.011734   0.000640  -0.050557
    14  H    0.000001  -0.000080  -0.000007   0.002892   0.007555  -0.007233
    15  N    0.000238   0.002418  -0.000024  -0.067093  -0.008732   0.002828
    16  C    0.003343  -0.029496   0.002220   0.329110  -0.041980  -0.002243
    17  H    0.000060  -0.003261   0.005447  -0.035046   0.388277  -0.033562
    18  H    0.000001  -0.000071   0.000006   0.002425  -0.029303   0.337616
    19  H    0.000001  -0.000001  -0.000000  -0.000986   0.000946  -0.000146
    20  H    0.000000  -0.000000  -0.000000  -0.000103   0.000181  -0.000210
    21  H   -0.000000   0.000000   0.000000   0.000001   0.000001  -0.000074
    22  H    0.000000   0.000000  -0.000000  -0.000000  -0.000003  -0.000115
    23  H    0.000000  -0.000000   0.000000   0.000040   0.000001  -0.000031
    24  H    0.000000   0.000000  -0.000000   0.000000  -0.000000   0.000005
    25  H    0.000000  -0.000000   0.000000   0.000028  -0.000001  -0.000094
    26  H   -0.000000  -0.000000   0.000000   0.000005  -0.000004  -0.000052
    27  H    0.005010   0.000446   0.000046  -0.070533   0.002198  -0.000001
               7          8          9         10         11         12
     1  O   -0.000004   0.000000   0.000000   0.000000  -0.000000   0.000000
     2  N   -0.000146   0.000003  -0.000005   0.000000  -0.000000   0.000002
     3  O    0.000012  -0.000000   0.000000  -0.000000   0.000000  -0.000000
     4  C    0.002080  -0.000161   0.000965  -0.000034  -0.000045  -0.000078
     5  C   -0.035748   0.002925   0.001089  -0.000068   0.000024  -0.000099
     6  N    0.183034  -0.050018  -0.062197   0.003717  -0.000200   0.003945
     7  C    5.011477   0.417669   0.350268  -0.054889  -0.008746  -0.061941
     8  H    0.417669   0.540601  -0.055053   0.000591  -0.000286  -0.002290
     9  C    0.350268  -0.055053   5.156580   0.324437  -0.050397  -0.005010
    10  C   -0.054889   0.000591   0.324437   5.121178   0.336720  -0.061084
    11  C   -0.008746  -0.000286  -0.050397   0.336720   5.121046   0.335969
    12  C   -0.061941  -0.002290  -0.005010  -0.061084   0.335969   5.121054
    13  C    0.340248  -0.037546  -0.061862  -0.000064  -0.051028   0.370614
    14  H   -0.046376  -0.000625   0.004377  -0.000390   0.004155  -0.035963
    15  N   -0.060154   0.003896  -0.013949   0.001739  -0.013424  -0.083081
    16  C   -0.000278  -0.000127  -0.000707  -0.000053   0.000070   0.002706
    17  H    0.002066  -0.000075  -0.000080   0.000001   0.000000   0.000001
    18  H   -0.022304  -0.004695   0.001620  -0.000088   0.000003  -0.000121
    19  H   -0.036800   0.004381   0.390894  -0.032800  -0.002239   0.000705
    20  H   -0.041453  -0.001921   0.399050  -0.035340   0.003922  -0.000411
    21  H    0.004581  -0.000078  -0.036240   0.402365  -0.035024   0.004358
    22  H   -0.004844   0.003592  -0.046724   0.397435  -0.045479  -0.001096
    23  H    0.000601   0.000038  -0.001958  -0.039107   0.399269  -0.038209
    24  H   -0.000136  -0.000100   0.004348  -0.038307   0.402230  -0.038630
    25  H    0.005112  -0.000015  -0.000445   0.004212  -0.033532   0.398098
    26  H   -0.003934   0.001647   0.000965  -0.002264  -0.041323   0.396541
    27  H   -0.000377   0.000008  -0.000049   0.000005   0.000013  -0.000033
              13         14         15         16         17         18
     1  O    0.000004   0.000001   0.000238   0.003343   0.000060   0.000001
     2  N   -0.000058  -0.000080   0.002418  -0.029496  -0.003261  -0.000071
     3  O   -0.000019  -0.000007  -0.000024   0.002220   0.005447   0.000006
     4  C   -0.011734   0.002892  -0.067093   0.329110  -0.035046   0.002425
     5  C    0.000640   0.007555  -0.008732  -0.041980   0.388277  -0.029303
     6  N   -0.050557  -0.007233   0.002828  -0.002243  -0.033562   0.337616
     7  C    0.340248  -0.046376  -0.060154  -0.000278   0.002066  -0.022304
     8  H   -0.037546  -0.000625   0.003896  -0.000127  -0.000075  -0.004695
     9  C   -0.061862   0.004377  -0.013949  -0.000707  -0.000080   0.001620
    10  C   -0.000064  -0.000390   0.001739  -0.000053   0.000001  -0.000088
    11  C   -0.051028   0.004155  -0.013424   0.000070   0.000000   0.000003
    12  C    0.370614  -0.035963  -0.083081   0.002706   0.000001  -0.000121
    13  C    5.042559   0.403387   0.251672  -0.071159  -0.000005   0.002884
    14  H    0.403387   0.524494  -0.037091  -0.006857   0.000090  -0.000083
    15  N    0.251672  -0.037091   6.950423   0.592188  -0.000064  -0.000125
    16  C   -0.071159  -0.006857   0.592188   4.703301   0.001734  -0.000117
    17  H   -0.000005   0.000090  -0.000064   0.001734   0.412600  -0.003443
    18  H    0.002884  -0.000083  -0.000125  -0.000117  -0.003443   0.316148
    19  H   -0.007636   0.000109   0.007478   0.002255   0.000012  -0.000140
    20  H    0.004368  -0.000068   0.000133  -0.000042   0.000003   0.000567
    21  H   -0.000434   0.000010  -0.000043   0.000003  -0.000000   0.000002
    22  H    0.000046  -0.000053   0.000024  -0.000002   0.000000   0.000000
    23  H   -0.007626   0.000002   0.008563   0.000121   0.000000   0.000000
    24  H    0.004701  -0.000057   0.000126   0.000007   0.000000  -0.000000
    25  H   -0.035682  -0.002791   0.000513  -0.000019  -0.000000   0.000002
    26  H   -0.047092  -0.001035   0.004907  -0.000066   0.000000   0.000000
    27  H    0.005126  -0.000193  -0.037557   0.403880  -0.000084   0.000001
              19         20         21         22         23         24
     1  O    0.000001   0.000000  -0.000000   0.000000   0.000000   0.000000
     2  N   -0.000001  -0.000000   0.000000   0.000000  -0.000000   0.000000
     3  O   -0.000000  -0.000000   0.000000  -0.000000   0.000000  -0.000000
     4  C   -0.000986  -0.000103   0.000001  -0.000000   0.000040   0.000000
     5  C    0.000946   0.000181   0.000001  -0.000003   0.000001  -0.000000
     6  N   -0.000146  -0.000210  -0.000074  -0.000115  -0.000031   0.000005
     7  C   -0.036800  -0.041453   0.004581  -0.004844   0.000601  -0.000136
     8  H    0.004381  -0.001921  -0.000078   0.003592   0.000038  -0.000100
     9  C    0.390894   0.399050  -0.036240  -0.046724  -0.001958   0.004348
    10  C   -0.032800  -0.035340   0.402365   0.397435  -0.039107  -0.038307
    11  C   -0.002239   0.003922  -0.035024  -0.045479   0.399269   0.402230
    12  C    0.000705  -0.000411   0.004358  -0.001096  -0.038209  -0.038630
    13  C   -0.007636   0.004368  -0.000434   0.000046  -0.007626   0.004701
    14  H    0.000109  -0.000068   0.000010  -0.000053   0.000002  -0.000057
    15  N    0.007478   0.000133  -0.000043   0.000024   0.008563   0.000126
    16  C    0.002255  -0.000042   0.000003  -0.000002   0.000121   0.000007
    17  H    0.000012   0.000003  -0.000000   0.000000   0.000000   0.000000
    18  H   -0.000140   0.000567   0.000002   0.000000   0.000000  -0.000000
    19  H    0.506314  -0.024353  -0.002779   0.003982   0.001541  -0.000068
    20  H   -0.024353   0.538748  -0.002696  -0.002964  -0.000047  -0.000082
    21  H   -0.002779  -0.002696   0.525147  -0.027526  -0.002917  -0.002251
    22  H    0.003982  -0.002964  -0.027526   0.572225   0.004155  -0.003640
    23  H    0.001541  -0.000047  -0.002917   0.004155   0.500717  -0.025569
    24  H   -0.000068  -0.000082  -0.002251  -0.003640  -0.025569   0.538844
    25  H   -0.000027   0.000013  -0.000088  -0.000080  -0.002293  -0.002315
    26  H    0.000021  -0.000031  -0.000080   0.002386   0.004078  -0.003004
    27  H    0.000078   0.000000  -0.000000   0.000000  -0.000034  -0.000000
              25         26         27
     1  O    0.000000  -0.000000   0.005010
     2  N   -0.000000  -0.000000   0.000446
     3  O    0.000000   0.000000   0.000046
     4  C    0.000028   0.000005  -0.070533
     5  C   -0.000001  -0.000004   0.002198
     6  N   -0.000094  -0.000052  -0.000001
     7  C    0.005112  -0.003934  -0.000377
     8  H   -0.000015   0.001647   0.000008
     9  C   -0.000445   0.000965  -0.000049
    10  C    0.004212  -0.002264   0.000005
    11  C   -0.033532  -0.041323   0.000013
    12  C    0.398098   0.396541  -0.000033
    13  C   -0.035682  -0.047092   0.005126
    14  H   -0.002791  -0.001035  -0.000193
    15  N    0.000513   0.004907  -0.037557
    16  C   -0.000019  -0.000066   0.403880
    17  H   -0.000000   0.000000  -0.000084
    18  H    0.000002   0.000000   0.000001
    19  H   -0.000027   0.000021   0.000078
    20  H    0.000013  -0.000031   0.000000
    21  H   -0.000088  -0.000080  -0.000000
    22  H   -0.000080   0.002386   0.000000
    23  H   -0.002293   0.004078  -0.000034
    24  H   -0.002315  -0.003004  -0.000000
    25  H    0.508043  -0.024177  -0.000013
    26  H   -0.024177   0.562125   0.000001
    27  H   -0.000013   0.000001   0.453131
 Mulliken charges:
               1
     1  O   -0.446247
     2  N    0.452655
     3  O   -0.457345
     4  C    0.041598
     5  C    0.177447
     6  N   -0.782158
     7  C    0.060986
     8  H    0.177639
     9  C   -0.299916
    10  C   -0.327911
    11  C   -0.321698
    12  C   -0.305946
    13  C   -0.043747
    14  H    0.191828
    15  N   -0.505808
    16  C    0.112206
    17  H    0.265329
    18  H    0.399214
    19  H    0.189258
    20  H    0.162735
    21  H    0.173763
    22  H    0.148684
    23  H    0.198664
    24  H    0.163899
    25  H    0.185551
    26  H    0.150387
    27  H    0.238931
 Sum of Mulliken charges =  -0.00000
 Mulliken charges with hydrogens summed into heavy atoms:
               1
     1  O   -0.446247
     2  N    0.452655
     3  O   -0.457345
     4  C    0.041598
     5  C    0.442777
     6  N   -0.382944
     7  C    0.238625
     9  C    0.052078
    10  C   -0.005464
    11  C    0.040865
    12  C    0.029992
    13  C    0.148081
    15  N   -0.505808
    16  C    0.351138
 Electronic spatial extent (au):  <R**2>=           2991.8932
 Charge=              0.0000 electrons
 Dipole moment (field-independent basis, Debye):
    X=              4.7098    Y=              4.4011    Z=              1.3020  Tot=              6.5763
 Quadrupole moment (field-independent basis, Debye-Ang):
   XX=           -103.1263   YY=            -75.6158   ZZ=            -86.0921
   XY=             -1.9201   XZ=              0.0608   YZ=              1.5517
 Traceless Quadrupole moment (field-independent basis, Debye-Ang):
   XX=            -14.8482   YY=             12.6623   ZZ=              2.1860
   XY=             -1.9201   XZ=              0.0608   YZ=              1.5517
 Octapole moment (field-independent basis, Debye-Ang**2):
  XXX=             75.8032  YYY=             30.2670  ZZZ=              2.1777  XYY=            -20.4087
  XXY=             13.8009  XXZ=              2.7475  XZZ=              5.4187  YZZ=              0.7797
  YYZ=              7.9926  XYZ=              2.5954
 Hexadecapole moment (field-independent basis, Debye-Ang**3):
 XXXX=          -3299.9269 YYYY=           -532.2222 ZZZZ=           -380.0024 XXXY=            -52.2861
 XXXZ=              0.4393 YYYX=              1.1346 YYYZ=             27.2575 ZZZX=             -4.8210
 ZZZY=              5.7131 XXYY=           -560.1188 XXZZ=           -586.4952 YYZZ=           -159.2137
 XXYZ=            -11.8595 YYXZ=              1.8140 ZZXY=             -2.8499
 N-N= 9.305686347481D+02 E-N=-3.407787630341D+03  KE= 6.596029574993D+02
 Unable to Open any file for archive entry.
 1\1\GINC-LOTUS\FOpt\RMP2-FC\6-31G(d)\C9H13N3O2\ALEXEY\30-Jun-2023\0\\#
 MP2/6-31G* SCF=Tight Opt=(ModRedun, MaxCycle=20 ) NoSymm\\MolName:\\0,
 1\O,-3.590150457,-0.669936541,-1.1869612836\N,-3.1064167159,-0.2562789
 041,-0.1151328836\O,-3.7705040334,0.0333207016,0.8994671463\C,-1.67012
 34898,-0.019843725,-0.0865172953\C,-1.3058064738,1.2541354562,0.246009
 7926\N,-0.0613860489,1.7750892345,0.2892583755\C,1.202696355,1.0477192
 804,0.306108007\H,1.8459149538,1.6035871039,1.0049034537\C,1.919608123
 6,0.9964402039,-1.0415236707\C,3.3143736265,0.3931482909,-0.8386817273
 \C,3.2562498997,-0.9740621042,-0.1521242565\C,2.4499219471,-0.92454409
 19,1.1472965032\C,1.0429490686,-0.3823927569,0.8685680365\H,0.45173762
 15,-0.3194388849,1.7957951298\N,0.4086389999,-1.3260832378,-0.04560378
 14\C,-0.8372805828,-1.1647830414,-0.3601247342\H,-2.1028935047,1.96876
 79314,0.4408348963\H,-0.0142247154,2.7477904385,0.5662919746\H,1.32983
 21696,0.3894837376,-1.7370987738\H,1.9910080629,2.0062982538,-1.463655
 2328\H,3.8271648017,0.3108144476,-1.8038702397\H,3.911052899,1.0844376
 92,-0.2265706125\H,2.7819346892,-1.6994599011,-0.8207544352\H,4.272510
 3596,-1.3332124627,0.049296108\H,2.3611558091,-1.9273705751,1.57777952
 22\H,2.9523229929,-0.2906672106,1.8908896712\H,-1.3042663579,-1.960969
 3357,-0.9458796901\\Version=ES64L-G16RevC.02\HF=-661.28601\MP2=-663.32
 57867\RMSD=4.348e-09\RMSF=2.399e-03\Dipole=1.7181701,1.5777119,0.46510
 88\PG=C01 [X(C9H13N3O2)]\\@
 The archive entry for this job was punched.


 I take a simple view of life: keep your eyes open and get on with it.
 -- Laurence Olivier
 Job cpu time:       0 days  1 hours 23 minutes 56.5 seconds.
 Elapsed time:       0 days  0 hours 25 minutes 15.7 seconds.
 File lengths (MBytes):  RWF=     36 Int=      0 D2E=      0 Chk=      7 Scr=      1
 Normal termination of Gaussian 16 at Fri Jun 30 11:13:10 2023.
