 Entering Gaussian System, Link 0=g16
 Initial command:
 /home/alexey/programs//g16/l1.exe "/home/alexey/tmp/Gau-1127619.inp" -scrdir="/home/alexey/tmp/"
 Entering Link 1 = /home/alexey/programs//g16/l1.exe PID=   1127621.
  
 Copyright (c) 1988-2021, Gaussian, Inc.  All Rights Reserved.
  
 This is part of the Gaussian(R) 16 program.  It is based on
 the Gaussian(R) 09 system (copyright 2009, Gaussian, Inc.),
 the Gaussian(R) 03 system (copyright 2003, Gaussian, Inc.),
 the Gaussian(R) 98 system (copyright 1998, Gaussian, Inc.),
 the Gaussian(R) 94 system (copyright 1995, Gaussian, Inc.),
 the Gaussian 92(TM) system (copyright 1992, Gaussian, Inc.),
 the Gaussian 90(TM) system (copyright 1990, Gaussian, Inc.),
 the Gaussian 88(TM) system (copyright 1988, Gaussian, Inc.),
 the Gaussian 86(TM) system (copyright 1986, Carnegie Mellon
 University), and the Gaussian 82(TM) system (copyright 1983,
 Carnegie Mellon University). Gaussian is a federally registered
 trademark of Gaussian, Inc.
  
 This software contains proprietary and confidential information,
 including trade secrets, belonging to Gaussian, Inc.
  
 This software is provided under written license and may be
 used, copied, transmitted, or stored only in accord with that
 written license.
  
 The following legend is applicable only to US Government
 contracts under FAR:
  
                    RESTRICTED RIGHTS LEGEND
  
 Use, reproduction and disclosure by the US Government is
 subject to restrictions as set forth in subparagraphs (a)
 and (c) of the Commercial Computer Software - Restricted
 Rights clause in FAR 52.227-19.
  
 Gaussian, Inc.
 340 Quinnipiac St., Bldg. 40, Wallingford CT 06492
  
  
 ---------------------------------------------------------------
 Warning -- This program may not be used in any manner that
 competes with the business of Gaussian, Inc. or will provide
 assistance to any competitor of Gaussian, Inc.  The licensee
 of this program is prohibited from giving any competitor of
 Gaussian, Inc. access to this program.  By using this program,
 the user acknowledges that Gaussian, Inc. is engaged in the
 business of creating and licensing software in the field of
 computational chemistry and represents and warrants to the
 licensee that it is not a competitor of Gaussian, Inc. and that
 it will not use this program in any manner prohibited above.
 ---------------------------------------------------------------
  

 Cite this work as:
 Gaussian 16, Revision C.02,
 M. J. Frisch, G. W. Trucks, H. B. Schlegel, G. E. Scuseria, 
 M. A. Robb, J. R. Cheeseman, G. Scalmani, V. Barone, 
 G. A. Petersson, H. Nakatsuji, X. Li, M. Caricato, A. V. Marenich, 
 J. Bloino, B. G. Janesko, R. Gomperts, B. Mennucci, H. P. Hratchian, 
 J. V. Ortiz, A. F. Izmaylov, J. L. Sonnenberg, D. Williams-Young, 
 F. Ding, F. Lipparini, F. Egidi, J. Goings, B. Peng, A. Petrone, 
 T. Henderson, D. Ranasinghe, V. G. Zakrzewski, J. Gao, N. Rega, 
 G. Zheng, W. Liang, M. Hada, M. Ehara, K. Toyota, R. Fukuda, 
 J. Hasegawa, M. Ishida, T. Nakajima, Y. Honda, O. Kitao, H. Nakai, 
 T. Vreven, K. Throssell, J. A. Montgomery, Jr., J. E. Peralta, 
 F. Ogliaro, M. J. Bearpark, J. J. Heyd, E. N. Brothers, K. N. Kudin, 
 V. N. Staroverov, T. A. Keith, R. Kobayashi, J. Normand, 
 K. Raghavachari, A. P. Rendell, J. C. Burant, S. S. Iyengar, 
 J. Tomasi, M. Cossi, J. M. Millam, M. Klene, C. Adamo, R. Cammi, 
 J. W. Ochterski, R. L. Martin, K. Morokuma, O. Farkas, 
 J. B. Foresman, and D. J. Fox, Gaussian, Inc., Wallingford CT, 2019.
 
 ******************************************
 Gaussian 16:  ES64L-G16RevC.02  7-Dec-2021
                30-Jun-2023 
 ******************************************
 %mem=8GB
 %NPROCS=4
 Will use up to    4 processors via shared memory.
 %NoSave
 ---------------------------------------------------------
 #MP2/6-31G* SCF=Tight Opt=(ModRedun, MaxCycle=20 ) NoSymm
 ---------------------------------------------------------
 1/6=20,18=120,19=15,38=1/1,3;
 2/9=110,12=2,15=1,17=6,18=5,40=1/2;
 3/5=1,6=6,7=1,11=9,25=1,30=1,71=1/1,2,3;
 4//1;
 5/5=2,32=2,38=5/2;
 8/6=4,10=2/1;
 9/15=2,16=-3/6;
 10/5=1,31=1/2;
 6/7=2,8=2,9=2,10=2/1;
 7/12=2,30=1/1,2,3,16;
 1/6=20,18=20,19=15/3(2);
 2/9=110,15=1/2;
 99//99;
 2/9=110,15=1/2;
 3/5=1,6=6,7=1,11=9,25=1,30=1,71=1/1,2,3;
 4/5=5,16=3,69=1/1;
 5/5=2,32=2,38=5/2;
 8/6=4,10=2/1;
 9/15=2,16=-3/6;
 10/5=1,31=1/2;
 7/12=2,30=1/1,2,3,16;
 1/6=20,18=20,19=15/3(-8);
 2/9=110,15=1/2;
 6/7=2,8=2,9=2,10=2/1;
 99/9=10/99;
 --------
 MolName:
 --------
 Symbolic Z-matrix:
 Charge =  0 Multiplicity = 1
 8                    0    -3.67178  -0.83902  -1.03738 
 7                    0    -3.21435  -0.27624  -0.04532 
 8                    0    -3.87456   0.15811   0.89747 
 6                    0    -1.74065  -0.00716  -0.04237 
 6                    0    -1.37783   1.31304   0.22376 
 7                    0    -0.0935    1.77397   0.34922 
 6                    0     1.18816   1.00281   0.34052 
 1                    0     1.85334   1.5269    1.07483 
 6                    0     1.9461    1.0127   -1.01045 
 6                    0     3.36153   0.43863  -0.80884 
 6                    0     3.30886  -0.95727  -0.16796 
 6                    0     2.46708  -0.95211   1.12621 
 6                    0     1.02625  -0.43279   0.86742 
 1                    0     0.48165  -0.44101   1.84069 
 7                    0     0.37003  -1.34214  -0.07754 
 6                    0    -0.87404  -1.15975  -0.37596 
 1                    0    -2.18208   2.04797   0.3965 
 1                    0     0.13764   2.75396   0.1693 
 1                    0     1.39515   0.40827  -1.7622 
 1                    0     2.02605   2.05078  -1.3973 
 1                    0     3.89155   0.38487  -1.78494 
 1                    0     3.93911   1.11733  -0.1422 
 1                    0     2.86141  -1.67291  -0.89418 
 1                    0     4.33956  -1.30911   0.05588 
 1                    0     2.41615  -1.98554   1.53378 
 1                    0     2.96125  -0.31223   1.88701 
 1                    0    -1.38608  -1.94006  -0.95999 
 
 The following ModRedundant input section has been read:
 D       1       2       4      16 F                                           
 D       7      13      15      16 F                                           
 D       7       9      10      11 F                                           
 D       9      10      11      12 F                                           
 D       6       7      13      15 F                                           
 

 GradGradGradGradGradGradGradGradGradGradGradGradGradGradGradGradGradGrad
 Berny optimization.
 Initialization pass.
                           ----------------------------
                           !    Initial Parameters    !
                           ! (Angstroms and Degrees)  !
 --------------------------                            --------------------------
 ! Name  Definition              Value          Derivative Info.                !
 --------------------------------------------------------------------------------
 ! R1    R(1,2)                  1.2289         estimate D2E/DX2                !
 ! R2    R(2,3)                  1.2302         estimate D2E/DX2                !
 ! R3    R(2,4)                  1.4981         estimate D2E/DX2                !
 ! R4    R(4,5)                  1.3948         estimate D2E/DX2                !
 ! R5    R(4,16)                 1.4801         estimate D2E/DX2                !
 ! R6    R(5,6)                  1.3703         estimate D2E/DX2                !
 ! R7    R(5,17)                 1.1031         estimate D2E/DX2                !
 ! R8    R(6,7)                  1.4958         estimate D2E/DX2                !
 ! R9    R(6,18)                 1.0228         estimate D2E/DX2                !
 ! R10   R(7,8)                  1.1209         estimate D2E/DX2                !
 ! R11   R(7,9)                  1.5491         estimate D2E/DX2                !
 ! R12   R(7,13)                 1.5378         estimate D2E/DX2                !
 ! R13   R(9,10)                 1.5407         estimate D2E/DX2                !
 ! R14   R(9,19)                 1.1109         estimate D2E/DX2                !
 ! R15   R(9,20)                 1.1107         estimate D2E/DX2                !
 ! R16   R(10,11)                1.5369         estimate D2E/DX2                !
 ! R17   R(10,21)                1.112          estimate D2E/DX2                !
 ! R18   R(10,22)                1.1129         estimate D2E/DX2                !
 ! R19   R(11,12)                1.5439         estimate D2E/DX2                !
 ! R20   R(11,23)                1.1134         estimate D2E/DX2                !
 ! R21   R(11,24)                1.1119         estimate D2E/DX2                !
 ! R22   R(12,13)                1.5533         estimate D2E/DX2                !
 ! R23   R(12,25)                1.1121         estimate D2E/DX2                !
 ! R24   R(12,26)                1.1102         estimate D2E/DX2                !
 ! R25   R(13,14)                1.1153         estimate D2E/DX2                !
 ! R26   R(13,15)                1.4665         estimate D2E/DX2                !
 ! R27   R(15,16)                1.2923         estimate D2E/DX2                !
 ! R28   R(16,27)                1.101          estimate D2E/DX2                !
 ! A1    A(1,2,3)              125.4935         estimate D2E/DX2                !
 ! A2    A(1,2,4)              116.7454         estimate D2E/DX2                !
 ! A3    A(3,2,4)              117.5817         estimate D2E/DX2                !
 ! A4    A(2,4,5)              115.2322         estimate D2E/DX2                !
 ! A5    A(2,4,16)             115.8274         estimate D2E/DX2                !
 ! A6    A(5,4,16)             128.8863         estimate D2E/DX2                !
 ! A7    A(4,5,6)              125.4272         estimate D2E/DX2                !
 ! A8    A(4,5,17)             118.0897         estimate D2E/DX2                !
 ! A9    A(6,5,17)             116.4176         estimate D2E/DX2                !
 ! A10   A(5,6,7)              128.9865         estimate D2E/DX2                !
 ! A11   A(5,6,18)             121.1972         estimate D2E/DX2                !
 ! A12   A(7,6,18)             107.4159         estimate D2E/DX2                !
 ! A13   A(6,7,8)              105.2851         estimate D2E/DX2                !
 ! A14   A(6,7,9)              114.8987         estimate D2E/DX2                !
 ! A15   A(6,7,13)             112.8975         estimate D2E/DX2                !
 ! A16   A(8,7,9)              106.1402         estimate D2E/DX2                !
 ! A17   A(8,7,13)             105.9333         estimate D2E/DX2                !
 ! A18   A(9,7,13)             110.8725         estimate D2E/DX2                !
 ! A19   A(7,9,10)             109.4514         estimate D2E/DX2                !
 ! A20   A(7,9,19)             110.123          estimate D2E/DX2                !
 ! A21   A(7,9,20)             110.1778         estimate D2E/DX2                !
 ! A22   A(10,9,19)            109.9662         estimate D2E/DX2                !
 ! A23   A(10,9,20)            109.129          estimate D2E/DX2                !
 ! A24   A(19,9,20)            107.971          estimate D2E/DX2                !
 ! A25   A(9,10,11)            111.1931         estimate D2E/DX2                !
 ! A26   A(9,10,21)            109.94           estimate D2E/DX2                !
 ! A27   A(9,10,22)            109.1436         estimate D2E/DX2                !
 ! A28   A(11,10,21)           109.7827         estimate D2E/DX2                !
 ! A29   A(11,10,22)           108.7772         estimate D2E/DX2                !
 ! A30   A(21,10,22)           107.9329         estimate D2E/DX2                !
 ! A31   A(10,11,12)           111.4203         estimate D2E/DX2                !
 ! A32   A(10,11,23)           108.9995         estimate D2E/DX2                !
 ! A33   A(10,11,24)           109.8521         estimate D2E/DX2                !
 ! A34   A(12,11,23)           109.2555         estimate D2E/DX2                !
 ! A35   A(12,11,24)           109.7393         estimate D2E/DX2                !
 ! A36   A(23,11,24)           107.4846         estimate D2E/DX2                !
 ! A37   A(11,12,13)           111.5447         estimate D2E/DX2                !
 ! A38   A(11,12,25)           109.2136         estimate D2E/DX2                !
 ! A39   A(11,12,26)           109.4929         estimate D2E/DX2                !
 ! A40   A(13,12,25)           109.225          estimate D2E/DX2                !
 ! A41   A(13,12,26)           109.5348         estimate D2E/DX2                !
 ! A42   A(25,12,26)           107.7491         estimate D2E/DX2                !
 ! A43   A(7,13,12)            105.7561         estimate D2E/DX2                !
 ! A44   A(7,13,14)            110.934          estimate D2E/DX2                !
 ! A45   A(7,13,15)            113.905          estimate D2E/DX2                !
 ! A46   A(12,13,14)           107.7637         estimate D2E/DX2                !
 ! A47   A(12,13,15)           108.3686         estimate D2E/DX2                !
 ! A48   A(14,13,15)           109.8308         estimate D2E/DX2                !
 ! A49   A(13,15,16)           119.4768         estimate D2E/DX2                !
 ! A50   A(4,16,15)            128.4264         estimate D2E/DX2                !
 ! A51   A(4,16,27)            113.5257         estimate D2E/DX2                !
 ! A52   A(15,16,27)           118.0464         estimate D2E/DX2                !
 ! D1    D(1,2,4,5)            127.5657         estimate D2E/DX2                !
 ! D2    D(1,2,4,16)           -49.9997         Frozen                          !
 ! D3    D(3,2,4,5)            -47.8364         estimate D2E/DX2                !
 ! D4    D(3,2,4,16)           134.5982         estimate D2E/DX2                !
 ! D5    D(2,4,5,6)            176.2364         estimate D2E/DX2                !
 ! D6    D(2,4,5,17)            -0.707          estimate D2E/DX2                !
 ! D7    D(16,4,5,6)            -6.5792         estimate D2E/DX2                !
 ! D8    D(16,4,5,17)          176.4774         estimate D2E/DX2                !
 ! D9    D(2,4,16,15)         -157.4752         estimate D2E/DX2                !
 ! D10   D(2,4,16,27)           22.9877         estimate D2E/DX2                !
 ! D11   D(5,4,16,15)           25.3544         estimate D2E/DX2                !
 ! D12   D(5,4,16,27)         -154.1827         estimate D2E/DX2                !
 ! D13   D(4,5,6,7)             -5.0731         estimate D2E/DX2                !
 ! D14   D(4,5,6,18)           155.0274         estimate D2E/DX2                !
 ! D15   D(17,5,6,7)           171.9159         estimate D2E/DX2                !
 ! D16   D(17,5,6,18)          -27.9836         estimate D2E/DX2                !
 ! D17   D(5,6,7,8)           -144.134          estimate D2E/DX2                !
 ! D18   D(5,6,7,9)             99.4706         estimate D2E/DX2                !
 ! D19   D(5,6,7,13)           -29.024          estimate D2E/DX2                !
 ! D20   D(18,6,7,8)            53.6325         estimate D2E/DX2                !
 ! D21   D(18,6,7,9)           -62.7629         estimate D2E/DX2                !
 ! D22   D(18,6,7,13)          168.7425         estimate D2E/DX2                !
 ! D23   D(6,7,9,10)           168.5729         estimate D2E/DX2                !
 ! D24   D(6,7,9,19)           -70.4244         estimate D2E/DX2                !
 ! D25   D(6,7,9,20)            48.5702         estimate D2E/DX2                !
 ! D26   D(8,7,9,10)            52.6674         estimate D2E/DX2                !
 ! D27   D(8,7,9,19)           173.6701         estimate D2E/DX2                !
 ! D28   D(8,7,9,20)           -67.3352         estimate D2E/DX2                !
 ! D29   D(13,7,9,10)          -61.9278         estimate D2E/DX2                !
 ! D30   D(13,7,9,19)           59.0749         estimate D2E/DX2                !
 ! D31   D(13,7,9,20)          178.0696         estimate D2E/DX2                !
 ! D32   D(6,7,13,12)         -166.0817         estimate D2E/DX2                !
 ! D33   D(6,7,13,14)          -49.5087         estimate D2E/DX2                !
 ! D34   D(6,7,13,15)           75.0228         Frozen                          !
 ! D35   D(8,7,13,12)          -51.3616         estimate D2E/DX2                !
 ! D36   D(8,7,13,14)           65.2115         estimate D2E/DX2                !
 ! D37   D(8,7,13,15)         -170.2571         estimate D2E/DX2                !
 ! D38   D(9,7,13,12)           63.3631         estimate D2E/DX2                !
 ! D39   D(9,7,13,14)          179.9362         estimate D2E/DX2                !
 ! D40   D(9,7,13,15)          -55.5324         estimate D2E/DX2                !
 ! D41   D(7,9,10,11)           54.8123         Frozen                          !
 ! D42   D(7,9,10,21)          176.6031         estimate D2E/DX2                !
 ! D43   D(7,9,10,22)          -65.1906         estimate D2E/DX2                !
 ! D44   D(19,9,10,11)         -66.2854         estimate D2E/DX2                !
 ! D45   D(19,9,10,21)          55.5054         estimate D2E/DX2                !
 ! D46   D(19,9,10,22)         173.7117         estimate D2E/DX2                !
 ! D47   D(20,9,10,11)         175.4553         estimate D2E/DX2                !
 ! D48   D(20,9,10,21)         -62.7539         estimate D2E/DX2                !
 ! D49   D(20,9,10,22)          55.4524         estimate D2E/DX2                !
 ! D50   D(9,10,11,12)         -52.8224         Frozen                          !
 ! D51   D(9,10,11,23)          67.824          estimate D2E/DX2                !
 ! D52   D(9,10,11,24)        -174.65           estimate D2E/DX2                !
 ! D53   D(21,10,11,12)       -174.7047         estimate D2E/DX2                !
 ! D54   D(21,10,11,23)        -54.0583         estimate D2E/DX2                !
 ! D55   D(21,10,11,24)         63.4678         estimate D2E/DX2                !
 ! D56   D(22,10,11,12)         67.3976         estimate D2E/DX2                !
 ! D57   D(22,10,11,23)       -171.956          estimate D2E/DX2                !
 ! D58   D(22,10,11,24)        -54.43           estimate D2E/DX2                !
 ! D59   D(10,11,12,13)         56.6939         estimate D2E/DX2                !
 ! D60   D(10,11,12,25)        177.5236         estimate D2E/DX2                !
 ! D61   D(10,11,12,26)        -64.7129         estimate D2E/DX2                !
 ! D62   D(23,11,12,13)        -63.8022         estimate D2E/DX2                !
 ! D63   D(23,11,12,25)         57.0275         estimate D2E/DX2                !
 ! D64   D(23,11,12,26)        174.791          estimate D2E/DX2                !
 ! D65   D(24,11,12,13)        178.5867         estimate D2E/DX2                !
 ! D66   D(24,11,12,25)        -60.5836         estimate D2E/DX2                !
 ! D67   D(24,11,12,26)         57.18           estimate D2E/DX2                !
 ! D68   D(11,12,13,7)         -60.4693         estimate D2E/DX2                !
 ! D69   D(11,12,13,14)       -179.1688         estimate D2E/DX2                !
 ! D70   D(11,12,13,15)         62.0328         estimate D2E/DX2                !
 ! D71   D(25,12,13,7)         178.7077         estimate D2E/DX2                !
 ! D72   D(25,12,13,14)         60.0082         estimate D2E/DX2                !
 ! D73   D(25,12,13,15)        -58.7902         estimate D2E/DX2                !
 ! D74   D(26,12,13,7)          60.9131         estimate D2E/DX2                !
 ! D75   D(26,12,13,14)        -57.7864         estimate D2E/DX2                !
 ! D76   D(26,12,13,15)       -176.5847         estimate D2E/DX2                !
 ! D77   D(7,13,15,16)         -67.1606         Frozen                          !
 ! D78   D(12,13,15,16)        175.4429         estimate D2E/DX2                !
 ! D79   D(14,13,15,16)         57.96           estimate D2E/DX2                !
 ! D80   D(13,15,16,4)           9.8551         estimate D2E/DX2                !
 ! D81   D(13,15,16,27)       -170.6258         estimate D2E/DX2                !
 --------------------------------------------------------------------------------
 Trust Radius=3.00D-01 FncErr=1.00D-07 GrdErr=1.00D-07 EigMax=2.50D+02 EigMin=1.00D-04
 Number of steps in this run=     20 maximum allowed number of steps=    162.
 GradGradGradGradGradGradGradGradGradGradGradGradGradGradGradGradGradGrad

                          Input orientation:                          
 ---------------------------------------------------------------------
 Center     Atomic      Atomic             Coordinates (Angstroms)
 Number     Number       Type             X           Y           Z
 ---------------------------------------------------------------------
      1          8           0       -3.671780   -0.839020   -1.037380
      2          7           0       -3.214350   -0.276240   -0.045320
      3          8           0       -3.874560    0.158110    0.897470
      4          6           0       -1.740650   -0.007160   -0.042370
      5          6           0       -1.377830    1.313040    0.223760
      6          7           0       -0.093500    1.773970    0.349220
      7          6           0        1.188160    1.002810    0.340520
      8          1           0        1.853340    1.526900    1.074830
      9          6           0        1.946100    1.012700   -1.010450
     10          6           0        3.361530    0.438630   -0.808840
     11          6           0        3.308860   -0.957270   -0.167960
     12          6           0        2.467080   -0.952110    1.126210
     13          6           0        1.026250   -0.432790    0.867420
     14          1           0        0.481650   -0.441010    1.840690
     15          7           0        0.370030   -1.342140   -0.077540
     16          6           0       -0.874040   -1.159750   -0.375960
     17          1           0       -2.182080    2.047970    0.396500
     18          1           0        0.137640    2.753960    0.169300
     19          1           0        1.395150    0.408270   -1.762200
     20          1           0        2.026050    2.050780   -1.397300
     21          1           0        3.891550    0.384870   -1.784940
     22          1           0        3.939110    1.117330   -0.142200
     23          1           0        2.861410   -1.672910   -0.894180
     24          1           0        4.339560   -1.309110    0.055880
     25          1           0        2.416150   -1.985540    1.533780
     26          1           0        2.961250   -0.312230    1.887010
     27          1           0       -1.386080   -1.940060   -0.959990
 ---------------------------------------------------------------------
                    Distance matrix (angstroms):
                    1          2          3          4          5
     1  O    0.000000
     2  N    1.228880   0.000000
     3  O    2.186100   1.230199   0.000000
     4  C    2.326220   1.498067   2.337560   0.000000
     5  C    3.388811   2.443567   2.832209   1.394773   0.000000
     6  N    4.642679   3.754827   4.148252   2.457411   1.370292
     7  C    5.376799   4.600754   5.162833   3.121630   2.587311
     8  H    6.370711   5.494318   5.891849   4.064264   3.348211
     9  C    5.915249   5.405838   6.184704   3.945810   3.558369
    10  C    7.152068   6.658543   7.439838   5.178653   4.928731
    11  C    7.035567   6.559810   7.347158   5.139653   5.222338
    12  C    6.509955   5.840199   6.442151   4.468053   4.552873
    13  C    5.085742   4.340540   4.936396   2.943572   3.040036
    14  H    5.068795   4.152662   4.497241   2.944955   3.024702
    15  N    4.184573   3.739647   4.606293   2.497675   3.193083
    16  C    2.892697   2.523284   3.515892   1.480121   2.593869
    17  H    3.551046   2.581228   2.585929   2.147330   1.103077
    18  H    5.373757   4.523716   4.833882   3.346126   2.091857
    19  H    5.268290   4.966258   5.908153   3.600505   3.528748
    20  H    6.398887   5.891066   6.607978   4.500998   3.841679
    21  H    7.698098   7.345554   8.219441   5.908631   5.715133
    22  H    7.909128   7.288581   7.940684   5.790865   5.333112
    23  H    6.587750   6.291749   7.206659   4.967822   5.304417
    24  H    8.099245   7.624868   8.386464   6.218817   6.292249
    25  H    6.707329   6.092437   6.676313   4.865925   5.195293
    26  H    7.268195   6.470953   6.923056   5.091507   4.922958
    27  H    2.538248   2.635809   3.747667   2.168836   3.461790
                    6          7          8          9         10
     6  N    0.000000
     7  C    1.495799   0.000000
     8  H    2.092305   1.120868   0.000000
     9  C    2.566749   1.549094   2.149744   0.000000
    10  C    3.880911   2.522472   2.647108   1.540664   0.000000
    11  C    4.393541   2.932206   3.135947   2.539229   1.536892
    12  C    3.819921   2.464682   2.554370   2.949104   2.545313
    13  C    2.528272   1.537786   2.137167   2.542039   3.003790
    14  H    2.731559   2.198700   2.518084   3.519501   4.010921
    15  N    3.179171   2.518512   3.429221   2.983218   3.557389
    16  C    3.121192   3.072894   4.094079   3.615979   4.547775
    17  H    2.107007   3.529024   4.125077   4.482540   5.896985
    18  H    1.022828   2.049252   2.295493   2.773864   4.087906
    19  H    2.922210   2.194938   3.083830   1.110860   2.185513
    20  H    2.760335   2.195523   2.532924   1.110700   2.174585
    21  H    4.729150   3.493959   3.692806   2.186042   1.112017
    22  H    4.115169   2.795328   2.449356   2.176441   1.112943
    23  H    4.707284   3.388765   3.889986   2.839685   2.171636
    24  H    5.407721   3.918841   3.906725   3.500930   2.181485
    25  H    4.672841   3.444135   3.586729   3.960239   3.501173
    26  H    4.006061   2.695331   2.295539   3.343837   2.826946
    27  H    4.144733   4.120500   5.162765   4.452501   5.312327
                   11         12         13         14         15
    11  C    0.000000
    12  C    1.543858   0.000000
    13  C    2.560742   1.553273   0.000000
    14  H    3.506325   2.171091   1.115308   0.000000
    15  N    2.965303   2.449236   1.466455   2.122287   0.000000
    16  C    4.192960   3.669157   2.384443   2.695927   1.292297
    17  H    6.284943   5.581008   4.082808   3.921245   4.269757
    18  H    4.893221   4.480728   3.381180   3.622116   4.110106
    19  H    2.840526   3.367875   2.785385   3.812686   2.636832
    20  H    3.493600   3.947146   3.506662   4.367925   3.999509
    21  H    2.180709   3.505913   3.989176   5.045264   4.277719
    22  H    2.168374   2.838718   3.450646   4.279522   4.334917
    23  H    1.113440   2.181060   2.830008   3.828884   2.642590
    24  H    1.111863   2.186147   3.522010   4.338504   3.971909
    25  H    2.179493   1.112063   2.187896   2.494405   2.682708
    26  H    2.181699   1.110165   2.190508   2.483374   3.410952
    27  H    4.861651   4.491672   3.380921   3.685020   2.054300
                   16         17         18         19         20
    16  C    0.000000
    17  H    3.549244   0.000000
    18  H    4.078962   2.435394   0.000000
    19  H    3.087000   4.488338   3.288508   0.000000
    20  H    4.445353   4.574504   2.552409   1.796949   0.000000
    21  H    5.204030   6.664350   4.850101   2.496613   2.530931
    22  H    5.329742   6.214922   4.150514   3.098209   2.471114
    23  H    3.805978   6.399031   5.305383   2.689737   3.849263
    24  H    5.233586   7.342874   5.846155   3.863206   4.330464
    25  H    3.892863   6.221441   5.432888   4.199554   5.003527
    26  H    4.533075   5.852009   4.508306   4.035904   4.152723
    27  H    1.100981   4.286964   5.062691   3.727390   5.268840
                   21         22         23         24         25
    21  H    0.000000
    22  H    1.799265   0.000000
    23  H    2.467610   3.084210   0.000000
    24  H    2.541436   2.467227   1.794406   0.000000
    25  H    4.336998   3.841369   2.488169   2.518184   0.000000
    26  H    3.851574   2.667873   3.097811   2.499309   1.794957
    27  H    5.825738   6.194680   4.256392   5.849192   4.547297
                   26         27
    26  H    0.000000
    27  H    5.445596   0.000000
 Symmetry turned off by external request.
 Stoichiometry    C9H13N3O2
 Framework group  C1[X(C9H13N3O2)]
 Deg. of freedom    75
 Full point group                 C1      NOp   1
 Rotational constants (GHZ):           1.6674018           0.3971771           0.3678225
 Standard basis: 6-31G(d) (6D, 7F)
   236 basis functions,   444 primitive gaussians,   236 cartesian basis functions
    52 alpha electrons       52 beta electrons
       nuclear repulsion energy       919.5793811614 Hartrees.
 NAtoms=   27 NActive=   27 NUniq=   27 SFac= 1.00D+00 NAtFMM=   60 NAOKFM=F Big=F
 Integral buffers will be    131072 words long.
 Raffenetti 1 integral format.
 Two-electron integral symmetry is turned off.
 One-electron integrals computed using PRISM.
 NBasis=   236 RedAO= T EigKep=  1.72D-03  NBF=   236
 NBsUse=   236 1.00D-06 EigRej= -1.00D+00 NBFU=   236
 ExpMin= 1.61D-01 ExpMax= 5.48D+03 ExpMxC= 8.25D+02 IAcc=3 IRadAn=         5 AccDes= 0.00D+00
 Harris functional with IExCor=  205 and IRadAn=       5 diagonalized for initial guess.
 HarFok:  IExCor=  205 AccDes= 0.00D+00 IRadAn=         5 IDoV= 1 UseB2=F ITyADJ=14
 ICtDFT=  3500011 ScaDFX=  1.000000  1.000000  1.000000  1.000000
 FoFCou: FMM=F IPFlag=           0 FMFlag=      100000 FMFlg1=           0
         NFxFlg=           0 DoJE=T BraDBF=F KetDBF=T FulRan=T
         wScrn=  0.000000 ICntrl=       500 IOpCl=  0 I1Cent=   200000004 NGrid=           0
         NMat0=    1 NMatS0=      1 NMatT0=    0 NMatD0=    1 NMtDS0=    0 NMtDT0=    0
 Symmetry not used in FoFCou.
 Keep R1 ints in memory in canonical form, NReq=397720213.
 Requested convergence on RMS density matrix=1.00D-08 within 128 cycles.
 Requested convergence on MAX density matrix=1.00D-06.
 Requested convergence on             energy=1.00D-06.
 No special actions if energy rises.
 SCF Done:  E(RHF) =  -661.276594918     A.U. after   17 cycles
            NFock= 17  Conv=0.50D-08     -V/T= 2.0035
 ExpMin= 1.61D-01 ExpMax= 5.48D+03 ExpMxC= 8.25D+02 IAcc=3 IRadAn=         5 AccDes= 0.00D+00
 HarFok:  IExCor=  205 AccDes= 0.00D+00 IRadAn=         5 IDoV=-2 UseB2=F ITyADJ=14
 ICtDFT= 12500011 ScaDFX=  1.000000  1.000000  1.000000  1.000000
 Range of M.O.s used for correlation:    15   236
 NBasis=   236 NAE=    52 NBE=    52 NFC=    14 NFV=     0
 NROrb=    222 NOA=    38 NOB=    38 NVA=   184 NVB=   184
 Fully direct method using O(ONN) memory.
 JobTyp=1 Pass  1:  I=  15 to  52 NPSUse=  4 ParTrn=T ParDer=T DoDerP=T.
 Spin components of T(2) and E(2):
     alpha-alpha T2 =       0.9194069138D-01 E2=     -0.2719226421D+00
     alpha-beta  T2 =       0.5006252476D+00 E2=     -0.1495068432D+01
     beta-beta   T2 =       0.9194069138D-01 E2=     -0.2719226421D+00
 ANorm=    0.1297885446D+01
 E2 =    -0.2038913716D+01 EUMP2 =    -0.66331550863386D+03
          IDoAtm=111111111111111111111111111
          Differentiating once with respect to electric field.
                with respect to dipole field.
          Differentiating once with respect to nuclear coordinates.
 Keep R1 ints in memory in canonical form, NReq=397723379.
          There are     1 degrees of freedom in the 1st order CPHF.  IDoFFX=0 NUNeed=     1.
 LinEq1:  Iter=  0 NonCon=     1 RMS=4.55D-03 Max=1.20D-01 NDo=     1
 AX will form     1 AO Fock derivatives at one time.
 LinEq1:  Iter=  1 NonCon=     1 RMS=1.53D-03 Max=3.60D-02 NDo=     1
 LinEq1:  Iter=  2 NonCon=     1 RMS=6.24D-04 Max=2.00D-02 NDo=     1
 LinEq1:  Iter=  3 NonCon=     1 RMS=2.85D-04 Max=6.38D-03 NDo=     1
 LinEq1:  Iter=  4 NonCon=     1 RMS=8.64D-05 Max=1.60D-03 NDo=     1
 LinEq1:  Iter=  5 NonCon=     1 RMS=3.50D-05 Max=1.47D-03 NDo=     1
 LinEq1:  Iter=  6 NonCon=     1 RMS=1.50D-05 Max=6.49D-04 NDo=     1
 LinEq1:  Iter=  7 NonCon=     1 RMS=6.00D-06 Max=1.20D-04 NDo=     1
 LinEq1:  Iter=  8 NonCon=     1 RMS=2.47D-06 Max=6.41D-05 NDo=     1
 LinEq1:  Iter=  9 NonCon=     1 RMS=9.98D-07 Max=2.89D-05 NDo=     1
 LinEq1:  Iter= 10 NonCon=     1 RMS=4.67D-07 Max=1.16D-05 NDo=     1
 LinEq1:  Iter= 11 NonCon=     1 RMS=1.70D-07 Max=5.56D-06 NDo=     1
 LinEq1:  Iter= 12 NonCon=     1 RMS=6.45D-08 Max=1.52D-06 NDo=     1
 LinEq1:  Iter= 13 NonCon=     1 RMS=2.09D-08 Max=5.73D-07 NDo=     1
 LinEq1:  Iter= 14 NonCon=     1 RMS=7.11D-09 Max=1.71D-07 NDo=     1
 LinEq1:  Iter= 15 NonCon=     1 RMS=2.57D-09 Max=5.62D-08 NDo=     1
 LinEq1:  Iter= 16 NonCon=     1 RMS=8.96D-10 Max=1.71D-08 NDo=     1
 LinEq1:  Iter= 17 NonCon=     1 RMS=2.86D-10 Max=4.10D-09 NDo=     1
 LinEq1:  Iter= 18 NonCon=     1 RMS=1.02D-10 Max=1.61D-09 NDo=     1
 LinEq1:  Iter= 19 NonCon=     0 RMS=3.21D-11 Max=5.75D-10 NDo=     1
 Linear equations converged to 1.000D-10 1.000D-09 after    19 iterations.
 End of Minotr F.D. properties file   721 does not exist.
 End of Minotr F.D. properties file   722 does not exist.
 End of Minotr F.D. properties file   788 does not exist.

 **********************************************************************

            Population analysis using the SCF Density.

 **********************************************************************

 Alpha  occ. eigenvalues --  -20.60231 -20.60120 -15.85153 -15.62860 -15.56762
 Alpha  occ. eigenvalues --  -11.35524 -11.30607 -11.29925 -11.29623 -11.27638
 Alpha  occ. eigenvalues --  -11.24465 -11.23770 -11.23322 -11.22778  -1.58993
 Alpha  occ. eigenvalues --   -1.38663  -1.28294  -1.22670  -1.13436  -1.08779
 Alpha  occ. eigenvalues --   -1.01720  -1.00670  -0.93738  -0.88983  -0.84782
 Alpha  occ. eigenvalues --   -0.81722  -0.78242  -0.77125  -0.74155  -0.71401
 Alpha  occ. eigenvalues --   -0.71024  -0.69155  -0.67226  -0.64315  -0.63114
 Alpha  occ. eigenvalues --   -0.61645  -0.60382  -0.57361  -0.56321  -0.54732
 Alpha  occ. eigenvalues --   -0.53554  -0.50907  -0.49986  -0.48752  -0.47897
 Alpha  occ. eigenvalues --   -0.47730  -0.46249  -0.45497  -0.44151  -0.42040
 Alpha  occ. eigenvalues --   -0.39883  -0.33182
 Alpha virt. eigenvalues --    0.08084   0.11484   0.18214   0.21114   0.22624
 Alpha virt. eigenvalues --    0.24061   0.25483   0.27651   0.28699   0.28828
 Alpha virt. eigenvalues --    0.29820   0.31080   0.31873   0.32372   0.33426
 Alpha virt. eigenvalues --    0.33883   0.34880   0.36033   0.37686   0.38532
 Alpha virt. eigenvalues --    0.40561   0.42057   0.44923   0.45168   0.45750
 Alpha virt. eigenvalues --    0.46815   0.49507   0.53587   0.57419   0.58631
 Alpha virt. eigenvalues --    0.62526   0.68927   0.69384   0.72189   0.73761
 Alpha virt. eigenvalues --    0.74621   0.75845   0.76153   0.77797   0.78744
 Alpha virt. eigenvalues --    0.79586   0.83374   0.84951   0.85779   0.88226
 Alpha virt. eigenvalues --    0.89197   0.89798   0.90736   0.92072   0.93453
 Alpha virt. eigenvalues --    0.94976   0.97004   0.99251   1.00424   1.01347
 Alpha virt. eigenvalues --    1.03724   1.05137   1.06411   1.07197   1.07841
 Alpha virt. eigenvalues --    1.09177   1.10540   1.11212   1.12131   1.12736
 Alpha virt. eigenvalues --    1.13285   1.13558   1.15395   1.15985   1.16395
 Alpha virt. eigenvalues --    1.17105   1.18177   1.18579   1.20884   1.21974
 Alpha virt. eigenvalues --    1.23320   1.23997   1.25921   1.26720   1.29148
 Alpha virt. eigenvalues --    1.31843   1.33152   1.33949   1.35481   1.36330
 Alpha virt. eigenvalues --    1.39497   1.41708   1.43825   1.45065   1.48284
 Alpha virt. eigenvalues --    1.53513   1.54728   1.59607   1.63441   1.67848
 Alpha virt. eigenvalues --    1.68057   1.70237   1.72559   1.74284   1.74561
 Alpha virt. eigenvalues --    1.78879   1.79576   1.85172   1.88757   1.90167
 Alpha virt. eigenvalues --    1.92497   1.97021   1.97996   1.98953   2.00420
 Alpha virt. eigenvalues --    2.02084   2.04573   2.07281   2.08829   2.12545
 Alpha virt. eigenvalues --    2.13020   2.15368   2.17700   2.19385   2.20511
 Alpha virt. eigenvalues --    2.21915   2.23277   2.25060   2.25981   2.26652
 Alpha virt. eigenvalues --    2.29662   2.31911   2.33415   2.34708   2.36544
 Alpha virt. eigenvalues --    2.37601   2.38735   2.40735   2.43513   2.44787
 Alpha virt. eigenvalues --    2.47807   2.49789   2.50712   2.56969   2.58141
 Alpha virt. eigenvalues --    2.60694   2.63370   2.66384   2.68409   2.69438
 Alpha virt. eigenvalues --    2.69587   2.70410   2.72910   2.75476   2.83604
 Alpha virt. eigenvalues --    2.85102   2.86998   2.90242   2.93224   2.94242
 Alpha virt. eigenvalues --    2.97577   2.98782   3.02791   3.04976   3.05917
 Alpha virt. eigenvalues --    3.08242   3.13156   3.19055   3.19401   3.24202
 Alpha virt. eigenvalues --    3.30239   3.33804   3.38721   3.40360   3.59419
 Alpha virt. eigenvalues --    4.10617   4.21135   4.23091   4.32819   4.43779
 Alpha virt. eigenvalues --    4.53196   4.59736   4.61662   4.71066   4.76964
 Alpha virt. eigenvalues --    4.97289   4.99339   5.03380   5.09889
          Condensed to atoms (all electrons):
               1          2          3          4          5          6
     1  O    8.304417   0.298212  -0.080432  -0.083184   0.000838  -0.000022
     2  N    0.298212   5.745235   0.306973   0.240632  -0.042697   0.001326
     3  O   -0.080432   0.306973   8.302437  -0.086069   0.007057   0.000206
     4  C   -0.083184   0.240632  -0.086069   5.252767   0.578924  -0.052072
     5  C    0.000838  -0.042697   0.007057   0.578924   4.638488   0.320326
     6  N   -0.000022   0.001326   0.000206  -0.052072   0.320326   7.172690
     7  C   -0.000002  -0.000094   0.000009   0.003316  -0.032176   0.206416
     8  H    0.000000   0.000002  -0.000000  -0.000185   0.002570  -0.049470
     9  C    0.000000  -0.000004   0.000000   0.000523   0.001582  -0.057450
    10  C    0.000000   0.000000  -0.000000  -0.000018  -0.000063   0.003372
    11  C   -0.000000  -0.000000   0.000000  -0.000020   0.000015  -0.000154
    12  C    0.000000   0.000001  -0.000000  -0.000062  -0.000115   0.003555
    13  C    0.000001  -0.000052  -0.000013  -0.010224   0.001163  -0.045622
    14  H    0.000001  -0.000067  -0.000004   0.002801   0.004960  -0.005552
    15  N    0.000292   0.001771  -0.000018  -0.065514  -0.004999   0.002995
    16  C    0.004586  -0.027633   0.002075   0.316787  -0.034366  -0.002223
    17  H    0.000093  -0.002572   0.006110  -0.036515   0.385369  -0.032421
    18  H    0.000001  -0.000049   0.000001   0.001234  -0.022685   0.327312
    19  H    0.000000   0.000000  -0.000000  -0.000795   0.000728   0.000658
    20  H    0.000000  -0.000000   0.000000  -0.000032   0.000046  -0.001530
    21  H   -0.000000  -0.000000   0.000000   0.000000   0.000001  -0.000060
    22  H    0.000000   0.000000  -0.000000  -0.000000  -0.000002  -0.000097
    23  H    0.000000  -0.000000   0.000000   0.000025   0.000000  -0.000024
    24  H    0.000000   0.000000  -0.000000   0.000000  -0.000000   0.000004
    25  H    0.000000  -0.000000   0.000000   0.000018  -0.000000  -0.000070
    26  H    0.000000  -0.000000   0.000000   0.000005  -0.000001  -0.000065
    27  H    0.005760   0.000684   0.000049  -0.068907   0.001847   0.000034
               7          8          9         10         11         12
     1  O   -0.000002   0.000000   0.000000   0.000000  -0.000000   0.000000
     2  N   -0.000094   0.000002  -0.000004   0.000000  -0.000000   0.000001
     3  O    0.000009  -0.000000   0.000000  -0.000000   0.000000  -0.000000
     4  C    0.003316  -0.000185   0.000523  -0.000018  -0.000020  -0.000062
     5  C   -0.032176   0.002570   0.001582  -0.000063   0.000015  -0.000115
     6  N    0.206416  -0.049470  -0.057450   0.003372  -0.000154   0.003555
     7  C    5.004543   0.415863   0.341452  -0.049427  -0.007649  -0.064552
     8  H    0.415863   0.548058  -0.060692   0.001348  -0.000295  -0.002894
     9  C    0.341452  -0.060692   5.181460   0.317803  -0.053088  -0.006082
    10  C   -0.049427   0.001348   0.317803   5.127236   0.332780  -0.060188
    11  C   -0.007649  -0.000295  -0.053088   0.332780   5.124316   0.330523
    12  C   -0.064552  -0.002894  -0.006082  -0.060188   0.330523   5.138076
    13  C    0.330792  -0.039697  -0.051275  -0.001585  -0.047966   0.367401
    14  H   -0.039959  -0.000939   0.003823  -0.000386   0.003946  -0.040586
    15  N   -0.060267   0.004056  -0.012714   0.001520  -0.007776  -0.074091
    16  C   -0.001226  -0.000061  -0.000501  -0.000048   0.000032   0.002457
    17  H    0.001566  -0.000025  -0.000073   0.000001   0.000000   0.000001
    18  H   -0.029039  -0.002719   0.000718  -0.000114   0.000011  -0.000134
    19  H   -0.035051   0.004091   0.386264  -0.032785  -0.002257   0.000632
    20  H   -0.041588  -0.001802   0.397193  -0.037378   0.004137  -0.000360
    21  H    0.004044  -0.000082  -0.035803   0.400055  -0.035888   0.004218
    22  H   -0.004244   0.003534  -0.045636   0.395885  -0.045615  -0.001254
    23  H    0.000435   0.000033  -0.001993  -0.040136   0.396683  -0.036724
    24  H   -0.000146  -0.000098   0.004387  -0.038486   0.400242  -0.037885
    25  H    0.005000  -0.000004  -0.000375   0.004105  -0.033963   0.395321
    26  H   -0.004450   0.001554   0.001046  -0.002404  -0.042269   0.394630
    27  H   -0.000379   0.000008  -0.000053   0.000004   0.000005  -0.000020
              13         14         15         16         17         18
     1  O    0.000001   0.000001   0.000292   0.004586   0.000093   0.000001
     2  N   -0.000052  -0.000067   0.001771  -0.027633  -0.002572  -0.000049
     3  O   -0.000013  -0.000004  -0.000018   0.002075   0.006110   0.000001
     4  C   -0.010224   0.002801  -0.065514   0.316787  -0.036515   0.001234
     5  C    0.001163   0.004960  -0.004999  -0.034366   0.385369  -0.022685
     6  N   -0.045622  -0.005552   0.002995  -0.002223  -0.032421   0.327312
     7  C    0.330792  -0.039959  -0.060267  -0.001226   0.001566  -0.029039
     8  H   -0.039697  -0.000939   0.004056  -0.000061  -0.000025  -0.002719
     9  C   -0.051275   0.003823  -0.012714  -0.000501  -0.000073   0.000718
    10  C   -0.001585  -0.000386   0.001520  -0.000048   0.000001  -0.000114
    11  C   -0.047966   0.003946  -0.007776   0.000032   0.000000   0.000011
    12  C    0.367401  -0.040586  -0.074091   0.002457   0.000001  -0.000134
    13  C    5.021452   0.403048   0.244892  -0.069755  -0.000054   0.003715
    14  H    0.403048   0.515466  -0.035217  -0.005680   0.000063   0.000010
    15  N    0.244892  -0.035217   6.936453   0.587421  -0.000046  -0.000113
    16  C   -0.069755  -0.005680   0.587421   4.706459   0.001459  -0.000205
    17  H   -0.000054   0.000063  -0.000046   0.001459   0.407010  -0.001930
    18  H    0.003715   0.000010  -0.000113  -0.000205  -0.001930   0.328084
    19  H   -0.006178   0.000062   0.006841   0.002197   0.000012  -0.000115
    20  H    0.003870  -0.000050   0.000080  -0.000035  -0.000001   0.002784
    21  H   -0.000383   0.000009  -0.000032   0.000002  -0.000000  -0.000000
    22  H    0.000323  -0.000043   0.000005  -0.000001   0.000000   0.000003
    23  H   -0.005859   0.000007   0.006773   0.000062   0.000000   0.000000
    24  H    0.004145  -0.000058   0.000038   0.000005   0.000000  -0.000000
    25  H   -0.034559  -0.002657   0.000873  -0.000063  -0.000000   0.000002
    26  H   -0.044622  -0.000913   0.004164  -0.000055   0.000000  -0.000001
    27  H    0.004755  -0.000179  -0.037657   0.402352  -0.000067   0.000002
              19         20         21         22         23         24
     1  O    0.000000   0.000000  -0.000000   0.000000   0.000000   0.000000
     2  N    0.000000  -0.000000  -0.000000   0.000000  -0.000000   0.000000
     3  O   -0.000000   0.000000   0.000000  -0.000000   0.000000  -0.000000
     4  C   -0.000795  -0.000032   0.000000  -0.000000   0.000025   0.000000
     5  C    0.000728   0.000046   0.000001  -0.000002   0.000000  -0.000000
     6  N    0.000658  -0.001530  -0.000060  -0.000097  -0.000024   0.000004
     7  C   -0.035051  -0.041588   0.004044  -0.004244   0.000435  -0.000146
     8  H    0.004091  -0.001802  -0.000082   0.003534   0.000033  -0.000098
     9  C    0.386264   0.397193  -0.035803  -0.045636  -0.001993   0.004387
    10  C   -0.032785  -0.037378   0.400055   0.395885  -0.040136  -0.038486
    11  C   -0.002257   0.004137  -0.035888  -0.045615   0.396683   0.400242
    12  C    0.000632  -0.000360   0.004218  -0.001254  -0.036724  -0.037885
    13  C   -0.006178   0.003870  -0.000383   0.000323  -0.005859   0.004145
    14  H    0.000062  -0.000050   0.000009  -0.000043   0.000007  -0.000058
    15  N    0.006841   0.000080  -0.000032   0.000005   0.006773   0.000038
    16  C    0.002197  -0.000035   0.000002  -0.000001   0.000062   0.000005
    17  H    0.000012  -0.000001  -0.000000   0.000000   0.000000   0.000000
    18  H   -0.000115   0.002784  -0.000000   0.000003   0.000000  -0.000000
    19  H    0.506887  -0.023888  -0.002597   0.003765   0.001651  -0.000070
    20  H   -0.023888   0.549910  -0.002635  -0.002954  -0.000050  -0.000090
    21  H   -0.002597  -0.002635   0.526676  -0.024751  -0.002823  -0.002070
    22  H    0.003765  -0.002954  -0.024751   0.569222   0.004067  -0.003590
    23  H    0.001651  -0.000050  -0.002823   0.004067   0.510310  -0.025026
    24  H   -0.000070  -0.000090  -0.002070  -0.003590  -0.025026   0.541584
    25  H   -0.000027   0.000011  -0.000086  -0.000082  -0.002084  -0.002394
    26  H    0.000023  -0.000035  -0.000073   0.002459   0.003820  -0.002757
    27  H    0.000073   0.000000  -0.000000   0.000000  -0.000021  -0.000000
              25         26         27
     1  O    0.000000   0.000000   0.005760
     2  N   -0.000000  -0.000000   0.000684
     3  O    0.000000   0.000000   0.000049
     4  C    0.000018   0.000005  -0.068907
     5  C   -0.000000  -0.000001   0.001847
     6  N   -0.000070  -0.000065   0.000034
     7  C    0.005000  -0.004450  -0.000379
     8  H   -0.000004   0.001554   0.000008
     9  C   -0.000375   0.001046  -0.000053
    10  C    0.004105  -0.002404   0.000004
    11  C   -0.033963  -0.042269   0.000005
    12  C    0.395321   0.394630  -0.000020
    13  C   -0.034559  -0.044622   0.004755
    14  H   -0.002657  -0.000913  -0.000179
    15  N    0.000873   0.004164  -0.037657
    16  C   -0.000063  -0.000055   0.402352
    17  H   -0.000000   0.000000  -0.000067
    18  H    0.000002  -0.000001   0.000002
    19  H   -0.000027   0.000023   0.000073
    20  H    0.000011  -0.000035   0.000000
    21  H   -0.000086  -0.000073  -0.000000
    22  H   -0.000082   0.002459   0.000000
    23  H   -0.002084   0.003820  -0.000021
    24  H   -0.002394  -0.002757  -0.000000
    25  H    0.511450  -0.023172  -0.000010
    26  H   -0.023172   0.560742   0.000001
    27  H   -0.000010   0.000001   0.449914
 Mulliken charges:
               1
     1  O   -0.450560
     2  N    0.478332
     3  O   -0.458381
     4  C    0.006566
     5  C    0.193191
     6  N   -0.792062
     7  C    0.056813
     8  H    0.177843
     9  C   -0.310514
    10  C   -0.321091
    11  C   -0.315751
    12  C   -0.311871
    13  C   -0.027716
    14  H    0.198093
    15  N   -0.499732
    16  C    0.115958
    17  H    0.272021
    18  H    0.393226
    19  H    0.189875
    20  H    0.154396
    21  H    0.172278
    22  H    0.149007
    23  H    0.190872
    24  H    0.162265
    25  H    0.182767
    26  H    0.152371
    27  H    0.241805
 Sum of Mulliken charges =  -0.00000
 Mulliken charges with hydrogens summed into heavy atoms:
               1
     1  O   -0.450560
     2  N    0.478332
     3  O   -0.458381
     4  C    0.006566
     5  C    0.465212
     6  N   -0.398836
     7  C    0.234657
     9  C    0.033756
    10  C    0.000194
    11  C    0.037386
    12  C    0.023267
    13  C    0.170377
    15  N   -0.499732
    16  C    0.357763
 Electronic spatial extent (au):  <R**2>=           3089.3039
 Charge=             -0.0000 electrons
 Dipole moment (field-independent basis, Debye):
    X=              4.9246    Y=              4.2613    Z=              0.4570  Tot=              6.5284
 Quadrupole moment (field-independent basis, Debye-Ang):
   XX=           -103.1034   YY=            -76.6952   ZZ=            -86.3365
   XY=             -1.8663   XZ=              0.8185   YZ=             -1.6141
 Traceless Quadrupole moment (field-independent basis, Debye-Ang):
   XX=            -14.3917   YY=             12.0165   ZZ=              2.3752
   XY=             -1.8663   XZ=              0.8185   YZ=             -1.6141
 Octapole moment (field-independent basis, Debye-Ang**2):
  XXX=             86.3063  YYY=             31.2519  ZZZ=             -3.8276  XYY=            -16.4610
  XXY=             14.8705  XXZ=             -0.6322  XZZ=              5.9052  YZZ=             -1.7689
  YYZ=              0.4688  XYZ=              4.5804
 Hexadecapole moment (field-independent basis, Debye-Ang**3):
 XXXX=          -3450.7763 YYYY=           -555.7661 ZZZZ=           -364.9776 XXXY=            -60.2241
 XXXZ=             22.6914 YYYX=             -1.6792 YYYZ=              4.3602 ZZZX=             10.8656
 ZZZY=              1.2184 XXYY=           -588.8555 XXZZ=           -598.7137 YYZZ=           -166.8221
 XXYZ=            -18.9758 YYXZ=              5.2269 ZZXY=             -2.4282
 N-N= 9.195793811614D+02 E-N=-3.385228308010D+03  KE= 6.589414307193D+02
 Calling FoFJK, ICntrl=  10002127 FMM=F ISym2X=0 I1Cent= 0 IOpClX= 0 NMat=1 NMatS=1 NMatT=0.
 -------------------------------------------------------------------
 Center     Atomic                   Forces (Hartrees/Bohr)
 Number     Number              X              Y              Z
 -------------------------------------------------------------------
      1        8          -0.006868886   -0.017064003   -0.014309220
      2        7           0.038304076    0.019242543   -0.004795542
      3        8          -0.010654940    0.006438589    0.015663401
      4        6           0.002062272    0.006001006    0.008685255
      5        6           0.005509676   -0.019935834   -0.000146181
      6        7           0.016607983   -0.005734437   -0.005875980
      7        6          -0.005620818    0.005853121    0.002952248
      8        1          -0.010184264   -0.001877526   -0.007552323
      9        6          -0.003887356   -0.000082046   -0.002001405
     10        6           0.002802373   -0.000841994    0.000882730
     11        6          -0.000855995   -0.004604796   -0.002142144
     12        6           0.000800462   -0.008889298   -0.002772118
     13        6           0.008837189   -0.000610609    0.002656572
     14        1           0.000706741    0.003752908   -0.010390197
     15        7           0.000846561   -0.002588171    0.005297832
     16        6          -0.016030610    0.013025233   -0.000673321
     17        1           0.008847050   -0.005094772   -0.003051844
     18        1          -0.016929825   -0.002218642    0.004223624
     19        1           0.003110916    0.006117598    0.007389955
     20        1          -0.003228760   -0.007343023    0.002911173
     21        1          -0.004276720    0.002697057    0.009557975
     22        1          -0.004011729   -0.004254282   -0.007219877
     23        1           0.003944723    0.006412201    0.009047420
     24        1          -0.009397731    0.002462088   -0.002190032
     25        1          -0.000885825    0.010505471   -0.002805935
     26        1          -0.004781241   -0.004972005   -0.004210492
     27        1           0.005234679    0.003603623    0.000868428
 -------------------------------------------------------------------
 Cartesian Forces:  Max     0.038304076 RMS     0.008611196

 GradGradGradGradGradGradGradGradGradGradGradGradGradGradGradGradGradGrad
 Berny optimization.
 FormGI is forming the generalized inverse of G from B-inverse, IUseBI=4.
 Internal  Forces:  Max     0.030259946 RMS     0.006286181
 Search for a local minimum.
 Step number   1 out of a maximum of   20
 All quantities printed in internal units (Hartrees-Bohrs-Radians)
 Mixed Optimization -- RFO/linear search
 Second derivative matrix not updated -- first step.
 ITU=  0
     Eigenvalues ---    0.00419   0.00769   0.01084   0.01173   0.01244
     Eigenvalues ---    0.01493   0.01537   0.01632   0.01995   0.02045
     Eigenvalues ---    0.02125   0.02676   0.03657   0.04507   0.04696
     Eigenvalues ---    0.04837   0.05074   0.05138   0.05302   0.05876
     Eigenvalues ---    0.06269   0.07215   0.07701   0.07719   0.07864
     Eigenvalues ---    0.07995   0.08046   0.08050   0.10460   0.11739
     Eigenvalues ---    0.12270   0.13450   0.15225   0.15696   0.15989
     Eigenvalues ---    0.16000   0.20095   0.21994   0.23230   0.24978
     Eigenvalues ---    0.25000   0.25000   0.25333   0.26153   0.26655
     Eigenvalues ---    0.27986   0.28083   0.28438   0.31476   0.31742
     Eigenvalues ---    0.32044   0.32239   0.32290   0.32383   0.32387
     Eigenvalues ---    0.32404   0.32509   0.32526   0.32581   0.32583
     Eigenvalues ---    0.33344   0.33574   0.33828   0.35244   0.43890
     Eigenvalues ---    0.44994   0.49375   0.67170   0.91003   0.91555
     Eigenvalues --- 1000.000001000.000001000.000001000.000001000.00000
     Eigenvalues --- 1000.000001000.000001000.000001000.000001000.00000
     Eigenvalues --- 1000.000001000.000001000.000001000.000001000.00000
     Eigenvalues --- 1000.000001000.000001000.000001000.000001000.00000
     Eigenvalues --- 1000.000001000.000001000.000001000.000001000.00000
     Eigenvalues --- 1000.000001000.000001000.000001000.000001000.00000
     Eigenvalues --- 1000.000001000.000001000.000001000.000001000.00000
     Eigenvalues --- 1000.000001000.000001000.000001000.000001000.00000
     Eigenvalues --- 1000.000001000.000001000.000001000.000001000.00000
     Eigenvalues --- 1000.000001000.000001000.000001000.000001000.00000
     Eigenvalues --- 1000.000001000.000001000.000001000.000001000.00000
     Eigenvalues --- 1000.000001000.000001000.000001000.000001000.00000
     Eigenvalues --- 1000.000001000.000001000.000001000.000001000.00000
     Eigenvalues --- 1000.000001000.000001000.000001000.000001000.00000
     Eigenvalues --- 1000.000001000.000001000.000001000.000001000.00000
     Eigenvalues --- 1000.000001000.000001000.000001000.000001000.00000
     Eigenvalues --- 1000.000001000.000001000.000001000.000001000.00000
     Eigenvalues --- 1000.000001000.000001000.000001000.000001000.00000
     Eigenvalues --- 1000.00000
 RFO step:  Lambda=-1.87993902D-02 EMin= 4.19464758D-03
 Linear search not attempted -- first point.
 Iteration  1 RMS(Cart)=  0.04722792 RMS(Int)=  0.00111044
 Iteration  2 RMS(Cart)=  0.00129944 RMS(Int)=  0.00027515
 Iteration  3 RMS(Cart)=  0.00000061 RMS(Int)=  0.00027515
 Iteration  1 RMS(Cart)=  0.00001809 RMS(Int)=  0.00001805
 Iteration  2 RMS(Cart)=  0.00001176 RMS(Int)=  0.00001950
 Iteration  3 RMS(Cart)=  0.00000872 RMS(Int)=  0.00002196
 Iteration  4 RMS(Cart)=  0.00000698 RMS(Int)=  0.00002441
 Iteration  5 RMS(Cart)=  0.00000579 RMS(Int)=  0.00002664
 Iteration  6 RMS(Cart)=  0.00000487 RMS(Int)=  0.00002862
 Iteration  7 RMS(Cart)=  0.00000412 RMS(Int)=  0.00003035
 Iteration  8 RMS(Cart)=  0.00000349 RMS(Int)=  0.00003185
 Iteration  9 RMS(Cart)=  0.00000296 RMS(Int)=  0.00003314
 Iteration 10 RMS(Cart)=  0.00000250 RMS(Int)=  0.00003425
 Iteration 11 RMS(Cart)=  0.00000212 RMS(Int)=  0.00003520
 Iteration 12 RMS(Cart)=  0.00000179 RMS(Int)=  0.00003602
 Iteration 13 RMS(Cart)=  0.00000152 RMS(Int)=  0.00003671
 Iteration 14 RMS(Cart)=  0.00000128 RMS(Int)=  0.00003729
 Iteration 15 RMS(Cart)=  0.00000108 RMS(Int)=  0.00003779
 Iteration 16 RMS(Cart)=  0.00000092 RMS(Int)=  0.00003822
 Variable       Old X    -DE/DX   Delta X   Delta X   Delta X     New X
                                 (Linear)    (Quad)   (Total)
    R1        2.32225   0.02192   0.00000   0.02346   0.02346   2.34571
    R2        2.32474   0.02000   0.00000   0.02153   0.02153   2.34627
    R3        2.83094  -0.02198   0.00000  -0.06379  -0.06379   2.76714
    R4        2.63574  -0.03026   0.00000  -0.06491  -0.06474   2.57100
    R5        2.79702  -0.02018   0.00000  -0.05838  -0.05821   2.73882
    R6        2.58948  -0.02178   0.00000  -0.04179  -0.04172   2.54776
    R7        2.08451  -0.01032   0.00000  -0.02931  -0.02931   2.05521
    R8        2.82665  -0.02032   0.00000  -0.05644  -0.05651   2.77014
    R9        1.93286  -0.00669   0.00000  -0.01463  -0.01463   1.91824
   R10        2.11813  -0.01187   0.00000  -0.03558  -0.03558   2.08255
   R11        2.92736  -0.01288   0.00000  -0.04461  -0.04461   2.88276
   R12        2.90599  -0.00437   0.00000  -0.00980  -0.00974   2.89625
   R13        2.91143  -0.00460   0.00000  -0.01457  -0.01462   2.89681
   R14        2.09922  -0.00987   0.00000  -0.02871  -0.02871   2.07051
   R15        2.09892  -0.00811   0.00000  -0.02357  -0.02357   2.07535
   R16        2.90431  -0.00190   0.00000  -0.00737  -0.00745   2.89686
   R17        2.10141  -0.01056   0.00000  -0.03081  -0.03081   2.07060
   R18        2.10316  -0.00900   0.00000  -0.02634  -0.02634   2.07682
   R19        2.91747  -0.00915   0.00000  -0.02945  -0.02945   2.88802
   R20        2.10410  -0.01161   0.00000  -0.03402  -0.03402   2.07007
   R21        2.10112  -0.00993   0.00000  -0.02897  -0.02897   2.07215
   R22        2.93526  -0.01060   0.00000  -0.03702  -0.03698   2.89828
   R23        2.10150  -0.01075   0.00000  -0.03138  -0.03138   2.07012
   R24        2.09791  -0.00788   0.00000  -0.02286  -0.02286   2.07504
   R25        2.10763  -0.00944   0.00000  -0.02783  -0.02783   2.07980
   R26        2.77120  -0.00624   0.00000  -0.01396  -0.01422   2.75698
   R27        2.44209  -0.00446   0.00000  -0.00655  -0.00659   2.43549
   R28        2.08055  -0.00545   0.00000  -0.01537  -0.01537   2.06518
    A1        2.19027   0.00021   0.00000   0.00097   0.00071   2.19098
    A2        2.03759   0.00017   0.00000   0.00081   0.00056   2.03815
    A3        2.05219   0.00031   0.00000   0.00132   0.00106   2.05325
    A4        2.01118  -0.00441   0.00000  -0.01272  -0.01295   1.99823
    A5        2.02157  -0.00081   0.00000   0.00056   0.00034   2.02191
    A6        2.24949   0.00515   0.00000   0.01284   0.01316   2.26265
    A7        2.18912   0.00877   0.00000   0.03239   0.03259   2.22170
    A8        2.06105  -0.00238   0.00000  -0.00441  -0.00468   2.05637
    A9        2.03187  -0.00632   0.00000  -0.02670  -0.02698   2.00489
   A10        2.25124  -0.00608   0.00000  -0.01894  -0.01897   2.23227
   A11        2.11529  -0.01172   0.00000  -0.06993  -0.07056   2.04473
   A12        1.87476   0.01789   0.00000   0.09926   0.09933   1.97409
   A13        1.83757  -0.00187   0.00000  -0.01750  -0.01726   1.82031
   A14        2.00536  -0.00068   0.00000  -0.01113  -0.01145   1.99391
   A15        1.97043   0.00093   0.00000  -0.00531  -0.00562   1.96481
   A16        1.85250   0.00269   0.00000   0.02577   0.02567   1.87816
   A17        1.84888   0.00107   0.00000   0.02419   0.02382   1.87271
   A18        1.93509  -0.00182   0.00000  -0.01048  -0.01019   1.92490
   A19        1.91029   0.00033   0.00000  -0.00555  -0.00567   1.90462
   A20        1.92201  -0.00071   0.00000  -0.01366  -0.01364   1.90837
   A21        1.92297  -0.00178   0.00000  -0.00709  -0.00708   1.91588
   A22        1.91927  -0.00050   0.00000   0.00573   0.00567   1.92495
   A23        1.90466   0.00304   0.00000   0.02627   0.02626   1.93092
   A24        1.88445  -0.00036   0.00000  -0.00525  -0.00552   1.87893
   A25        1.94069  -0.00096   0.00000   0.00571   0.00562   1.94631
   A26        1.91881  -0.00063   0.00000  -0.00676  -0.00679   1.91203
   A27        1.90492   0.00030   0.00000  -0.00303  -0.00311   1.90181
   A28        1.91607   0.00075   0.00000   0.00755   0.00759   1.92366
   A29        1.89852   0.00178   0.00000   0.01162   0.01164   1.91016
   A30        1.88379  -0.00124   0.00000  -0.01562  -0.01570   1.86809
   A31        1.94465   0.00067   0.00000   0.00552   0.00561   1.95026
   A32        1.90240   0.00060   0.00000   0.00637   0.00636   1.90876
   A33        1.91728   0.00041   0.00000   0.00559   0.00554   1.92282
   A34        1.90687  -0.00121   0.00000  -0.01537  -0.01541   1.89146
   A35        1.91531  -0.00043   0.00000   0.00045   0.00037   1.91568
   A36        1.87596  -0.00007   0.00000  -0.00297  -0.00301   1.87295
   A37        1.94682  -0.00295   0.00000  -0.01979  -0.01979   1.92703
   A38        1.90614   0.00248   0.00000   0.01704   0.01687   1.92301
   A39        1.91101   0.00143   0.00000   0.01476   0.01470   1.92572
   A40        1.90634   0.00020   0.00000  -0.00374  -0.00361   1.90272
   A41        1.91174  -0.00024   0.00000  -0.00422  -0.00412   1.90763
   A42        1.88058  -0.00085   0.00000  -0.00350  -0.00370   1.87687
   A43        1.84579   0.00468   0.00000   0.02377   0.02377   1.86956
   A44        1.93616  -0.00436   0.00000  -0.03106  -0.03163   1.90453
   A45        1.98802   0.00102   0.00000   0.01405   0.01462   2.00263
   A46        1.88083   0.00233   0.00000   0.03329   0.03362   1.91445
   A47        1.89139  -0.00427   0.00000  -0.03143  -0.03161   1.85977
   A48        1.91691   0.00081   0.00000  -0.00607  -0.00598   1.91093
   A49        2.08526  -0.00598   0.00000  -0.01118  -0.01175   2.07351
   A50        2.24146  -0.00249   0.00000  -0.01123  -0.01161   2.22985
   A51        1.98140   0.00379   0.00000   0.01967   0.01901   2.00041
   A52        2.06030  -0.00131   0.00000  -0.00885  -0.00946   2.05083
    D1        2.22644   0.00753   0.00000   0.01568   0.01544   2.24189
    D2       -0.87266   0.00885   0.00000   0.00000  -0.00000  -0.87266
    D3       -0.83490  -0.00138   0.00000  -0.02391  -0.02404  -0.85894
    D4        2.34918  -0.00006   0.00000  -0.03959  -0.03948   2.30970
    D5        3.07590   0.00233   0.00000   0.01706   0.01737   3.09328
    D6       -0.01234   0.00112   0.00000  -0.01205  -0.01225  -0.02459
    D7       -0.11483   0.00058   0.00000   0.03471   0.03490  -0.07993
    D8        3.08011  -0.00063   0.00000   0.00559   0.00528   3.08539
    D9       -2.74846  -0.00162   0.00000  -0.02257  -0.02243  -2.77089
   D10        0.40121  -0.00001   0.00000   0.04108   0.04136   0.44257
   D11        0.44252   0.00022   0.00000  -0.03999  -0.03985   0.40267
   D12       -2.69100   0.00183   0.00000   0.02366   0.02394  -2.66706
   D13       -0.08854  -0.00105   0.00000  -0.01863  -0.01816  -0.10670
   D14        2.70574   0.00249   0.00000   0.04053   0.03920   2.74494
   D15        3.00050   0.00025   0.00000   0.01062   0.01126   3.01176
   D16       -0.48841   0.00378   0.00000   0.06979   0.06863  -0.41978
   D17       -2.51561  -0.00067   0.00000  -0.00764  -0.00737  -2.52298
   D18        1.73609  -0.00238   0.00000  -0.02183  -0.02149   1.71460
   D19       -0.50656  -0.00003   0.00000   0.00820   0.00804  -0.49853
   D20        0.93606   0.00027   0.00000  -0.03647  -0.03722   0.89884
   D21       -1.09542  -0.00144   0.00000  -0.05065  -0.05134  -1.14676
   D22        2.94511   0.00091   0.00000  -0.02062  -0.02182   2.92330
   D23        2.94215   0.00234   0.00000   0.03379   0.03358   2.97573
   D24       -1.22914   0.00148   0.00000   0.02870   0.02852  -1.20062
   D25        0.84771  -0.00051   0.00000   0.00929   0.00919   0.85690
   D26        0.91922   0.00325   0.00000   0.04451   0.04446   0.96368
   D27        3.03112   0.00239   0.00000   0.03941   0.03940   3.07052
   D28       -1.17522   0.00040   0.00000   0.02001   0.02007  -1.15515
   D29       -1.08084   0.00139   0.00000   0.00696   0.00702  -1.07383
   D30        1.03105   0.00054   0.00000   0.00186   0.00196   1.03302
   D31        3.10790  -0.00146   0.00000  -0.01755  -0.01737   3.09053
   D32       -2.89867  -0.00080   0.00000  -0.01502  -0.01475  -2.91342
   D33       -0.86409   0.00240   0.00000   0.02219   0.02203  -0.84206
   D34        1.30939   0.00078   0.00000   0.00000  -0.00001   1.30939
   D35       -0.89643  -0.00194   0.00000  -0.02428  -0.02421  -0.92064
   D36        1.13815   0.00127   0.00000   0.01293   0.01256   1.15072
   D37       -2.97155  -0.00035   0.00000  -0.00926  -0.00947  -2.98102
   D38        1.10590   0.00093   0.00000   0.01425   0.01436   1.12026
   D39        3.14048   0.00414   0.00000   0.05146   0.05113  -3.09157
   D40       -0.96922   0.00252   0.00000   0.02927   0.02910  -0.94013
   D41        0.95666   0.00077   0.00000   0.00000   0.00000   0.95666
   D42        3.08231   0.00066   0.00000   0.00875   0.00871   3.09101
   D43       -1.13779  -0.00103   0.00000  -0.01603  -0.01600  -1.15379
   D44       -1.15690   0.00176   0.00000   0.01682   0.01689  -1.14001
   D45        0.96875   0.00164   0.00000   0.02557   0.02559   0.99435
   D46        3.03184  -0.00005   0.00000   0.00079   0.00089   3.03273
   D47        3.06227   0.00067   0.00000   0.00410   0.00405   3.06633
   D48       -1.09526   0.00055   0.00000   0.01285   0.01276  -1.08250
   D49        0.96783  -0.00114   0.00000  -0.01193  -0.01195   0.95588
   D50       -0.92192  -0.00071   0.00000   0.00000   0.00000  -0.92192
   D51        1.18375  -0.00141   0.00000  -0.01146  -0.01147   1.17228
   D52       -3.04822  -0.00090   0.00000  -0.00810  -0.00812  -3.05634
   D53       -3.04917   0.00020   0.00000  -0.00040  -0.00039  -3.04957
   D54       -0.94350  -0.00049   0.00000  -0.01187  -0.01187  -0.95536
   D55        1.10772   0.00002   0.00000  -0.00850  -0.00852   1.09920
   D56        1.17631   0.00022   0.00000   0.00730   0.00733   1.18364
   D57       -3.00120  -0.00047   0.00000  -0.00416  -0.00414  -3.00534
   D58       -0.94998   0.00004   0.00000  -0.00080  -0.00079  -0.95077
   D59        0.98949  -0.00090   0.00000  -0.01164  -0.01162   0.97787
   D60        3.09837  -0.00088   0.00000  -0.01764  -0.01777   3.08060
   D61       -1.12945   0.00037   0.00000  -0.00337  -0.00330  -1.13275
   D62       -1.11356  -0.00127   0.00000  -0.01295  -0.01290  -1.12646
   D63        0.99532  -0.00125   0.00000  -0.01895  -0.01905   0.97627
   D64        3.05068  -0.00000   0.00000  -0.00467  -0.00458   3.04610
   D65        3.11693  -0.00023   0.00000  -0.00058  -0.00056   3.11637
   D66       -1.05738  -0.00021   0.00000  -0.00659  -0.00670  -1.06409
   D67        0.99798   0.00104   0.00000   0.00769   0.00777   1.00575
   D68       -1.05539  -0.00004   0.00000  -0.00216  -0.00217  -1.05755
   D69       -3.12709   0.00143   0.00000   0.00502   0.00461  -3.12247
   D70        1.08268   0.00152   0.00000   0.01098   0.01108   1.09375
   D71        3.11904  -0.00139   0.00000  -0.00830  -0.00824   3.11080
   D72        1.04734   0.00009   0.00000  -0.00111  -0.00147   1.04587
   D73       -1.02608   0.00017   0.00000   0.00485   0.00500  -1.02108
   D74        1.06313  -0.00034   0.00000   0.00058   0.00068   1.06382
   D75       -1.00856   0.00113   0.00000   0.00776   0.00746  -1.00110
   D76       -3.08199   0.00122   0.00000   0.01372   0.01392  -3.06806
   D77       -1.17217   0.00421   0.00000   0.00000  -0.00001  -1.17218
   D78        3.06206   0.00062   0.00000  -0.01708  -0.01696   3.04510
   D79        1.01159  -0.00016   0.00000  -0.03549  -0.03576   0.97583
   D80        0.17200  -0.00089   0.00000   0.01637   0.01622   0.18822
   D81       -2.97798  -0.00254   0.00000  -0.04963  -0.04905  -3.02703
         Item               Value     Threshold  Converged?
 Maximum Force            0.029937     0.000450     NO 
 RMS     Force            0.006264     0.000300     NO 
 Maximum Displacement     0.180809     0.001800     NO 
 RMS     Displacement     0.047247     0.001200     NO 
 Predicted change in Energy=-1.031598D-02
 GradGradGradGradGradGradGradGradGradGradGradGradGradGradGradGradGradGrad

                          Input orientation:                          
 ---------------------------------------------------------------------
 Center     Atomic      Atomic             Coordinates (Angstroms)
 Number     Number       Type             X           Y           Z
 ---------------------------------------------------------------------
      1          8           0       -3.581972   -0.823937   -1.064883
      2          7           0       -3.118670   -0.255114   -0.063579
      3          8           0       -3.780948    0.163563    0.899564
      4          6           0       -1.674199   -0.015258   -0.050371
      5          6           0       -1.318252    1.269246    0.222308
      6          7           0       -0.069558    1.761474    0.349418
      7          6           0        1.195076    1.020159    0.347761
      8          1           0        1.829622    1.562933    1.066952
      9          6           0        1.918007    1.017824   -0.995549
     10          6           0        3.319479    0.424894   -0.810681
     11          6           0        3.261421   -0.965138   -0.166956
     12          6           0        2.448691   -0.956149    1.127266
     13          6           0        1.037999   -0.412446    0.869226
     14          1           0        0.470015   -0.392800    1.811718
     15          7           0        0.400910   -1.335479   -0.063834
     16          6           0       -0.840799   -1.159609   -0.360911
     17          1           0       -2.113800    1.994017    0.379207
     18          1           0        0.052777    2.758250    0.201508
     19          1           0        1.345214    0.422025   -1.714867
     20          1           0        1.979700    2.042439   -1.386016
     21          1           0        3.826170    0.372083   -1.780764
     22          1           0        3.911111    1.098170   -0.174693
     23          1           0        2.793234   -1.668845   -0.863791
     24          1           0        4.275246   -1.331162    0.034464
     25          1           0        2.371547   -1.971123    1.532122
     26          1           0        2.944259   -0.334559    1.884754
     27          1           0       -1.326281   -1.923457   -0.973413
 ---------------------------------------------------------------------
                    Distance matrix (angstroms):
                    1          2          3          4          5
     1  O    0.000000
     2  N    1.241297   0.000000
     3  O    2.207669   1.241591   0.000000
     4  C    2.307119   1.464310   2.317919   0.000000
     5  C    3.341064   2.376323   2.783179   1.360516   0.000000
     6  N    4.584937   3.678897   4.078038   2.427237   1.348214
     7  C    5.311916   4.517071   5.079278   3.076254   2.528755
     8  H    6.287068   5.391567   5.784873   4.001982   3.272428
     9  C    5.800575   5.277979   6.066244   3.855459   3.466953
    10  C    7.018136   6.516927   7.308167   5.070368   4.825821
    11  C    6.903495   6.420310   7.211546   5.027545   5.110519
    12  C    6.418092   5.736294   6.333562   4.389798   4.467795
    13  C    5.025359   4.262954   4.853345   2.891268   2.966228
    14  H    4.987917   4.051464   4.383179   2.864885   2.913163
    15  N    4.138493   3.681662   4.545679   2.459521   3.134005
    16  C    2.849962   2.468849   3.461800   1.449320   2.543117
    17  H    3.490242   2.502882   2.529964   2.101184   1.087569
    18  H    5.258061   4.382774   4.681573   3.276924   2.024175
    19  H    5.123677   4.807445   5.760173   3.475431   3.400659
    20  H    6.265097   5.746387   6.476042   4.401027   3.749803
    21  H    7.538138   7.181428   8.068202   5.779131   5.593056
    22  H    7.786734   7.159717   7.822742   5.696566   5.247201
    23  H    6.434094   6.131035   7.048902   4.832594   5.168782
    24  H    7.949951   7.472448   8.239227   6.093824   6.171274
    25  H    6.595822   5.969375   6.542952   4.764216   5.082344
    26  H    7.178547   6.368785   6.815213   5.017650   4.848187
    27  H    2.511067   2.612245   3.726807   2.148087   3.409277
                    6          7          8          9         10
     6  N    0.000000
     7  C    1.465896   0.000000
     8  H    2.039892   1.102038   0.000000
     9  C    2.512443   1.525489   2.135150   0.000000
    10  C    3.823330   2.491870   2.653359   1.532927   0.000000
    11  C    4.335491   2.911378   3.156536   2.534456   1.532952
    12  C    3.785777   2.466774   2.594737   2.946955   2.534007
    13  C    2.494556   1.532630   2.137260   2.509477   2.954382
    14  H    2.659015   2.159939   2.495616   3.459377   3.957909
    15  N    3.159627   2.519751   3.423549   2.950884   3.489232
    16  C    3.103563   3.065680   4.072122   3.571413   4.474467
    17  H    2.057641   3.449355   4.026091   4.370169   5.779144
    18  H    1.015088   2.084993   2.309752   2.817998   4.140099
    19  H    2.838482   2.152845   3.045462   1.095668   2.171471
    20  H    2.700024   2.160248   2.503897   1.098228   2.177721
    21  H    4.652395   3.445762   3.676114   2.162089   1.095712
    22  H    4.069447   2.766928   2.467850   2.157017   1.099003
    23  H    4.629746   3.354506   3.885962   2.828705   2.159513
    24  H    5.342370   3.887713   3.927199   3.483567   2.170597
    25  H    4.614117   3.425575   3.605498   3.940638   3.482556
    26  H    3.979159   2.693928   2.347699   3.343393   2.825408
    27  H    4.111928   4.094828   5.126181   4.379159   5.208102
                   11         12         13         14         15
    11  C    0.000000
    12  C    1.528274   0.000000
    13  C    2.514507   1.533705   0.000000
    14  H    3.469101   2.168177   1.100583   0.000000
    15  N    2.886228   2.399170   1.458929   2.100265   0.000000
    16  C    4.111405   3.616187   2.366721   2.650763   1.288808
    17  H    6.160186   5.484469   3.995625   3.798037   4.195903
    18  H    4.928974   4.515993   3.386712   3.563142   4.117065
    19  H    2.827031   3.345855   2.732811   3.723804   2.589680
    20  H    3.489188   3.940567   3.464011   4.293604   3.956144
    21  H    2.170594   3.481133   3.925790   4.975414   4.194761
    22  H    2.163192   2.837957   3.409765   4.243815   4.272757
    23  H    1.095436   2.142651   2.768165   3.766163   2.544461
    24  H    1.096533   2.161285   3.467079   4.303363   3.875585
    25  H    2.165813   1.095459   2.155750   2.486986   2.614294
    26  H    2.169731   1.098066   2.161294   2.476006   3.356704
    27  H    4.755603   4.427070   3.356828   3.650554   2.038686
                   16         17         18         19         20
    16  C    0.000000
    17  H    3.480469   0.000000
    18  H    4.057636   2.304275   0.000000
    19  H    3.018843   4.338327   3.286462   0.000000
    20  H    4.388526   4.458150   2.597239   1.771005   0.000000
    21  H    5.112989   6.525288   4.884843   2.482334   2.520985
    22  H    5.264304   6.116282   4.217124   3.068084   2.467649
    23  H    3.703837   6.248247   5.314521   2.681945   3.835125
    24  H    5.134167   7.210795   5.880513   3.836523   4.320703
    25  H    3.815927   6.096712   5.432697   4.162146   4.977726
    26  H    4.477765   5.768266   4.556254   4.010815   4.156732
    27  H    1.092848   4.218575   5.020022   3.631518   5.179583
                   21         22         23         24         25
    21  H    0.000000
    22  H    1.764619   0.000000
    23  H    2.464382   3.062821   0.000000
    24  H    2.529380   2.465359   1.765573   0.000000
    25  H    4.310656   3.834584   2.451447   2.505314   0.000000
    26  H    3.835770   2.688650   3.059023   2.487633   1.769375
    27  H    5.698164   6.099054   4.128832   5.722214   4.466981
                   26         27
    26  H    0.000000
    27  H    5.378775   0.000000
 Symmetry turned off by external request.
 Stoichiometry    C9H13N3O2
 Framework group  C1[X(C9H13N3O2)]
 Deg. of freedom    75
 Full point group                 C1      NOp   1
 Rotational constants (GHZ):           1.6794062           0.4120102           0.3813037
 Standard basis: 6-31G(d) (6D, 7F)
   236 basis functions,   444 primitive gaussians,   236 cartesian basis functions
    52 alpha electrons       52 beta electrons
       nuclear repulsion energy       931.0841211145 Hartrees.
 NAtoms=   27 NActive=   27 NUniq=   27 SFac= 1.00D+00 NAtFMM=   60 NAOKFM=F Big=F
 Integral buffers will be    131072 words long.
 Raffenetti 1 integral format.
 Two-electron integral symmetry is turned off.
 One-electron integrals computed using PRISM.
 NBasis=   236 RedAO= T EigKep=  1.51D-03  NBF=   236
 NBsUse=   236 1.00D-06 EigRej= -1.00D+00 NBFU=   236
 Initial guess from the checkpoint file:  "/home/alexey/tmp/Gau-1127621.chk"
 B after Tr=     0.043590    0.001129   -0.000936
         Rot=    1.000000   -0.000303    0.000754    0.000286 Ang=  -0.10 deg.
 ExpMin= 1.61D-01 ExpMax= 5.48D+03 ExpMxC= 8.25D+02 IAcc=3 IRadAn=         5 AccDes= 0.00D+00
 Harris functional with IExCor=  205 and IRadAn=       5 diagonalized for initial guess.
 HarFok:  IExCor=  205 AccDes= 0.00D+00 IRadAn=         5 IDoV= 1 UseB2=F ITyADJ=14
 ICtDFT=  3500011 ScaDFX=  1.000000  1.000000  1.000000  1.000000
 FoFCou: FMM=F IPFlag=           0 FMFlag=      100000 FMFlg1=           0
         NFxFlg=           0 DoJE=T BraDBF=F KetDBF=T FulRan=T
         wScrn=  0.000000 ICntrl=       500 IOpCl=  0 I1Cent=   200000004 NGrid=           0
         NMat0=    1 NMatS0=      1 NMatT0=    0 NMatD0=    1 NMtDS0=    0 NMtDT0=    0
 Symmetry not used in FoFCou.
 Keep R1 ints in memory in canonical form, NReq=397720213.
 Requested convergence on RMS density matrix=1.00D-08 within 128 cycles.
 Requested convergence on MAX density matrix=1.00D-06.
 Requested convergence on             energy=1.00D-06.
 No special actions if energy rises.
 SCF Done:  E(RHF) =  -661.289278308     A.U. after   15 cycles
            NFock= 15  Conv=0.34D-08     -V/T= 2.0025
 ExpMin= 1.61D-01 ExpMax= 5.48D+03 ExpMxC= 8.25D+02 IAcc=3 IRadAn=         5 AccDes= 0.00D+00
 HarFok:  IExCor=  205 AccDes= 0.00D+00 IRadAn=         5 IDoV=-2 UseB2=F ITyADJ=14
 ICtDFT= 12500011 ScaDFX=  1.000000  1.000000  1.000000  1.000000
 Range of M.O.s used for correlation:    15   236
 NBasis=   236 NAE=    52 NBE=    52 NFC=    14 NFV=     0
 NROrb=    222 NOA=    38 NOB=    38 NVA=   184 NVB=   184
 Fully direct method using O(ONN) memory.
 JobTyp=1 Pass  1:  I=  15 to  52 NPSUse=  4 ParTrn=T ParDer=T DoDerP=T.
 Spin components of T(2) and E(2):
     alpha-alpha T2 =       0.9147977867D-01 E2=     -0.2726121250D+00
     alpha-beta  T2 =       0.4943628287D+00 E2=     -0.1491375508D+01
     beta-beta   T2 =       0.9147977867D-01 E2=     -0.2726121250D+00
 ANorm=    0.1295114816D+01
 E2 =    -0.2036599758D+01 EUMP2 =    -0.66332587806634D+03
          IDoAtm=111111111111111111111111111
          Differentiating once with respect to electric field.
                with respect to dipole field.
          Differentiating once with respect to nuclear coordinates.
 Keep R1 ints in memory in canonical form, NReq=397723379.
          There are     1 degrees of freedom in the 1st order CPHF.  IDoFFX=0 NUNeed=     1.
 LinEq1:  Iter=  0 NonCon=     1 RMS=4.53D-03 Max=1.18D-01 NDo=     1
 AX will form     1 AO Fock derivatives at one time.
 LinEq1:  Iter=  1 NonCon=     1 RMS=1.52D-03 Max=3.24D-02 NDo=     1
 LinEq1:  Iter=  2 NonCon=     1 RMS=6.38D-04 Max=1.73D-02 NDo=     1
 LinEq1:  Iter=  3 NonCon=     1 RMS=2.79D-04 Max=4.92D-03 NDo=     1
 LinEq1:  Iter=  4 NonCon=     1 RMS=8.53D-05 Max=1.47D-03 NDo=     1
 LinEq1:  Iter=  5 NonCon=     1 RMS=3.42D-05 Max=1.17D-03 NDo=     1
[...]
    26  H    2.175668   1.098725   2.167811   2.501715   3.360822
    27  H    4.733209   4.421700   3.361165   3.648081   2.036410
                   16         17         18         19         20
    16  C    0.000000
    17  H    3.472666   0.000000
    18  H    4.103327   2.233873   0.000000
    19  H    3.000708   4.355353   3.546904   0.000000
    20  H    4.389726   4.509316   2.931694   1.768208   0.000000
    21  H    5.101038   6.549809   5.119488   2.499585   2.521933
    22  H    5.256040   6.113992   4.332302   3.070422   2.462839
    23  H    3.688034   6.237114   5.430401   2.703720   3.843082
    24  H    5.129604   7.191394   5.941467   3.849247   4.317918
    25  H    3.816686   6.038066   5.348970   4.172778   4.985774
    26  H    4.494563   5.729893   4.459151   4.032459   4.178575
    27  H    1.092353   4.240389   5.107350   3.616121   5.181660
                   21         22         23         24         25
    21  H    0.000000
    22  H    1.758820   0.000000
    23  H    2.469839   3.062399   0.000000
    24  H    2.517064   2.460111   1.764379   0.000000
    25  H    4.312081   3.838184   2.445411   2.518736   0.000000
    26  H    3.844767   2.701437   3.060514   2.493934   1.768159
    27  H    5.676360   6.081438   4.096771   5.699883   4.450185
                   26         27
    26  H    0.000000
    27  H    5.381466   0.000000
 Symmetry turned off by external request.
 Stoichiometry    C9H13N3O2
 Framework group  C1[X(C9H13N3O2)]
 Deg. of freedom    75
 Full point group                 C1      NOp   1
 Rotational constants (GHZ):           1.6740697           0.4117744           0.3818849

 **********************************************************************

            Population analysis using the SCF Density.

 **********************************************************************

 Alpha  occ. eigenvalues --  -20.60118 -20.60030 -15.84909 -15.63274 -15.56266
 Alpha  occ. eigenvalues --  -11.34753 -11.29922 -11.29362 -11.28690 -11.27071
 Alpha  occ. eigenvalues --  -11.23440 -11.23030 -11.22589 -11.21986  -1.57591
 Alpha  occ. eigenvalues --   -1.37317  -1.30343  -1.23095  -1.14711  -1.09818
 Alpha  occ. eigenvalues --   -1.02616  -1.01110  -0.94537  -0.89781  -0.85303
 Alpha  occ. eigenvalues --   -0.82585  -0.78386  -0.77763  -0.75012  -0.71970
 Alpha  occ. eigenvalues --   -0.70675  -0.68741  -0.67576  -0.65015  -0.63569
 Alpha  occ. eigenvalues --   -0.62135  -0.60423  -0.57579  -0.56786  -0.54938
 Alpha  occ. eigenvalues --   -0.54347  -0.50961  -0.50196  -0.49123  -0.48152
 Alpha  occ. eigenvalues --   -0.47878  -0.46310  -0.45823  -0.43811  -0.41729
 Alpha  occ. eigenvalues --   -0.39810  -0.33380
 Alpha virt. eigenvalues --    0.08038   0.11132   0.17520   0.21498   0.23394
 Alpha virt. eigenvalues --    0.24762   0.26642   0.28339   0.29212   0.29494
 Alpha virt. eigenvalues --    0.30138   0.31781   0.32007   0.32823   0.34101
 Alpha virt. eigenvalues --    0.34461   0.35808   0.37471   0.38739   0.39798
 Alpha virt. eigenvalues --    0.41097   0.42589   0.45225   0.45922   0.46903
 Alpha virt. eigenvalues --    0.47890   0.49471   0.53658   0.57933   0.59372
 Alpha virt. eigenvalues --    0.62043   0.69874   0.70025   0.72743   0.74467
 Alpha virt. eigenvalues --    0.74587   0.75855   0.76401   0.78562   0.79289
 Alpha virt. eigenvalues --    0.80069   0.84188   0.85636   0.86172   0.88886
 Alpha virt. eigenvalues --    0.89544   0.91207   0.91332   0.92998   0.93706
 Alpha virt. eigenvalues --    0.95459   0.97626   1.00090   1.01430   1.02572
 Alpha virt. eigenvalues --    1.03838   1.06360   1.06448   1.07821   1.08493
 Alpha virt. eigenvalues --    1.09208   1.10800   1.11911   1.12764   1.13802
 Alpha virt. eigenvalues --    1.14240   1.14423   1.15451   1.16137   1.17023
 Alpha virt. eigenvalues --    1.18473   1.19012   1.19987   1.21954   1.23524
 Alpha virt. eigenvalues --    1.24480   1.25109   1.27787   1.28282   1.30513
 Alpha virt. eigenvalues --    1.32976   1.34053   1.34255   1.36183   1.37105
 Alpha virt. eigenvalues --    1.40303   1.42853   1.43991   1.47983   1.51898
 Alpha virt. eigenvalues --    1.54461   1.56473   1.60108   1.62848   1.66928
 Alpha virt. eigenvalues --    1.68183   1.69774   1.71431   1.74247   1.76109
 Alpha virt. eigenvalues --    1.78790   1.83849   1.85839   1.90152   1.91307
 Alpha virt. eigenvalues --    1.92784   1.95951   1.99576   2.01285   2.02292
 Alpha virt. eigenvalues --    2.04809   2.06411   2.08379   2.09063   2.13761
 Alpha virt. eigenvalues --    2.13998   2.15892   2.19421   2.19884   2.22500
 Alpha virt. eigenvalues --    2.24483   2.25049   2.25727   2.28243   2.29753
 Alpha virt. eigenvalues --    2.31565   2.33535   2.34152   2.36346   2.38324
 Alpha virt. eigenvalues --    2.39130   2.41171   2.42606   2.45416   2.46751
 Alpha virt. eigenvalues --    2.49685   2.51873   2.53921   2.55524   2.60509
 Alpha virt. eigenvalues --    2.62593   2.65614   2.68854   2.69564   2.70537
 Alpha virt. eigenvalues --    2.71330   2.73077   2.74404   2.77723   2.84534
 Alpha virt. eigenvalues --    2.89025   2.89750   2.93329   2.94318   2.97293
 Alpha virt. eigenvalues --    3.00399   3.00852   3.02709   3.05697   3.09284
 Alpha virt. eigenvalues --    3.09685   3.14815   3.19190   3.21055   3.24440
 Alpha virt. eigenvalues --    3.31511   3.37740   3.38118   3.45581   3.64818
 Alpha virt. eigenvalues --    4.10101   4.20481   4.25602   4.36354   4.46412
 Alpha virt. eigenvalues --    4.55867   4.62066   4.63350   4.73933   4.78151
 Alpha virt. eigenvalues --    4.99467   5.01066   5.05636   5.10592
          Condensed to atoms (all electrons):
               1          2          3          4          5          6
     1  O    8.305668   0.292350  -0.076726  -0.081187   0.001443  -0.000026
     2  N    0.292350   5.792866   0.302059   0.229725  -0.048304   0.001477
     3  O   -0.076726   0.302059   8.309810  -0.087820   0.008013   0.000397
     4  C   -0.081187   0.229725  -0.087820   5.232211   0.573068  -0.052948
     5  C    0.001443  -0.048304   0.008013   0.573068   4.671930   0.329336
     6  N   -0.000026   0.001477   0.000397  -0.052948   0.329336   7.182027
     7  C   -0.000003  -0.000141   0.000011   0.002269  -0.035216   0.180067
     8  H    0.000000   0.000003  -0.000000  -0.000177   0.002917  -0.050261
     9  C    0.000000  -0.000005   0.000000   0.000944   0.001033  -0.061963
    10  C    0.000000   0.000000  -0.000000  -0.000033  -0.000066   0.003717
    11  C   -0.000000  -0.000000   0.000000  -0.000044   0.000024  -0.000197
    12  C    0.000000   0.000002  -0.000000  -0.000079  -0.000108   0.003944
    13  C    0.000002  -0.000061  -0.000016  -0.011625   0.000427  -0.050133
    14  H    0.000001  -0.000081  -0.000008   0.002862   0.007411  -0.007227
    15  N    0.000326   0.002391  -0.000019  -0.066478  -0.008317   0.002674
    16  C    0.003508  -0.028035   0.002255   0.326734  -0.043786  -0.002014
    17  H    0.000076  -0.003665   0.007785  -0.034194   0.386502  -0.033413
    18  H    0.000001  -0.000067   0.000006   0.002252  -0.029566   0.337604
    19  H    0.000001  -0.000001  -0.000000  -0.001007   0.001003  -0.000177
    20  H    0.000000  -0.000000   0.000000  -0.000100   0.000177  -0.000296
    21  H   -0.000000   0.000000   0.000000   0.000001   0.000001  -0.000074
    22  H    0.000000   0.000000  -0.000000  -0.000000  -0.000003  -0.000115
    23  H    0.000000  -0.000000   0.000000   0.000040   0.000001  -0.000031
    24  H    0.000000   0.000000  -0.000000   0.000000  -0.000000   0.000005
    25  H    0.000000  -0.000000   0.000000   0.000027  -0.000000  -0.000093
    26  H    0.000000  -0.000000   0.000000   0.000005  -0.000004  -0.000053
    27  H    0.005994   0.000127   0.000058  -0.067987   0.002164  -0.000004
               7          8          9         10         11         12
     1  O   -0.000003   0.000000   0.000000   0.000000  -0.000000   0.000000
     2  N   -0.000141   0.000003  -0.000005   0.000000  -0.000000   0.000002
     3  O    0.000011  -0.000000   0.000000  -0.000000   0.000000  -0.000000
     4  C    0.002269  -0.000177   0.000944  -0.000033  -0.000044  -0.000079
     5  C   -0.035216   0.002917   0.001033  -0.000066   0.000024  -0.000108
     6  N    0.180067  -0.050261  -0.061963   0.003717  -0.000197   0.003944
     7  C    5.012658   0.417857   0.350226  -0.054814  -0.008812  -0.061925
     8  H    0.417857   0.539904  -0.055071   0.000643  -0.000290  -0.002284
     9  C    0.350226  -0.055071   5.157105   0.324503  -0.050437  -0.005083
    10  C   -0.054814   0.000643   0.324503   5.120776   0.336790  -0.061065
    11  C   -0.008812  -0.000290  -0.050437   0.336790   5.120901   0.335988
    12  C   -0.061925  -0.002284  -0.005083  -0.061065   0.335988   5.120686
    13  C    0.340079  -0.037570  -0.061404  -0.000164  -0.050948   0.370970
    14  H   -0.046401  -0.000642   0.004381  -0.000392   0.004163  -0.036014
    15  N   -0.059929   0.003901  -0.014081   0.001716  -0.013374  -0.082994
    16  C   -0.000312  -0.000123  -0.000719  -0.000053   0.000073   0.002641
    17  H    0.001992  -0.000067  -0.000080   0.000001   0.000000   0.000000
    18  H   -0.021938  -0.004581   0.001519  -0.000086   0.000003  -0.000119
    19  H   -0.036775   0.004377   0.390719  -0.032630  -0.002231   0.000698
    20  H   -0.041628  -0.001947   0.399111  -0.035326   0.003924  -0.000411
    21  H    0.004581  -0.000078  -0.036257   0.402394  -0.034990   0.004354
    22  H   -0.004846   0.003584  -0.046768   0.397484  -0.045448  -0.001082
    23  H    0.000601   0.000037  -0.001962  -0.039092   0.399251  -0.038153
    24  H   -0.000135  -0.000100   0.004357  -0.038334   0.402248  -0.038620
    25  H    0.005130  -0.000017  -0.000440   0.004208  -0.033485   0.398109
    26  H   -0.003922   0.001649   0.000965  -0.002258  -0.041354   0.396541
    27  H   -0.000369   0.000008  -0.000048   0.000005   0.000013  -0.000032
              13         14         15         16         17         18
     1  O    0.000002   0.000001   0.000326   0.003508   0.000076   0.000001
     2  N   -0.000061  -0.000081   0.002391  -0.028035  -0.003665  -0.000067
     3  O   -0.000016  -0.000008  -0.000019   0.002255   0.007785   0.000006
     4  C   -0.011625   0.002862  -0.066478   0.326734  -0.034194   0.002252
     5  C    0.000427   0.007411  -0.008317  -0.043786   0.386502  -0.029566
     6  N   -0.050133  -0.007227   0.002674  -0.002014  -0.033413   0.337604
     7  C    0.340079  -0.046401  -0.059929  -0.000312   0.001992  -0.021938
     8  H   -0.037570  -0.000642   0.003901  -0.000123  -0.000067  -0.004581
     9  C   -0.061404   0.004381  -0.014081  -0.000719  -0.000080   0.001519
    10  C   -0.000164  -0.000392   0.001716  -0.000053   0.000001  -0.000086
    11  C   -0.050948   0.004163  -0.013374   0.000073   0.000000   0.000003
    12  C    0.370970  -0.036014  -0.082994   0.002641   0.000000  -0.000119
    13  C    5.041751   0.403307   0.250362  -0.070631  -0.000010   0.002921
    14  H    0.403307   0.525018  -0.037062  -0.006656   0.000095  -0.000087
    15  N    0.250362  -0.037062   6.956112   0.588434  -0.000064  -0.000125
    16  C   -0.070631  -0.006656   0.588434   4.709979   0.001728  -0.000128
    17  H   -0.000010   0.000095  -0.000064   0.001728   0.405158  -0.003319
    18  H    0.002921  -0.000087  -0.000125  -0.000128  -0.003319   0.314604
    19  H   -0.007646   0.000109   0.007559   0.002329   0.000013  -0.000141
    20  H    0.004358  -0.000068   0.000132  -0.000042   0.000003   0.000630
    21  H   -0.000431   0.000010  -0.000043   0.000003  -0.000000   0.000001
    22  H    0.000044  -0.000054   0.000023  -0.000002   0.000000   0.000000
    23  H   -0.007620   0.000002   0.008598   0.000119   0.000000   0.000000
    24  H    0.004699  -0.000057   0.000127   0.000007   0.000000  -0.000000
    25  H   -0.035659  -0.002798   0.000524  -0.000023  -0.000000   0.000002
    26  H   -0.047153  -0.001039   0.004910  -0.000064   0.000000   0.000000
    27  H    0.005023  -0.000195  -0.038241   0.403835  -0.000084   0.000001
              19         20         21         22         23         24
     1  O    0.000001   0.000000  -0.000000   0.000000   0.000000   0.000000
     2  N   -0.000001  -0.000000   0.000000   0.000000  -0.000000   0.000000
     3  O   -0.000000   0.000000   0.000000  -0.000000   0.000000  -0.000000
     4  C   -0.001007  -0.000100   0.000001  -0.000000   0.000040   0.000000
     5  C    0.001003   0.000177   0.000001  -0.000003   0.000001  -0.000000
     6  N   -0.000177  -0.000296  -0.000074  -0.000115  -0.000031   0.000005
     7  C   -0.036775  -0.041628   0.004581  -0.004846   0.000601  -0.000135
     8  H    0.004377  -0.001947  -0.000078   0.003584   0.000037  -0.000100
     9  C    0.390719   0.399111  -0.036257  -0.046768  -0.001962   0.004357
    10  C   -0.032630  -0.035326   0.402394   0.397484  -0.039092  -0.038334
    11  C   -0.002231   0.003924  -0.034990  -0.045448   0.399251   0.402248
    12  C    0.000698  -0.000411   0.004354  -0.001082  -0.038153  -0.038620
    13  C   -0.007646   0.004358  -0.000431   0.000044  -0.007620   0.004699
    14  H    0.000109  -0.000068   0.000010  -0.000054   0.000002  -0.000057
    15  N    0.007559   0.000132  -0.000043   0.000023   0.008598   0.000127
    16  C    0.002329  -0.000042   0.000003  -0.000002   0.000119   0.000007
    17  H    0.000013   0.000003  -0.000000   0.000000   0.000000   0.000000
    18  H   -0.000141   0.000630   0.000001   0.000000   0.000000  -0.000000
    19  H    0.505816  -0.024423  -0.002779   0.003975   0.001537  -0.000067
    20  H   -0.024423   0.539367  -0.002695  -0.002967  -0.000046  -0.000082
    21  H   -0.002779  -0.002695   0.524790  -0.027496  -0.002912  -0.002248
    22  H    0.003975  -0.002967  -0.027496   0.572003   0.004150  -0.003641
    23  H    0.001537  -0.000046  -0.002912   0.004150   0.500249  -0.025532
    24  H   -0.000067  -0.000082  -0.002248  -0.003641  -0.025532   0.538616
    25  H   -0.000028   0.000013  -0.000088  -0.000080  -0.002296  -0.002314
    26  H    0.000020  -0.000030  -0.000080   0.002384   0.004075  -0.003007
    27  H    0.000074   0.000000  -0.000000   0.000000  -0.000034  -0.000000
              25         26         27
     1  O    0.000000   0.000000   0.005994
     2  N   -0.000000  -0.000000   0.000127
     3  O    0.000000   0.000000   0.000058
     4  C    0.000027   0.000005  -0.067987
     5  C   -0.000000  -0.000004   0.002164
     6  N   -0.000093  -0.000053  -0.000004
     7  C    0.005130  -0.003922  -0.000369
     8  H   -0.000017   0.001649   0.000008
     9  C   -0.000440   0.000965  -0.000048
    10  C    0.004208  -0.002258   0.000005
    11  C   -0.033485  -0.041354   0.000013
    12  C    0.398109   0.396541  -0.000032
    13  C   -0.035659  -0.047153   0.005023
    14  H   -0.002798  -0.001039  -0.000195
    15  N    0.000524   0.004910  -0.038241
    16  C   -0.000023  -0.000064   0.403835
    17  H   -0.000000   0.000000  -0.000084
    18  H    0.000002   0.000000   0.000001
    19  H   -0.000028   0.000020   0.000074
    20  H    0.000013  -0.000030   0.000000
    21  H   -0.000088  -0.000080  -0.000000
    22  H   -0.000080   0.002384   0.000000
    23  H   -0.002296   0.004075  -0.000034
    24  H   -0.002314  -0.003007  -0.000000
    25  H    0.507637  -0.024151  -0.000013
    26  H   -0.024151   0.562187   0.000001
    27  H   -0.000013   0.000001   0.445688
 Mulliken charges:
               1
     1  O   -0.451428
     2  N    0.459361
     3  O   -0.465807
     4  C    0.033537
     5  C    0.179920
     6  N   -0.782222
     7  C    0.061693
     8  H    0.178330
     9  C   -0.300546
    10  C   -0.327924
    11  C   -0.321768
    12  C   -0.305962
    13  C   -0.042873
    14  H    0.191420
    15  N   -0.507063
    16  C    0.110940
    17  H    0.271541
    18  H    0.400612
    19  H    0.189674
    20  H    0.162346
    21  H    0.174035
    22  H    0.148856
    23  H    0.199018
    24  H    0.164077
    25  H    0.185838
    26  H    0.150377
    27  H    0.244017
 Sum of Mulliken charges =  -0.00000
 Mulliken charges with hydrogens summed into heavy atoms:
               1
     1  O   -0.451428
     2  N    0.459361
     3  O   -0.465807
     4  C    0.033537
     5  C    0.451461
     6  N   -0.381610
     7  C    0.240023
     9  C    0.051474
    10  C   -0.005033
    11  C    0.041327
    12  C    0.030253
    13  C    0.148547
    15  N   -0.507063
    16  C    0.354957
 Electronic spatial extent (au):  <R**2>=           2993.6191
 Charge=             -0.0000 electrons
 Dipole moment (field-independent basis, Debye):
    X=              4.8718    Y=              4.4823    Z=              1.2969  Tot=              6.7459
 Quadrupole moment (field-independent basis, Debye-Ang):
   XX=           -103.7914   YY=            -75.9935   ZZ=            -85.4904
   XY=             -1.8454   XZ=              0.0852   YZ=              0.9230
 Traceless Quadrupole moment (field-independent basis, Debye-Ang):
   XX=            -15.3663   YY=             12.4316   ZZ=              2.9347
   XY=             -1.8454   XZ=              0.0852   YZ=              0.9230
 Octapole moment (field-independent basis, Debye-Ang**2):
  XXX=             79.3327  YYY=             31.2620  ZZZ=              1.6799  XYY=            -18.3785
  XXY=             12.9131  XXZ=              2.3606  XZZ=              3.4533  YZZ=              0.7317
  YYZ=              8.1825  XYZ=              4.4852
 Hexadecapole moment (field-independent basis, Debye-Ang**3):
 XXXX=          -3315.7276 YYYY=           -539.8379 ZZZZ=           -369.2985 XXXY=            -45.9711
 XXXZ=              3.0550 YYYX=              0.5043 YYYZ=             21.3676 ZZZX=             -3.3344
 ZZZY=              0.4835 XXYY=           -568.9266 XXZZ=           -578.2662 YYZZ=           -159.3786
 XXYZ=            -20.1872 YYXZ=              0.8062 ZZXY=             -2.1093
 N-N= 9.308231881408D+02 E-N=-3.408306859616D+03  KE= 6.596072173356D+02
 Unable to Open any file for archive entry.
 1\1\GINC-LOTUS\FOpt\RMP2-FC\6-31G(d)\C9H13N3O2\ALEXEY\30-Jun-2023\0\\#
 MP2/6-31G* SCF=Tight Opt=(ModRedun, MaxCycle=20 ) NoSymm\\MolName:\\0,
 1\O,-3.5641809549,-0.8227081551,-1.1229458173\N,-3.1079353913,-0.25110
 86462,-0.1134698369\O,-3.8019466744,0.1941560021,0.821879744\C,-1.6728
 138861,-0.0229208765,-0.0750477691\C,-1.3053800663,1.2524447325,0.2540
 959789\N,-0.0617706712,1.7693508597,0.3051686453\C,1.2033770312,1.0441
 546786,0.3144083668\H,1.8468207325,1.5968455546,1.0155551022\C,1.91759
 51345,1.0023922431,-1.0349774099\C,3.3131907425,0.3989851871,-0.838321
 2721\C,3.2570740613,-0.9726242404,-0.1604587129\C,2.4527669062,-0.9321
 160671,1.1405699875\C,1.0451224029,-0.3884236316,0.8684115831\H,0.4564
 841423,-0.3319641584,1.7976481795\N,0.4089827594,-1.3261618263,-0.0512
 308979\C,-0.8372692831,-1.1640655649,-0.3635233537\H,-2.1029948582,1.9
 668361977,0.445675054\H,-0.0132525479,2.7475466095,0.5625338263\H,1.32
 69692566,0.3993655619,-1.7331963495\H,1.987795424,2.0149725011,-1.4509
 137134\H,3.8243663528,0.3232736565,-1.8048994854\H,3.9102978025,1.0868
 821743,-0.2228229892\H,2.7821712699,-1.6939958472,-0.8330150457\H,4.27
 39055289,-1.3322967929,0.0370055126\H,2.3646719962,-1.9379412156,1.564
 112118\H,2.9564115413,-0.3034828096,1.8878047155\H,-1.3044587517,-1.95
 53961267,-0.9540861607\\Version=ES64L-G16RevC.02\HF=-661.28999\MP2=-66
 3.3285314\RMSD=5.999e-09\RMSF=2.201e-03\Dipole=1.7827735,1.6028198,0.4
 634443\PG=C01 [X(C9H13N3O2)]\\@
 The archive entry for this job was punched.


 EXPERIENCE IS THE FRUIT OF THE TREE OF ERRORS.
 Job cpu time:       0 days  1 hours 34 minutes 43.9 seconds.
 Elapsed time:       0 days  0 hours 27 minutes 58.7 seconds.
 File lengths (MBytes):  RWF=     36 Int=      0 D2E=      0 Chk=      7 Scr=      1
 Normal termination of Gaussian 16 at Fri Jun 30 10:47:32 2023.
