 Entering Gaussian System, Link 0=g16
 Initial command:
 /home/alexey/programs//g16/l1.exe "/home/alexey/tmp/Gau-1119966.inp" -scrdir="/home/alexey/tmp/"
 Entering Link 1 = /home/alexey/programs//g16/l1.exe PID=   1119968.
  
 Copyright (c) 1988-2021, Gaussian, Inc.  All Rights Reserved.
  
 This is part of the Gaussian(R) 16 program.  It is based on
 the Gaussian(R) 09 system (copyright 2009, Gaussian, Inc.),
 the Gaussian(R) 03 system (copyright 2003, Gaussian, Inc.),
 the Gaussian(R) 98 system (copyright 1998, Gaussian, Inc.),
 the Gaussian(R) 94 system (copyright 1995, Gaussian, Inc.),
 the Gaussian 92(TM) system (copyright 1992, Gaussian, Inc.),
 the Gaussian 90(TM) system (copyright 1990, Gaussian, Inc.),
 the Gaussian 88(TM) system (copyright 1988, Gaussian, Inc.),
 the Gaussian 86(TM) system (copyright 1986, Carnegie Mellon
 University), and the Gaussian 82(TM) system (copyright 1983,
 Carnegie Mellon University). Gaussian is a federally registered
 trademark of Gaussian, Inc.
  
 This software contains proprietary and confidential information,
 including trade secrets, belonging to Gaussian, Inc.
  
 This software is provided under written license and may be
 used, copied, transmitted, or stored only in accord with that
 written license.
  
 The following legend is applicable only to US Government
 contracts under FAR:
  
                    RESTRICTED RIGHTS LEGEND
  
 Use, reproduction and disclosure by the US Government is
 subject to restrictions as set forth in subparagraphs (a)
 and (c) of the Commercial Computer Software - Restricted
 Rights clause in FAR 52.227-19.
  
 Gaussian, Inc.
 340 Quinnipiac St., Bldg. 40, Wallingford CT 06492
  
  
 ---------------------------------------------------------------
 Warning -- This program may not be used in any manner that
 competes with the business of Gaussian, Inc. or will provide
 assistance to any competitor of Gaussian, Inc.  The licensee
 of this program is prohibited from giving any competitor of
 Gaussian, Inc. access to this program.  By using this program,
 the user acknowledges that Gaussian, Inc. is engaged in the
 business of creating and licensing software in the field of
 computational chemistry and represents and warrants to the
 licensee that it is not a competitor of Gaussian, Inc. and that
 it will not use this program in any manner prohibited above.
 ---------------------------------------------------------------
  

 Cite this work as:
 Gaussian 16, Revision C.02,
 M. J. Frisch, G. W. Trucks, H. B. Schlegel, G. E. Scuseria, 
 M. A. Robb, J. R. Cheeseman, G. Scalmani, V. Barone, 
 G. A. Petersson, H. Nakatsuji, X. Li, M. Caricato, A. V. Marenich, 
 J. Bloino, B. G. Janesko, R. Gomperts, B. Mennucci, H. P. Hratchian, 
 J. V. Ortiz, A. F. Izmaylov, J. L. Sonnenberg, D. Williams-Young, 
 F. Ding, F. Lipparini, F. Egidi, J. Goings, B. Peng, A. Petrone, 
 T. Henderson, D. Ranasinghe, V. G. Zakrzewski, J. Gao, N. Rega, 
 G. Zheng, W. Liang, M. Hada, M. Ehara, K. Toyota, R. Fukuda, 
 J. Hasegawa, M. Ishida, T. Nakajima, Y. Honda, O. Kitao, H. Nakai, 
 T. Vreven, K. Throssell, J. A. Montgomery, Jr., J. E. Peralta, 
 F. Ogliaro, M. J. Bearpark, J. J. Heyd, E. N. Brothers, K. N. Kudin, 
 V. N. Staroverov, T. A. Keith, R. Kobayashi, J. Normand, 
 K. Raghavachari, A. P. Rendell, J. C. Burant, S. S. Iyengar, 
 J. Tomasi, M. Cossi, J. M. Millam, M. Klene, C. Adamo, R. Cammi, 
 J. W. Ochterski, R. L. Martin, K. Morokuma, O. Farkas, 
 J. B. Foresman, and D. J. Fox, Gaussian, Inc., Wallingford CT, 2019.
 
 ******************************************
 Gaussian 16:  ES64L-G16RevC.02  7-Dec-2021
                30-Jun-2023 
 ******************************************
 %mem=8GB
 %NPROCS=4
 Will use up to    4 processors via shared memory.
 %NoSave
 ---------------------------------------------------------
 #MP2/6-31G* SCF=Tight Opt=(ModRedun, MaxCycle=20 ) NoSymm
 ---------------------------------------------------------
 1/6=20,18=120,19=15,38=1/1,3;
 2/9=110,12=2,15=1,17=6,18=5,40=1/2;
 3/5=1,6=6,7=1,11=9,25=1,30=1,71=1/1,2,3;
 4//1;
 5/5=2,32=2,38=5/2;
 8/6=4,10=2/1;
 9/15=2,16=-3/6;
 10/5=1,31=1/2;
 6/7=2,8=2,9=2,10=2/1;
 7/12=2,30=1/1,2,3,16;
 1/6=20,18=20,19=15/3(2);
 2/9=110,15=1/2;
 99//99;
 2/9=110,15=1/2;
 3/5=1,6=6,7=1,11=9,25=1,30=1,71=1/1,2,3;
 4/5=5,16=3,69=1/1;
 5/5=2,32=2,38=5/2;
 8/6=4,10=2/1;
 9/15=2,16=-3/6;
 10/5=1,31=1/2;
 7/12=2,30=1/1,2,3,16;
 1/6=20,18=20,19=15/3(-8);
 2/9=110,15=1/2;
 6/7=2,8=2,9=2,10=2/1;
 99/9=10/99;
 --------
 MolName:
 --------
 Symbolic Z-matrix:
 Charge =  0 Multiplicity = 1
 8                    0    -3.66569  -1.12222  -0.81364 
 7                    0    -3.23973  -0.27147  -0.03493 
 8                    0    -3.93903   0.36892   0.75025 
 6                    0    -1.75006  -0.00039  -0.04312 
 6                    0    -1.37389   1.31577   0.23733 
 7                    0    -0.08755   1.77451   0.35365 
 6                    0     1.19262   1.0021    0.34284 
 1                    0     1.85514   1.51719   1.08599 
 6                    0     1.95783   1.02468  -1.00388 
 6                    0     3.37063   0.44471  -0.80087 
 6                    0     3.31065  -0.95791  -0.17548 
 6                    0     2.46176  -0.96447   1.11411 
 6                    0     1.02395  -0.43732   0.85426 
 1                    0     0.47463  -0.4551    1.82475 
 7                    0     0.36999  -1.3317   -0.10512 
 6                    0    -0.87181  -1.14005  -0.40802 
 1                    0    -2.1706    2.0539    0.42972 
 1                    0     0.14422   2.75483   0.17625 
 1                    0     1.40955   0.4301   -1.76533 
 1                    0     2.04268   2.06674  -1.37879 
 1                    0     3.90587   0.40009  -1.77458 
 1                    0     3.94636   1.11454  -0.12372 
 1                    0     2.86504  -1.66432  -0.91181 
 1                    0     4.33911  -1.31516   0.05007 
 1                    0     2.40527  -2.00228   1.50966 
 1                    0     2.9541   -0.33493   1.88468 
 1                    0    -1.37405  -1.90775  -1.01628 
 
 The following ModRedundant input section has been read:
 D       1       2       4      16 F                                           
 D       7      13      15      16 F                                           
 D       7       9      10      11 F                                           
 D       9      10      11      12 F                                           
 D       6       7      13      15 F                                           
 

 GradGradGradGradGradGradGradGradGradGradGradGradGradGradGradGradGradGrad
 Berny optimization.
 Initialization pass.
                           ----------------------------
                           !    Initial Parameters    !
                           ! (Angstroms and Degrees)  !
 --------------------------                            --------------------------
 ! Name  Definition              Value          Derivative Info.                !
 --------------------------------------------------------------------------------
 ! R1    R(1,2)                  1.2295         estimate D2E/DX2                !
 ! R2    R(2,3)                  1.2311         estimate D2E/DX2                !
 ! R3    R(2,4)                  1.5142         estimate D2E/DX2                !
 ! R4    R(4,5)                  1.3973         estimate D2E/DX2                !
 ! R5    R(4,16)                 1.4844         estimate D2E/DX2                !
 ! R6    R(5,6)                  1.3706         estimate D2E/DX2                !
 ! R7    R(5,17)                 1.103          estimate D2E/DX2                !
 ! R8    R(6,7)                  1.4952         estimate D2E/DX2                !
 ! R9    R(6,18)                 1.0228         estimate D2E/DX2                !
 ! R10   R(7,8)                  1.1209         estimate D2E/DX2                !
 ! R11   R(7,9)                  1.5491         estimate D2E/DX2                !
 ! R12   R(7,13)                 1.5369         estimate D2E/DX2                !
 ! R13   R(9,10)                 1.5406         estimate D2E/DX2                !
 ! R14   R(9,19)                 1.1108         estimate D2E/DX2                !
 ! R15   R(9,20)                 1.1107         estimate D2E/DX2                !
 ! R16   R(10,11)                1.5369         estimate D2E/DX2                !
 ! R17   R(10,21)                1.112          estimate D2E/DX2                !
 ! R18   R(10,22)                1.113          estimate D2E/DX2                !
 ! R19   R(11,12)                1.5439         estimate D2E/DX2                !
 ! R20   R(11,23)                1.1134         estimate D2E/DX2                !
 ! R21   R(11,24)                1.1119         estimate D2E/DX2                !
 ! R22   R(12,13)                1.5533         estimate D2E/DX2                !
 ! R23   R(12,25)                1.1121         estimate D2E/DX2                !
 ! R24   R(12,26)                1.1102         estimate D2E/DX2                !
 ! R25   R(13,14)                1.1153         estimate D2E/DX2                !
 ! R26   R(13,15)                1.4656         estimate D2E/DX2                !
 ! R27   R(15,16)                1.2925         estimate D2E/DX2                !
 ! R28   R(16,27)                1.1007         estimate D2E/DX2                !
 ! A1    A(1,2,3)              124.548          estimate D2E/DX2                !
 ! A2    A(1,2,4)              117.4717         estimate D2E/DX2                !
 ! A3    A(3,2,4)              117.9799         estimate D2E/DX2                !
 ! A4    A(2,4,5)              115.6205         estimate D2E/DX2                !
 ! A5    A(2,4,16)             116.4859         estimate D2E/DX2                !
 ! A6    A(5,4,16)             127.8253         estimate D2E/DX2                !
 ! A7    A(4,5,6)              125.7992         estimate D2E/DX2                !
 ! A8    A(4,5,17)             118.0927         estimate D2E/DX2                !
 ! A9    A(6,5,17)             116.0472         estimate D2E/DX2                !
 ! A10   A(5,6,7)              129.0519         estimate D2E/DX2                !
 ! A11   A(5,6,18)             121.246          estimate D2E/DX2                !
 ! A12   A(7,6,18)             107.4491         estimate D2E/DX2                !
 ! A13   A(6,7,8)              105.2996         estimate D2E/DX2                !
 ! A14   A(6,7,9)              114.9414         estimate D2E/DX2                !
 ! A15   A(6,7,13)             112.7974         estimate D2E/DX2                !
 ! A16   A(8,7,9)              106.1231         estimate D2E/DX2                !
 ! A17   A(8,7,13)             105.94           estimate D2E/DX2                !
 ! A18   A(9,7,13)             110.9259         estimate D2E/DX2                !
 ! A19   A(7,9,10)             109.4472         estimate D2E/DX2                !
 ! A20   A(7,9,19)             110.1397         estimate D2E/DX2                !
 ! A21   A(7,9,20)             110.1732         estimate D2E/DX2                !
 ! A22   A(10,9,19)            109.9652         estimate D2E/DX2                !
 ! A23   A(10,9,20)            109.1236         estimate D2E/DX2                !
 ! A24   A(19,9,20)            107.9693         estimate D2E/DX2                !
 ! A25   A(9,10,11)            111.1855         estimate D2E/DX2                !
 ! A26   A(9,10,21)            109.9443         estimate D2E/DX2                !
 ! A27   A(9,10,22)            109.1463         estimate D2E/DX2                !
 ! A28   A(11,10,21)           109.7838         estimate D2E/DX2                !
 ! A29   A(11,10,22)           108.7764         estimate D2E/DX2                !
 ! A30   A(21,10,22)           107.9335         estimate D2E/DX2                !
 ! A31   A(10,11,12)           111.4212         estimate D2E/DX2                !
 ! A32   A(10,11,23)           108.9975         estimate D2E/DX2                !
 ! A33   A(10,11,24)           109.8576         estimate D2E/DX2                !
 ! A34   A(12,11,23)           109.2462         estimate D2E/DX2                !
 ! A35   A(12,11,24)           109.7416         estimate D2E/DX2                !
 ! A36   A(23,11,24)           107.4871         estimate D2E/DX2                !
 ! A37   A(11,12,13)           111.5785         estimate D2E/DX2                !
 ! A38   A(11,12,25)           109.2075         estimate D2E/DX2                !
 ! A39   A(11,12,26)           109.482          estimate D2E/DX2                !
 ! A40   A(13,12,25)           109.22           estimate D2E/DX2                !
 ! A41   A(13,12,26)           109.5224         estimate D2E/DX2                !
 ! A42   A(25,12,26)           107.7486         estimate D2E/DX2                !
 ! A43   A(7,13,12)            105.7797         estimate D2E/DX2                !
 ! A44   A(7,13,14)            111.0109         estimate D2E/DX2                !
 ! A45   A(7,13,15)            113.747          estimate D2E/DX2                !
 ! A46   A(12,13,14)           107.754          estimate D2E/DX2                !
 ! A47   A(12,13,15)           108.3872         estimate D2E/DX2                !
 ! A48   A(14,13,15)           109.8832         estimate D2E/DX2                !
 ! A49   A(13,15,16)           119.4474         estimate D2E/DX2                !
 ! A50   A(4,16,15)            128.6602         estimate D2E/DX2                !
 ! A51   A(4,16,27)            113.6637         estimate D2E/DX2                !
 ! A52   A(15,16,27)           117.676          estimate D2E/DX2                !
 ! D1    D(1,2,4,5)            147.2325         estimate D2E/DX2                !
 ! D2    D(1,2,4,16)           -30.0003         Frozen                          !
 ! D3    D(3,2,4,5)            -32.9855         estimate D2E/DX2                !
 ! D4    D(3,2,4,16)           149.7816         estimate D2E/DX2                !
 ! D5    D(2,4,5,6)            176.3558         estimate D2E/DX2                !
 ! D6    D(2,4,5,17)            -0.6857         estimate D2E/DX2                !
 ! D7    D(16,4,5,6)            -6.7801         estimate D2E/DX2                !
 ! D8    D(16,4,5,17)          176.1784         estimate D2E/DX2                !
 ! D9    D(2,4,16,15)         -156.0684         estimate D2E/DX2                !
 ! D10   D(2,4,16,27)           23.8502         estimate D2E/DX2                !
 ! D11   D(5,4,16,15)           27.0908         estimate D2E/DX2                !
 ! D12   D(5,4,16,27)         -152.9906         estimate D2E/DX2                !
 ! D13   D(4,5,6,7)             -6.2746         estimate D2E/DX2                !
 ! D14   D(4,5,6,18)           154.4365         estimate D2E/DX2                !
 ! D15   D(17,5,6,7)           170.8205         estimate D2E/DX2                !
 ! D16   D(17,5,6,18)          -28.4684         estimate D2E/DX2                !
 ! D17   D(5,6,7,8)           -143.0359         estimate D2E/DX2                !
 ! D18   D(5,6,7,9)            100.5574         estimate D2E/DX2                !
 ! D19   D(5,6,7,13)           -27.9594         estimate D2E/DX2                !
 ! D20   D(18,6,7,8)            54.1839         estimate D2E/DX2                !
 ! D21   D(18,6,7,9)           -62.2228         estimate D2E/DX2                !
 ! D22   D(18,6,7,13)          169.2605         estimate D2E/DX2                !
 ! D23   D(6,7,9,10)           168.6444         estimate D2E/DX2                !
 ! D24   D(6,7,9,19)           -70.3462         estimate D2E/DX2                !
 ! D25   D(6,7,9,20)            48.6539         estimate D2E/DX2                !
 ! D26   D(8,7,9,10)            52.7091         estimate D2E/DX2                !
 ! D27   D(8,7,9,19)           173.7185         estimate D2E/DX2                !
 ! D28   D(8,7,9,20)           -67.2814         estimate D2E/DX2                !
 ! D29   D(13,7,9,10)          -61.9108         estimate D2E/DX2                !
 ! D30   D(13,7,9,19)           59.0985         estimate D2E/DX2                !
 ! D31   D(13,7,9,20)          178.0987         estimate D2E/DX2                !
 ! D32   D(6,7,13,12)         -166.1337         estimate D2E/DX2                !
 ! D33   D(6,7,13,14)          -49.5197         estimate D2E/DX2                !
 ! D34   D(6,7,13,15)           75.0218         Frozen                          !
 ! D35   D(8,7,13,12)          -51.4433         estimate D2E/DX2                !
 ! D36   D(8,7,13,14)           65.1708         estimate D2E/DX2                !
 ! D37   D(8,7,13,15)         -170.2877         estimate D2E/DX2                !
 ! D38   D(9,7,13,12)           63.2912         estimate D2E/DX2                !
 ! D39   D(9,7,13,14)          179.9053         estimate D2E/DX2                !
 ! D40   D(9,7,13,15)          -55.5533         estimate D2E/DX2                !
 ! D41   D(7,9,10,11)           54.8123         Frozen                          !
 ! D42   D(7,9,10,21)          176.6023         estimate D2E/DX2                !
 ! D43   D(7,9,10,22)          -65.1865         estimate D2E/DX2                !
 ! D44   D(19,9,10,11)         -66.3029         estimate D2E/DX2                !
 ! D45   D(19,9,10,21)          55.4871         estimate D2E/DX2                !
 ! D46   D(19,9,10,22)         173.6983         estimate D2E/DX2                !
 ! D47   D(20,9,10,11)         175.4438         estimate D2E/DX2                !
 ! D48   D(20,9,10,21)         -62.7662         estimate D2E/DX2                !
 ! D49   D(20,9,10,22)          55.4449         estimate D2E/DX2                !
 ! D50   D(9,10,11,12)         -52.8223         Frozen                          !
 ! D51   D(9,10,11,23)          67.8117         estimate D2E/DX2                !
 ! D52   D(9,10,11,24)        -174.6572         estimate D2E/DX2                !
 ! D53   D(21,10,11,12)       -174.7058         estimate D2E/DX2                !
 ! D54   D(21,10,11,23)        -54.0717         estimate D2E/DX2                !
 ! D55   D(21,10,11,24)         63.4594         estimate D2E/DX2                !
 ! D56   D(22,10,11,12)         67.3956         estimate D2E/DX2                !
 ! D57   D(22,10,11,23)       -171.9703         estimate D2E/DX2                !
 ! D58   D(22,10,11,24)        -54.4392         estimate D2E/DX2                !
 ! D59   D(10,11,12,13)         56.6432         estimate D2E/DX2                !
 ! D60   D(10,11,12,25)        177.4843         estimate D2E/DX2                !
 ! D61   D(10,11,12,26)        -64.7627         estimate D2E/DX2                !
 ! D62   D(23,11,12,13)        -63.8448         estimate D2E/DX2                !
 ! D63   D(23,11,12,25)         56.9963         estimate D2E/DX2                !
 ! D64   D(23,11,12,26)        174.7493         estimate D2E/DX2                !
 ! D65   D(24,11,12,13)        178.5452         estimate D2E/DX2                !
 ! D66   D(24,11,12,25)        -60.6137         estimate D2E/DX2                !
 ! D67   D(24,11,12,26)         57.1393         estimate D2E/DX2                !
 ! D68   D(11,12,13,7)         -60.3799         estimate D2E/DX2                !
 ! D69   D(11,12,13,14)       -179.1762         estimate D2E/DX2                !
 ! D70   D(11,12,13,15)         61.9584         estimate D2E/DX2                !
 ! D71   D(25,12,13,7)         178.7864         estimate D2E/DX2                !
 ! D72   D(25,12,13,14)         59.99           estimate D2E/DX2                !
 ! D73   D(25,12,13,15)        -58.8754         estimate D2E/DX2                !
 ! D74   D(26,12,13,7)          61.0026         estimate D2E/DX2                !
 ! D75   D(26,12,13,14)        -57.7938         estimate D2E/DX2                !
 ! D76   D(26,12,13,15)       -176.6592         estimate D2E/DX2                !
 ! D77   D(7,13,15,16)         -67.1599         Frozen                          !
 ! D78   D(12,13,15,16)        175.497          estimate D2E/DX2                !
 ! D79   D(14,13,15,16)         57.9856         estimate D2E/DX2                !
 ! D80   D(13,15,16,4)           8.469          estimate D2E/DX2                !
 ! D81   D(13,15,16,27)       -171.4468         estimate D2E/DX2                !
 --------------------------------------------------------------------------------
 Trust Radius=3.00D-01 FncErr=1.00D-07 GrdErr=1.00D-07 EigMax=2.50D+02 EigMin=1.00D-04
 Number of steps in this run=     20 maximum allowed number of steps=    162.
 GradGradGradGradGradGradGradGradGradGradGradGradGradGradGradGradGradGrad

                          Input orientation:                          
 ---------------------------------------------------------------------
 Center     Atomic      Atomic             Coordinates (Angstroms)
 Number     Number       Type             X           Y           Z
 ---------------------------------------------------------------------
      1          8           0       -3.665690   -1.122220   -0.813640
      2          7           0       -3.239730   -0.271470   -0.034930
      3          8           0       -3.939030    0.368920    0.750250
      4          6           0       -1.750060   -0.000390   -0.043120
      5          6           0       -1.373890    1.315770    0.237330
      6          7           0       -0.087550    1.774510    0.353650
      7          6           0        1.192620    1.002100    0.342840
      8          1           0        1.855140    1.517190    1.085990
      9          6           0        1.957830    1.024680   -1.003880
     10          6           0        3.370630    0.444710   -0.800870
     11          6           0        3.310650   -0.957910   -0.175480
     12          6           0        2.461760   -0.964470    1.114110
     13          6           0        1.023950   -0.437320    0.854260
     14          1           0        0.474630   -0.455100    1.824750
     15          7           0        0.369990   -1.331700   -0.105120
     16          6           0       -0.871810   -1.140050   -0.408020
     17          1           0       -2.170600    2.053900    0.429720
     18          1           0        0.144220    2.754830    0.176250
     19          1           0        1.409550    0.430100   -1.765330
     20          1           0        2.042680    2.066740   -1.378790
     21          1           0        3.905870    0.400090   -1.774580
     22          1           0        3.946360    1.114540   -0.123720
     23          1           0        2.865040   -1.664320   -0.911810
     24          1           0        4.339110   -1.315160    0.050070
     25          1           0        2.405270   -2.002280    1.509660
     26          1           0        2.954100   -0.334930    1.884680
     27          1           0       -1.374050   -1.907750   -1.016280
 ---------------------------------------------------------------------
                    Distance matrix (angstroms):
                    1          2          3          4          5
     1  O    0.000000
     2  N    1.229474   0.000000
     3  O    2.178065   1.231108   0.000000
     4  C    2.349860   1.514156   2.357417   0.000000
     5  C    3.507233   2.464714   2.782006   1.397295   0.000000
     6  N    4.749389   3.777998   4.119086   2.464069   1.370636
     7  C    5.427095   4.627139   5.186592   3.132621   2.587759
     8  H    6.407390   5.514841   5.916388   4.071290   3.344761
     9  C    6.022404   5.443666   6.187079   3.965133   3.567309
    10  C    7.208691   6.693014   7.472807   5.195552   4.934276
    11  C    7.007394   6.587749   7.428009   5.152199   5.223500
    12  C    6.425477   5.857263   6.548315   4.473037   4.547576
    13  C    5.024311   4.358570   5.029116   2.948106   3.033738
    14  H    4.954634   4.157956   4.616704   2.940229   3.012127
    15  N    4.102755   3.762857   4.710777   2.504165   3.188650
    16  C    2.823227   2.549642   3.609213   1.484352   2.588361
    17  H    3.724107   2.601208   2.463583   2.149544   1.102994
    18  H    5.525108   4.544690   4.763924   3.350770   2.092674
    19  H    5.391982   5.010218   5.910938   3.624150   3.541553
    20  H    6.563105   5.931024   6.572386   4.521274   3.853408
    21  H    7.782632   7.384915   8.241250   5.928565   5.723820
    22  H    7.963818   7.319071   7.968635   5.805064   5.336282
    23  H    6.553926   6.322750   7.293276   4.982212   5.307541
    24  H    8.053573   7.650838   8.476673   6.230192   6.292474
    25  H    6.559633   6.103072   6.815382   4.866771   5.187517
    26  H    7.191827   6.484787   7.021223   5.094846   4.916307
    27  H    2.430994   2.668562   3.857846   2.174039   3.458702
                    6          7          8          9         10
     6  N    0.000000
     7  C    1.495182   0.000000
     8  H    2.092028   1.120947   0.000000
     9  C    2.566849   1.549100   2.149574   0.000000
    10  C    3.880759   2.522396   2.647105   1.540643   0.000000
    11  C    4.392478   2.931953   3.136230   2.539101   1.536897
    12  C    3.818284   2.464340   2.554881   2.948990   2.545384
    13  C    2.525517   1.536857   2.136512   2.542098   3.004054
    14  H    2.729715   2.198863   2.518234   3.520054   4.011278
    15  N    3.173067   2.514759   3.426454   2.980190   3.555776
    16  C    3.112855   3.068301   4.090140   3.612197   4.545777
    17  H    2.103079   3.524923   4.114041   4.489815   5.899922
    18  H    1.022847   2.049136   2.299267   2.770434   4.086703
    19  H    2.922126   2.195136   3.083884   1.110830   2.185459
    20  H    2.761273   2.195466   2.532255   1.110696   2.174494
    21  H    4.729249   3.493939   3.692732   2.186081   1.112018
    22  H    4.115322   2.795247   2.449230   2.176467   1.112955
    23  H    4.705819   3.388352   3.890130   2.839406   2.171621
    24  H    5.406805   3.918649   3.907102   3.500879   2.181558
    25  H    4.670616   3.443587   3.587312   3.959870   3.501175
    26  H    4.005674   2.695873   2.296947   3.344379   2.827280
    27  H    4.134106   4.111232   5.155329   4.438550   5.300232
                   11         12         13         14         15
    11  C    0.000000
    12  C    1.543923   0.000000
    13  C    2.561323   1.553289   0.000000
    14  H    3.506672   2.170980   1.115311   0.000000
    15  N    2.965156   2.448853   1.465602   2.122210   0.000000
    16  C    4.192877   3.668841   2.383503   2.695797   1.292496
    17  H    6.283420   5.571149   4.073274   3.903643   4.266490
    18  H    4.892283   4.481491   3.379859   3.623586   4.102422
    19  H    2.840489   3.367959   2.786280   3.813965   2.634563
    20  H    3.493453   3.946950   3.506371   4.368195   3.996188
    21  H    2.180727   3.505996   3.989676   5.045784   4.276522
    22  H    2.168376   2.838757   3.450390   4.279394   4.332996
    23  H    1.113447   2.181004   2.830926   3.829495   2.643229
    24  H    1.111859   2.186231   3.522444   4.338594   3.972187
    25  H    2.179477   1.112070   2.187851   2.494077   2.683199
    26  H    2.181626   1.110179   2.190372   2.483104   3.410349
    27  H    4.853407   4.487959   3.378089   3.687718   2.050298
                   16         17         18         19         20
    16  C    0.000000
    17  H    3.548236   0.000000
    18  H    4.067404   2.431860   0.000000
    19  H    3.084196   4.502493   3.282554   0.000000
    20  H    4.440737   4.585041   2.548680   1.796902   0.000000
    21  H    5.202475   6.672145   4.847736   2.496518   2.530978
    22  H    5.327172   6.213364   4.151723   3.098184   2.471009
    23  H    3.806929   6.401760   5.302417   2.689525   3.849046
    24  H    5.233947   7.339688   5.846182   3.863150   4.330413
    25  H    3.893609   6.209465   5.433270   4.199225   5.003153
    26  H    4.532359   5.838319   4.512292   4.036518   4.153185
    27  H    1.100722   4.291862   5.046476   3.711475   5.253763
                   21         22         23         24         25
    21  H    0.000000
    22  H    1.799282   0.000000
    23  H    2.467689   3.084218   0.000000
    24  H    2.541481   2.467367   1.794438   0.000000
    25  H    4.336982   3.841543   2.487795   2.518387   0.000000
    26  H    3.851792   2.668185   3.097671   2.498979   1.794968
    27  H    5.811945   6.183661   4.247359   5.841957   4.546710
                   26         27
    26  H    0.000000
    27  H    5.442629   0.000000
 Symmetry turned off by external request.
 Stoichiometry    C9H13N3O2
 Framework group  C1[X(C9H13N3O2)]
 Deg. of freedom    75
 Full point group                 C1      NOp   1
 Rotational constants (GHZ):           1.6708346           0.3973064           0.3620384
 Standard basis: 6-31G(d) (6D, 7F)
   236 basis functions,   444 primitive gaussians,   236 cartesian basis functions
    52 alpha electrons       52 beta electrons
       nuclear repulsion energy       918.3550521154 Hartrees.
 NAtoms=   27 NActive=   27 NUniq=   27 SFac= 1.00D+00 NAtFMM=   60 NAOKFM=F Big=F
 Integral buffers will be    131072 words long.
 Raffenetti 1 integral format.
 Two-electron integral symmetry is turned off.
 One-electron integrals computed using PRISM.
 NBasis=   236 RedAO= T EigKep=  1.66D-03  NBF=   236
 NBsUse=   236 1.00D-06 EigRej= -1.00D+00 NBFU=   236
 ExpMin= 1.61D-01 ExpMax= 5.48D+03 ExpMxC= 8.25D+02 IAcc=3 IRadAn=         5 AccDes= 0.00D+00
 Harris functional with IExCor=  205 and IRadAn=       5 diagonalized for initial guess.
 HarFok:  IExCor=  205 AccDes= 0.00D+00 IRadAn=         5 IDoV= 1 UseB2=F ITyADJ=14
 ICtDFT=  3500011 ScaDFX=  1.000000  1.000000  1.000000  1.000000
 FoFCou: FMM=F IPFlag=           0 FMFlag=      100000 FMFlg1=           0
         NFxFlg=           0 DoJE=T BraDBF=F KetDBF=T FulRan=T
         wScrn=  0.000000 ICntrl=       500 IOpCl=  0 I1Cent=   200000004 NGrid=           0
         NMat0=    1 NMatS0=      1 NMatT0=    0 NMatD0=    1 NMtDS0=    0 NMtDT0=    0
 Symmetry not used in FoFCou.
 Keep R1 ints in memory in canonical form, NReq=397720213.
 Requested convergence on RMS density matrix=1.00D-08 within 128 cycles.
 Requested convergence on MAX density matrix=1.00D-06.
 Requested convergence on             energy=1.00D-06.
 No special actions if energy rises.
 SCF Done:  E(RHF) =  -661.280158723     A.U. after   17 cycles
            NFock= 17  Conv=0.48D-08     -V/T= 2.0036
 ExpMin= 1.61D-01 ExpMax= 5.48D+03 ExpMxC= 8.25D+02 IAcc=3 IRadAn=         5 AccDes= 0.00D+00
 HarFok:  IExCor=  205 AccDes= 0.00D+00 IRadAn=         5 IDoV=-2 UseB2=F ITyADJ=14
 ICtDFT= 12500011 ScaDFX=  1.000000  1.000000  1.000000  1.000000
 Range of M.O.s used for correlation:    15   236
 NBasis=   236 NAE=    52 NBE=    52 NFC=    14 NFV=     0
 NROrb=    222 NOA=    38 NOB=    38 NVA=   184 NVB=   184
 Fully direct method using O(ONN) memory.
 JobTyp=1 Pass  1:  I=  15 to  52 NPSUse=  4 ParTrn=T ParDer=T DoDerP=T.
 Spin components of T(2) and E(2):
     alpha-alpha T2 =       0.9198964934D-01 E2=     -0.2718808395D+00
     alpha-beta  T2 =       0.4999940858D+00 E2=     -0.1494265352D+01
     beta-beta   T2 =       0.9198964934D-01 E2=     -0.2718808395D+00
 ANorm=    0.1297680001D+01
 E2 =    -0.2038027031D+01 EUMP2 =    -0.66331818575434D+03
          IDoAtm=111111111111111111111111111
          Differentiating once with respect to electric field.
                with respect to dipole field.
          Differentiating once with respect to nuclear coordinates.
 Keep R1 ints in memory in canonical form, NReq=397723379.
          There are     1 degrees of freedom in the 1st order CPHF.  IDoFFX=0 NUNeed=     1.
 LinEq1:  Iter=  0 NonCon=     1 RMS=4.58D-03 Max=1.15D-01 NDo=     1
 AX will form     1 AO Fock derivatives at one time.
 LinEq1:  Iter=  1 NonCon=     1 RMS=1.55D-03 Max=3.28D-02 NDo=     1
 LinEq1:  Iter=  2 NonCon=     1 RMS=6.32D-04 Max=1.94D-02 NDo=     1
 LinEq1:  Iter=  3 NonCon=     1 RMS=2.89D-04 Max=7.84D-03 NDo=     1
 LinEq1:  Iter=  4 NonCon=     1 RMS=8.81D-05 Max=1.87D-03 NDo=     1
 LinEq1:  Iter=  5 NonCon=     1 RMS=3.62D-05 Max=1.71D-03 NDo=     1
 LinEq1:  Iter=  6 NonCon=     1 RMS=1.53D-05 Max=6.39D-04 NDo=     1
 LinEq1:  Iter=  7 NonCon=     1 RMS=6.05D-06 Max=1.23D-04 NDo=     1
 LinEq1:  Iter=  8 NonCon=     1 RMS=2.44D-06 Max=6.08D-05 NDo=     1
 LinEq1:  Iter=  9 NonCon=     1 RMS=9.59D-07 Max=2.53D-05 NDo=     1
 LinEq1:  Iter= 10 NonCon=     1 RMS=4.41D-07 Max=1.13D-05 NDo=     1
 LinEq1:  Iter= 11 NonCon=     1 RMS=1.55D-07 Max=5.89D-06 NDo=     1
 LinEq1:  Iter= 12 NonCon=     1 RMS=5.49D-08 Max=8.80D-07 NDo=     1
 LinEq1:  Iter= 13 NonCon=     1 RMS=1.76D-08 Max=3.33D-07 NDo=     1
 LinEq1:  Iter= 14 NonCon=     1 RMS=5.81D-09 Max=1.34D-07 NDo=     1
 LinEq1:  Iter= 15 NonCon=     1 RMS=2.21D-09 Max=5.64D-08 NDo=     1
 LinEq1:  Iter= 16 NonCon=     1 RMS=8.03D-10 Max=1.11D-08 NDo=     1
 LinEq1:  Iter= 17 NonCon=     1 RMS=2.68D-10 Max=3.96D-09 NDo=     1
 LinEq1:  Iter= 18 NonCon=     1 RMS=9.58D-11 Max=1.33D-09 NDo=     1
 LinEq1:  Iter= 19 NonCon=     0 RMS=3.04D-11 Max=4.98D-10 NDo=     1
 Linear equations converged to 1.000D-10 1.000D-09 after    19 iterations.
 End of Minotr F.D. properties file   721 does not exist.
 End of Minotr F.D. properties file   722 does not exist.
 End of Minotr F.D. properties file   788 does not exist.

 **********************************************************************

            Population analysis using the SCF Density.

 **********************************************************************

 Alpha  occ. eigenvalues --  -20.59868 -20.59820 -15.85243 -15.63190 -15.56771
 Alpha  occ. eigenvalues --  -11.35769 -11.30466 -11.30025 -11.29902 -11.27656
 Alpha  occ. eigenvalues --  -11.24567 -11.23837 -11.23364 -11.22821  -1.58686
 Alpha  occ. eigenvalues --   -1.38286  -1.28484  -1.22690  -1.13346  -1.08571
 Alpha  occ. eigenvalues --   -1.01771  -1.00678  -0.93635  -0.88981  -0.84871
 Alpha  occ. eigenvalues --   -0.81618  -0.78088  -0.77053  -0.74236  -0.71291
 Alpha  occ. eigenvalues --   -0.70667  -0.69450  -0.67377  -0.64282  -0.63209
 Alpha  occ. eigenvalues --   -0.61668  -0.60377  -0.57401  -0.56398  -0.54804
 Alpha  occ. eigenvalues --   -0.53578  -0.50816  -0.49537  -0.48586  -0.47945
 Alpha  occ. eigenvalues --   -0.47704  -0.46286  -0.45562  -0.44095  -0.42061
 Alpha  occ. eigenvalues --   -0.39898  -0.33497
 Alpha virt. eigenvalues --    0.07814   0.11725   0.18114   0.21312   0.22797
 Alpha virt. eigenvalues --    0.24059   0.25836   0.27628   0.28630   0.28842
 Alpha virt. eigenvalues --    0.30110   0.31267   0.31842   0.32326   0.33401
 Alpha virt. eigenvalues --    0.33830   0.34580   0.35617   0.37597   0.38592
 Alpha virt. eigenvalues --    0.40547   0.42046   0.44968   0.45328   0.45833
 Alpha virt. eigenvalues --    0.46370   0.49185   0.53557   0.57542   0.59038
 Alpha virt. eigenvalues --    0.63108   0.69076   0.69299   0.72202   0.73824
 Alpha virt. eigenvalues --    0.74744   0.75829   0.75950   0.77801   0.79222
 Alpha virt. eigenvalues --    0.79466   0.83639   0.84953   0.85610   0.88040
 Alpha virt. eigenvalues --    0.89141   0.90361   0.90446   0.91929   0.93692
 Alpha virt. eigenvalues --    0.95218   0.97056   0.99241   1.00324   1.01556
 Alpha virt. eigenvalues --    1.03315   1.05126   1.06379   1.07093   1.08355
 Alpha virt. eigenvalues --    1.08845   1.10499   1.11433   1.12151   1.13270
 Alpha virt. eigenvalues --    1.13578   1.13803   1.15626   1.16361   1.17251
 Alpha virt. eigenvalues --    1.17862   1.18428   1.20067   1.21500   1.21725
 Alpha virt. eigenvalues --    1.23412   1.24845   1.25957   1.27636   1.28595
 Alpha virt. eigenvalues --    1.31084   1.32628   1.34238   1.36024   1.37998
 Alpha virt. eigenvalues --    1.41642   1.43562   1.44617   1.46430   1.48428
 Alpha virt. eigenvalues --    1.54441   1.54754   1.59466   1.63574   1.65305
 Alpha virt. eigenvalues --    1.67999   1.70379   1.72539   1.73032   1.75489
 Alpha virt. eigenvalues --    1.77893   1.80159   1.84803   1.89280   1.90040
 Alpha virt. eigenvalues --    1.92618   1.96021   1.98248   1.98794   2.00307
 Alpha virt. eigenvalues --    2.01198   2.04383   2.06441   2.08652   2.12529
 Alpha virt. eigenvalues --    2.13448   2.14498   2.17903   2.19384   2.19979
 Alpha virt. eigenvalues --    2.21245   2.23380   2.24041   2.25879   2.26506
 Alpha virt. eigenvalues --    2.29308   2.32073   2.33732   2.35663   2.36678
 Alpha virt. eigenvalues --    2.38112   2.38599   2.40896   2.43505   2.44811
 Alpha virt. eigenvalues --    2.48073   2.49686   2.50478   2.56397   2.58482
 Alpha virt. eigenvalues --    2.60656   2.62645   2.66322   2.68508   2.68972
 Alpha virt. eigenvalues --    2.69595   2.70251   2.73401   2.75327   2.83414
 Alpha virt. eigenvalues --    2.86373   2.87267   2.89814   2.91418   2.93353
 Alpha virt. eigenvalues --    2.97756   2.98539   3.02568   3.03543   3.05864
 Alpha virt. eigenvalues --    3.07526   3.12843   3.19126   3.19892   3.24949
 Alpha virt. eigenvalues --    3.31115   3.33956   3.37900   3.42067   3.59613
 Alpha virt. eigenvalues --    4.09301   4.20647   4.26653   4.32709   4.44413
 Alpha virt. eigenvalues --    4.52980   4.59618   4.60957   4.71018   4.77264
 Alpha virt. eigenvalues --    4.96387   4.99273   5.03008   5.09914
          Condensed to atoms (all electrons):
               1          2          3          4          5          6
     1  O    8.302493   0.305706  -0.084306  -0.079249   0.002195  -0.000019
     2  N    0.305706   5.711052   0.310483   0.249530  -0.042380   0.001162
     3  O   -0.084306   0.310483   8.311027  -0.087566   0.008219   0.000314
     4  C   -0.079249   0.249530  -0.087566   5.258841   0.565707  -0.050460
     5  C    0.002195  -0.042380   0.008219   0.565707   4.658706   0.314458
     6  N   -0.000019   0.001162   0.000314  -0.050460   0.314458   7.180166
     7  C   -0.000000  -0.000089   0.000007   0.003710  -0.031640   0.202698
     8  H   -0.000000   0.000002  -0.000000  -0.000201   0.002513  -0.049756
     9  C    0.000000  -0.000004   0.000000   0.000538   0.001557  -0.056748
    10  C   -0.000000   0.000000  -0.000000  -0.000019  -0.000061   0.003342
    11  C   -0.000000  -0.000000  -0.000000  -0.000017   0.000014  -0.000152
    12  C    0.000000   0.000001  -0.000000  -0.000080  -0.000116   0.003573
    13  C   -0.000004  -0.000045  -0.000009  -0.010459   0.000927  -0.045123
    14  H    0.000001  -0.000063  -0.000004   0.002895   0.004996  -0.005599
    15  N    0.000380   0.001573  -0.000009  -0.062721  -0.004481   0.002512
    16  C    0.003353  -0.026622   0.002071   0.317852  -0.038242  -0.001885
    17  H    0.000125  -0.003258   0.009163  -0.033753   0.382390  -0.032990
    18  H    0.000001  -0.000041   0.000003   0.001020  -0.023156   0.327658
    19  H    0.000000  -0.000000   0.000000  -0.000776   0.000731   0.000635
    20  H    0.000000  -0.000000   0.000000  -0.000030   0.000044  -0.001623
    21  H   -0.000000  -0.000000   0.000000   0.000000   0.000001  -0.000059
    22  H    0.000000   0.000000  -0.000000  -0.000000  -0.000002  -0.000097
    23  H    0.000000  -0.000000   0.000000   0.000025  -0.000000  -0.000024
    24  H    0.000000   0.000000   0.000000   0.000000  -0.000000   0.000004
    25  H    0.000000  -0.000000   0.000000   0.000018  -0.000000  -0.000071
    26  H    0.000000  -0.000000   0.000000   0.000005  -0.000001  -0.000065
    27  H    0.006694  -0.000154   0.000065  -0.064282   0.001848   0.000027
               7          8          9         10         11         12
     1  O   -0.000000  -0.000000   0.000000  -0.000000  -0.000000   0.000000
     2  N   -0.000089   0.000002  -0.000004   0.000000  -0.000000   0.000001
     3  O    0.000007  -0.000000   0.000000  -0.000000  -0.000000  -0.000000
     4  C    0.003710  -0.000201   0.000538  -0.000019  -0.000017  -0.000080
     5  C   -0.031640   0.002513   0.001557  -0.000061   0.000014  -0.000116
     6  N    0.202698  -0.049756  -0.056748   0.003342  -0.000152   0.003573
     7  C    5.005324   0.416196   0.341038  -0.049343  -0.007697  -0.064407
     8  H    0.416196   0.547715  -0.060632   0.001417  -0.000316  -0.002847
     9  C    0.341038  -0.060632   5.181423   0.317886  -0.053061  -0.006170
    10  C   -0.049343   0.001417   0.317886   5.126888   0.332771  -0.060166
    11  C   -0.007697  -0.000316  -0.053061   0.332771   5.124144   0.330584
    12  C   -0.064407  -0.002847  -0.006170  -0.060166   0.330584   5.137495
    13  C    0.331560  -0.040037  -0.050864  -0.001648  -0.047904   0.367854
    14  H   -0.040060  -0.000938   0.003841  -0.000388   0.003952  -0.040620
    15  N   -0.059566   0.004062  -0.012808   0.001486  -0.007740  -0.074176
    16  C   -0.001742  -0.000027  -0.000653  -0.000038   0.000022   0.002417
    17  H    0.001520  -0.000020  -0.000072   0.000001   0.000000   0.000001
    18  H   -0.028629  -0.002713   0.000793  -0.000118   0.000011  -0.000134
    19  H   -0.035016   0.004093   0.386101  -0.032639  -0.002259   0.000631
    20  H   -0.041665  -0.001830   0.397199  -0.037362   0.004138  -0.000361
    21  H    0.004043  -0.000081  -0.035819   0.400114  -0.035859   0.004213
    22  H   -0.004231   0.003524  -0.045676   0.395933  -0.045613  -0.001239
    23  H    0.000437   0.000033  -0.002000  -0.040113   0.396688  -0.036665
    24  H   -0.000143  -0.000098   0.004393  -0.038486   0.400261  -0.037871
    25  H    0.004996  -0.000005  -0.000371   0.004102  -0.033941   0.395349
    26  H   -0.004445   0.001575   0.001044  -0.002405  -0.042306   0.394678
    27  H   -0.000381   0.000008  -0.000055   0.000005   0.000005  -0.000017
              13         14         15         16         17         18
     1  O   -0.000004   0.000001   0.000380   0.003353   0.000125   0.000001
     2  N   -0.000045  -0.000063   0.001573  -0.026622  -0.003258  -0.000041
     3  O   -0.000009  -0.000004  -0.000009   0.002071   0.009163   0.000003
     4  C   -0.010459   0.002895  -0.062721   0.317852  -0.033753   0.001020
     5  C    0.000927   0.004996  -0.004481  -0.038242   0.382390  -0.023156
     6  N   -0.045123  -0.005599   0.002512  -0.001885  -0.032990   0.327658
     7  C    0.331560  -0.040060  -0.059566  -0.001742   0.001520  -0.028629
     8  H   -0.040037  -0.000938   0.004062  -0.000027  -0.000020  -0.002713
     9  C   -0.050864   0.003841  -0.012808  -0.000653  -0.000072   0.000793
    10  C   -0.001648  -0.000388   0.001486  -0.000038   0.000001  -0.000118
    11  C   -0.047904   0.003952  -0.007740   0.000022   0.000000   0.000011
    12  C    0.367854  -0.040620  -0.074176   0.002417   0.000001  -0.000134
    13  C    5.023020   0.402580   0.241985  -0.068833  -0.000052   0.003676
    14  H    0.402580   0.517249  -0.035389  -0.005407   0.000066   0.000006
    15  N    0.241985  -0.035389   6.939015   0.585237  -0.000053  -0.000112
    16  C   -0.068833  -0.005407   0.585237   4.711893   0.001481  -0.000222
    17  H   -0.000052   0.000066  -0.000053   0.001481   0.397466  -0.001863
    18  H    0.003676   0.000006  -0.000112  -0.000222  -0.001863   0.325856
    19  H   -0.006221   0.000064   0.006890   0.002359   0.000012  -0.000121
    20  H    0.003864  -0.000050   0.000080  -0.000034  -0.000001   0.002813
    21  H   -0.000379   0.000009  -0.000030   0.000002  -0.000000  -0.000000
    22  H    0.000319  -0.000044   0.000004  -0.000001   0.000000   0.000002
    23  H   -0.005870   0.000008   0.006783   0.000061   0.000000   0.000000
    24  H    0.004143  -0.000058   0.000041   0.000005   0.000000  -0.000000
    25  H   -0.034486  -0.002658   0.000827  -0.000067  -0.000000   0.000002
    26  H   -0.044747  -0.000918   0.004180  -0.000054   0.000000  -0.000001
    27  H    0.004715  -0.000181  -0.039807   0.401923  -0.000065   0.000002
              19         20         21         22         23         24
     1  O    0.000000   0.000000  -0.000000   0.000000   0.000000   0.000000
     2  N   -0.000000  -0.000000  -0.000000   0.000000  -0.000000   0.000000
     3  O    0.000000   0.000000   0.000000  -0.000000   0.000000   0.000000
     4  C   -0.000776  -0.000030   0.000000  -0.000000   0.000025   0.000000
     5  C    0.000731   0.000044   0.000001  -0.000002  -0.000000  -0.000000
     6  N    0.000635  -0.001623  -0.000059  -0.000097  -0.000024   0.000004
     7  C   -0.035016  -0.041665   0.004043  -0.004231   0.000437  -0.000143
     8  H    0.004093  -0.001830  -0.000081   0.003524   0.000033  -0.000098
     9  C    0.386101   0.397199  -0.035819  -0.045676  -0.002000   0.004393
    10  C   -0.032639  -0.037362   0.400114   0.395933  -0.040113  -0.038486
    11  C   -0.002259   0.004138  -0.035859  -0.045613   0.396688   0.400261
    12  C    0.000631  -0.000361   0.004213  -0.001239  -0.036665  -0.037871
    13  C   -0.006221   0.003864  -0.000379   0.000319  -0.005870   0.004143
    14  H    0.000064  -0.000050   0.000009  -0.000044   0.000008  -0.000058
    15  N    0.006890   0.000080  -0.000030   0.000004   0.006783   0.000041
    16  C    0.002359  -0.000034   0.000002  -0.000001   0.000061   0.000005
    17  H    0.000012  -0.000001  -0.000000   0.000000   0.000000   0.000000
    18  H   -0.000121   0.002813  -0.000000   0.000002   0.000000  -0.000000
    19  H    0.506628  -0.023967  -0.002594   0.003759   0.001645  -0.000070
    20  H   -0.023967   0.550227  -0.002625  -0.002962  -0.000050  -0.000090
    21  H   -0.002594  -0.002625   0.526281  -0.024719  -0.002817  -0.002064
    22  H    0.003759  -0.002962  -0.024719   0.568998   0.004063  -0.003593
    23  H    0.001645  -0.000050  -0.002817   0.004063   0.509853  -0.025000
    24  H   -0.000070  -0.000090  -0.002064  -0.003593  -0.025000   0.541286
    25  H   -0.000027   0.000011  -0.000086  -0.000082  -0.002088  -0.002388
    26  H    0.000023  -0.000035  -0.000073   0.002462   0.003820  -0.002763
    27  H    0.000071  -0.000000  -0.000000   0.000000  -0.000022  -0.000000
              25         26         27
     1  O    0.000000   0.000000   0.006694
     2  N   -0.000000  -0.000000  -0.000154
     3  O    0.000000   0.000000   0.000065
     4  C    0.000018   0.000005  -0.064282
     5  C   -0.000000  -0.000001   0.001848
     6  N   -0.000071  -0.000065   0.000027
     7  C    0.004996  -0.004445  -0.000381
     8  H   -0.000005   0.001575   0.000008
     9  C   -0.000371   0.001044  -0.000055
    10  C    0.004102  -0.002405   0.000005
    11  C   -0.033941  -0.042306   0.000005
    12  C    0.395349   0.394678  -0.000017
    13  C   -0.034486  -0.044747   0.004715
    14  H   -0.002658  -0.000918  -0.000181
    15  N    0.000827   0.004180  -0.039807
    16  C   -0.000067  -0.000054   0.401923
    17  H   -0.000000   0.000000  -0.000065
    18  H    0.000002  -0.000001   0.000002
    19  H   -0.000027   0.000023   0.000071
    20  H    0.000011  -0.000035  -0.000000
    21  H   -0.000086  -0.000073  -0.000000
    22  H   -0.000082   0.002462   0.000000
    23  H   -0.002088   0.003820  -0.000022
    24  H   -0.002388  -0.002763  -0.000000
    25  H    0.510989  -0.023139  -0.000010
    26  H   -0.023139   0.560899   0.000001
    27  H   -0.000010   0.000001   0.441599
 Mulliken charges:
               1
     1  O   -0.457370
     2  N    0.493147
     3  O   -0.469458
     4  C   -0.010528
     5  C    0.195771
     6  N   -0.791879
     7  C    0.057525
     8  H    0.178363
     9  C   -0.310881
    10  C   -0.321159
    11  C   -0.315724
    12  C   -0.311928
    13  C   -0.027961
    14  H    0.196712
    15  N   -0.498164
    16  C    0.115151
    17  H    0.279903
    18  H    0.395265
    19  H    0.190045
    20  H    0.154308
    21  H    0.172542
    22  H    0.149194
    23  H    0.191233
    24  H    0.162491
    25  H    0.183125
    26  H    0.152265
    27  H    0.248011
 Sum of Mulliken charges =  -0.00000
 Mulliken charges with hydrogens summed into heavy atoms:
               1
     1  O   -0.457370
     2  N    0.493147
     3  O   -0.469458
     4  C   -0.010528
     5  C    0.475675
     6  N   -0.396613
     7  C    0.235889
     9  C    0.033473
    10  C    0.000577
    11  C    0.038000
    12  C    0.023462
    13  C    0.168751
    15  N   -0.498164
    16  C    0.363162
 Electronic spatial extent (au):  <R**2>=           3109.5102
 Charge=             -0.0000 electrons
 Dipole moment (field-independent basis, Debye):
    X=              5.1655    Y=              4.4632    Z=              0.3760  Tot=              6.8370
 Quadrupole moment (field-independent basis, Debye-Ang):
   XX=           -104.3348   YY=            -77.9220   ZZ=            -84.8721
   XY=             -2.2561   XZ=              1.3459   YZ=             -1.9027
 Traceless Quadrupole moment (field-independent basis, Debye-Ang):
   XX=            -15.2919   YY=             11.1210   ZZ=              4.1708
   XY=             -2.2561   XZ=              1.3459   YZ=             -1.9027
 Octapole moment (field-independent basis, Debye-Ang**2):
  XXX=             93.9292  YYY=             33.5602  ZZZ=             -4.8746  XYY=            -10.7164
  XXY=             15.4201  XXZ=             -3.1150  XZZ=              1.1126  YZZ=             -2.1033
  YYZ=              1.0593  XYZ=              5.6931
 Hexadecapole moment (field-independent basis, Debye-Ang**3):
 XXXX=          -3505.2558 YYYY=           -577.6017 ZZZZ=           -340.4937 XXXY=            -62.4881
 XXXZ=             38.5432 YYYX=            -11.1635 YYYZ=             -0.6959 ZZZX=             18.9521
 ZZZY=             -2.6005 XXYY=           -615.6425 XXZZ=           -581.2391 YYZZ=           -166.3680
 XXYZ=            -25.5006 YYXZ=              5.9648 ZZXY=             -1.4768
 N-N= 9.183550521154D+02 E-N=-3.382744429177D+03  KE= 6.588896696990D+02
 Calling FoFJK, ICntrl=  10002127 FMM=F ISym2X=0 I1Cent= 0 IOpClX= 0 NMat=1 NMatS=1 NMatT=0.
 -------------------------------------------------------------------
 Center     Atomic                   Forces (Hartrees/Bohr)
 Number     Number              X              Y              Z
 -------------------------------------------------------------------
      1        8          -0.002839043   -0.014835882   -0.012509616
      2        7           0.040740223    0.009797215    0.000945325
      3        8          -0.007509013    0.013064976    0.010426084
      4        6          -0.001895306    0.007659408    0.007343995
      5        6           0.004812280   -0.017774634   -0.002008200
      6        7           0.014718237   -0.008156052   -0.006325081
      7        6          -0.004929881    0.005504278    0.003196214
      8        1          -0.010108953   -0.001781808   -0.007635985
      9        6          -0.004002152    0.000071365   -0.002109059
     10        6           0.002828884   -0.000858560    0.000979298
     11        6          -0.000968051   -0.004624167   -0.002244338
     12        6           0.000834942   -0.008781435   -0.002743026
     13        6           0.009020287   -0.001132431    0.003538622
     14        1           0.000837107    0.004043578   -0.010150049
     15        7           0.000686708   -0.000487403    0.004188525
     16        6          -0.018582319    0.010052221   -0.000146687
     17        1           0.008122538   -0.005628403   -0.004085102
     18        1          -0.017263130   -0.001933584    0.005021537
     19        1           0.003098668    0.006042897    0.007514398
     20        1          -0.003235208   -0.007321149    0.002790317
     21        1          -0.004352473    0.002618891    0.009564291
     22        1          -0.003990199   -0.004163995   -0.007298881
     23        1           0.003941764    0.006324337    0.009138739
     24        1          -0.009388088    0.002532469   -0.002204758
     25        1          -0.000830755    0.010539136   -0.002680091
     26        1          -0.004756612   -0.004920459   -0.004265767
     27        1           0.005009547    0.004149192    0.001759296
 -------------------------------------------------------------------
 Cartesian Forces:  Max     0.040740223 RMS     0.008313448

 GradGradGradGradGradGradGradGradGradGradGradGradGradGradGradGradGradGrad
 Berny optimization.
 FormGI is forming the generalized inverse of G from B-inverse, IUseBI=4.
 Internal  Forces:  Max     0.032007151 RMS     0.006549874
 Search for a local minimum.
 Step number   1 out of a maximum of   20
 All quantities printed in internal units (Hartrees-Bohrs-Radians)
 Mixed Optimization -- RFO/linear search
 Second derivative matrix not updated -- first step.
 ITU=  0
     Eigenvalues ---    0.00230   0.00770   0.01056   0.01152   0.01202
     Eigenvalues ---    0.01484   0.01533   0.01608   0.01983   0.02025
     Eigenvalues ---    0.02106   0.02683   0.03660   0.04506   0.04695
     Eigenvalues ---    0.04838   0.05078   0.05138   0.05303   0.05885
     Eigenvalues ---    0.06267   0.07216   0.07701   0.07722   0.07868
     Eigenvalues ---    0.07994   0.08050   0.08052   0.10459   0.11739
     Eigenvalues ---    0.12269   0.13473   0.15249   0.15721   0.15990
     Eigenvalues ---    0.16000   0.20088   0.21971   0.23178   0.24971
     Eigenvalues ---    0.25000   0.25000   0.25354   0.26177   0.26653
     Eigenvalues ---    0.27983   0.28084   0.28455   0.30936   0.31468
     Eigenvalues ---    0.31689   0.32044   0.32238   0.32289   0.32382
     Eigenvalues ---    0.32387   0.32404   0.32512   0.32526   0.32581
     Eigenvalues ---    0.33353   0.33496   0.33602   0.35294   0.43887
     Eigenvalues ---    0.44596   0.49260   0.67072   0.90626   0.91306
     Eigenvalues --- 1000.000001000.000001000.000001000.000001000.00000
     Eigenvalues --- 1000.000001000.000001000.000001000.000001000.00000
     Eigenvalues --- 1000.000001000.000001000.000001000.000001000.00000
     Eigenvalues --- 1000.000001000.000001000.000001000.000001000.00000
     Eigenvalues --- 1000.000001000.000001000.000001000.000001000.00000
     Eigenvalues --- 1000.000001000.000001000.000001000.000001000.00000
     Eigenvalues --- 1000.000001000.000001000.000001000.000001000.00000
     Eigenvalues --- 1000.000001000.000001000.000001000.000001000.00000
     Eigenvalues --- 1000.000001000.000001000.000001000.000001000.00000
     Eigenvalues --- 1000.000001000.000001000.000001000.000001000.00000
     Eigenvalues --- 1000.000001000.000001000.000001000.000001000.00000
     Eigenvalues --- 1000.000001000.000001000.000001000.000001000.00000
     Eigenvalues --- 1000.000001000.000001000.000001000.000001000.00000
     Eigenvalues --- 1000.000001000.000001000.000001000.000001000.00000
     Eigenvalues --- 1000.000001000.000001000.000001000.000001000.00000
     Eigenvalues --- 1000.000001000.000001000.000001000.000001000.00000
     Eigenvalues --- 1000.000001000.000001000.000001000.000001000.00000
     Eigenvalues --- 1000.000001000.000001000.000001000.000001000.00000
     Eigenvalues --- 1000.00000
 RFO step:  Lambda=-2.17503369D-02 EMin= 2.30054106D-03
 Linear search not attempted -- first point.
 Iteration  1 RMS(Cart)=  0.05796200 RMS(Int)=  0.00204516
 Iteration  2 RMS(Cart)=  0.00213874 RMS(Int)=  0.00050864
 Iteration  3 RMS(Cart)=  0.00000620 RMS(Int)=  0.00050862
 Iteration  4 RMS(Cart)=  0.00000001 RMS(Int)=  0.00050862
 Iteration  1 RMS(Cart)=  0.00001314 RMS(Int)=  0.00001168
 Iteration  2 RMS(Cart)=  0.00000865 RMS(Int)=  0.00001264
 Iteration  3 RMS(Cart)=  0.00000612 RMS(Int)=  0.00001434
 Iteration  4 RMS(Cart)=  0.00000465 RMS(Int)=  0.00001599
 Iteration  5 RMS(Cart)=  0.00000373 RMS(Int)=  0.00001744
 Iteration  6 RMS(Cart)=  0.00000310 RMS(Int)=  0.00001869
 Iteration  7 RMS(Cart)=  0.00000261 RMS(Int)=  0.00001976
 Iteration  8 RMS(Cart)=  0.00000221 RMS(Int)=  0.00002067
 Iteration  9 RMS(Cart)=  0.00000188 RMS(Int)=  0.00002146
 Iteration 10 RMS(Cart)=  0.00000160 RMS(Int)=  0.00002213
 Iteration 11 RMS(Cart)=  0.00000136 RMS(Int)=  0.00002270
 Iteration 12 RMS(Cart)=  0.00000116 RMS(Int)=  0.00002319
 Iteration 13 RMS(Cart)=  0.00000098 RMS(Int)=  0.00002361
 Variable       Old X    -DE/DX   Delta X   Delta X   Delta X     New X
                                 (Linear)    (Quad)   (Total)
    R1        2.32337   0.01917   0.00000   0.02051   0.02051   2.34388
    R2        2.32646   0.01771   0.00000   0.01908   0.01908   2.34554
    R3        2.86134  -0.03134   0.00000  -0.09466  -0.09466   2.76668
    R4        2.64050  -0.03201   0.00000  -0.06896  -0.06874   2.57177
    R5        2.80502  -0.02148   0.00000  -0.06202  -0.06182   2.74320
    R6        2.59013  -0.02405   0.00000  -0.04631  -0.04622   2.54391
    R7        2.08436  -0.01035   0.00000  -0.02912  -0.02912   2.05524
    R8        2.82548  -0.01987   0.00000  -0.05500  -0.05507   2.77041
    R9        1.93290  -0.00664   0.00000  -0.01441  -0.01441   1.91849
   R10        2.11828  -0.01186   0.00000  -0.03524  -0.03524   2.08304
   R11        2.92737  -0.01298   0.00000  -0.04447  -0.04448   2.88290
   R12        2.90424  -0.00447   0.00000  -0.00941  -0.00939   2.89485
   R13        2.91139  -0.00463   0.00000  -0.01448  -0.01452   2.89688
   R14        2.09916  -0.00991   0.00000  -0.02858  -0.02858   2.07058
   R15        2.09891  -0.00806   0.00000  -0.02322  -0.02322   2.07569
   R16        2.90431  -0.00183   0.00000  -0.00723  -0.00730   2.89702
   R17        2.10141  -0.01057   0.00000  -0.03060  -0.03060   2.07081
   R18        2.10318  -0.00901   0.00000  -0.02615  -0.02615   2.07703
   R19        2.91759  -0.00911   0.00000  -0.02910  -0.02909   2.88850
   R20        2.10411  -0.01163   0.00000  -0.03381  -0.03381   2.07031
   R21        2.10111  -0.00994   0.00000  -0.02876  -0.02876   2.07235
   R22        2.93529  -0.01059   0.00000  -0.03666  -0.03663   2.89866
   R23        2.10151  -0.01075   0.00000  -0.03110  -0.03110   2.07041
   R24        2.09793  -0.00786   0.00000  -0.02262  -0.02262   2.07532
   R25        2.10763  -0.00931   0.00000  -0.02720  -0.02720   2.08043
   R26        2.76959  -0.00562   0.00000  -0.01196  -0.01228   2.75730
   R27        2.44246  -0.00450   0.00000  -0.00634  -0.00641   2.43605
   R28        2.08006  -0.00615   0.00000  -0.01719  -0.01719   2.06287
    A1        2.17377   0.00584   0.00000   0.02165   0.01834   2.19211
    A2        2.05027  -0.00323   0.00000  -0.01172  -0.01499   2.03528
    A3        2.05914  -0.00260   0.00000  -0.00941  -0.01269   2.04645
    A4        2.01796  -0.00724   0.00000  -0.02376  -0.02413   1.99383
    A5        2.03306  -0.00082   0.00000  -0.00010  -0.00050   2.03256
    A6        2.23097   0.00799   0.00000   0.02233   0.02261   2.25358
    A7        2.19561   0.00764   0.00000   0.02603   0.02639   2.22200
    A8        2.06111  -0.00280   0.00000  -0.00707  -0.00733   2.05377
    A9        2.02541  -0.00480   0.00000  -0.01806  -0.01835   2.00706
   A10        2.25238  -0.00578   0.00000  -0.01921  -0.01917   2.23321
   A11        2.11614  -0.01218   0.00000  -0.07072  -0.07122   2.04492
   A12        1.87534   0.01812   0.00000   0.09850   0.09859   1.97393
   A13        1.83782  -0.00170   0.00000  -0.01724  -0.01702   1.82081
   A14        2.00611  -0.00088   0.00000  -0.01206  -0.01223   1.99388
   A15        1.96869   0.00085   0.00000  -0.00249  -0.00290   1.96579
   A16        1.85220   0.00267   0.00000   0.02466   0.02452   1.87672
   A17        1.84900   0.00098   0.00000   0.02193   0.02166   1.87067
   A18        1.93602  -0.00158   0.00000  -0.00977  -0.00948   1.92654
   A19        1.91021   0.00018   0.00000  -0.00539  -0.00551   1.90470
   A20        1.92230  -0.00071   0.00000  -0.01317  -0.01314   1.90916
   A21        1.92288  -0.00169   0.00000  -0.00691  -0.00690   1.91598
   A22        1.91925  -0.00045   0.00000   0.00555   0.00549   1.92475
   A23        1.90457   0.00307   0.00000   0.02537   0.02538   1.92994
   A24        1.88442  -0.00038   0.00000  -0.00502  -0.00528   1.87914
   A25        1.94055  -0.00091   0.00000   0.00551   0.00540   1.94595
   A26        1.91889  -0.00068   0.00000  -0.00687  -0.00688   1.91201
   A27        1.90496   0.00031   0.00000  -0.00293  -0.00300   1.90196
   A28        1.91609   0.00078   0.00000   0.00732   0.00736   1.92345
   A29        1.89851   0.00174   0.00000   0.01140   0.01143   1.90993
   A30        1.88380  -0.00123   0.00000  -0.01492  -0.01500   1.86879
   A31        1.94467   0.00065   0.00000   0.00542   0.00555   1.95021
   A32        1.90237   0.00062   0.00000   0.00603   0.00599   1.90836
   A33        1.91738   0.00039   0.00000   0.00537   0.00533   1.92271
   A34        1.90671  -0.00116   0.00000  -0.01472  -0.01477   1.89194
   A35        1.91535  -0.00045   0.00000   0.00028   0.00019   1.91554
   A36        1.87600  -0.00007   0.00000  -0.00278  -0.00281   1.87319
   A37        1.94741  -0.00297   0.00000  -0.01902  -0.01904   1.92837
   A38        1.90603   0.00253   0.00000   0.01685   0.01669   1.92272
   A39        1.91082   0.00139   0.00000   0.01402   0.01399   1.92481
   A40        1.90625   0.00018   0.00000  -0.00335  -0.00320   1.90305
   A41        1.91153  -0.00020   0.00000  -0.00428  -0.00420   1.90732
   A42        1.88057  -0.00086   0.00000  -0.00369  -0.00389   1.87668
   A43        1.84620   0.00457   0.00000   0.02323   0.02326   1.86947
   A44        1.93751  -0.00435   0.00000  -0.03081  -0.03127   1.90624
   A45        1.98526   0.00094   0.00000   0.01230   0.01261   1.99786
   A46        1.88066   0.00229   0.00000   0.03143   0.03173   1.91239
   A47        1.89171  -0.00402   0.00000  -0.02963  -0.02971   1.86201
   A48        1.91782   0.00078   0.00000  -0.00413  -0.00400   1.91382
   A49        2.08475  -0.00579   0.00000  -0.01185  -0.01226   2.07249
   A50        2.24554  -0.00437   0.00000  -0.01924  -0.01933   2.22622
   A51        1.98381   0.00424   0.00000   0.02098   0.02050   2.00431
   A52        2.05383   0.00013   0.00000  -0.00168  -0.00215   2.05168
    D1        2.56969   0.00075   0.00000  -0.03032  -0.02985   2.53984
    D2       -0.52360   0.00205   0.00000   0.00000  -0.00000  -0.52360
    D3       -0.57571   0.00241   0.00000   0.11210   0.11211  -0.46360
    D4        2.61418   0.00371   0.00000   0.14242   0.14196   2.75615
    D5        3.07799   0.00166   0.00000   0.03256   0.03255   3.11054
    D6       -0.01197   0.00062   0.00000   0.01120   0.01098  -0.00099
    D7       -0.11833  -0.00018   0.00000  -0.00276  -0.00293  -0.12127
    D8        3.07489  -0.00122   0.00000  -0.02411  -0.02450   3.05039
    D9       -2.72391  -0.00191   0.00000  -0.04659  -0.04697  -2.77088
   D10        0.41626  -0.00006   0.00000   0.00379   0.00357   0.41984
   D11        0.47282   0.00011   0.00000  -0.01039  -0.01022   0.46260
   D12       -2.67019   0.00196   0.00000   0.03999   0.04032  -2.62987
   D13       -0.10951  -0.00081   0.00000   0.00228   0.00258  -0.10694
   D14        2.69542   0.00294   0.00000   0.05465   0.05354   2.74897
   D15        2.98138   0.00025   0.00000   0.02350   0.02390   3.00528
   D16       -0.49687   0.00400   0.00000   0.07587   0.07486  -0.42200
   D17       -2.49645  -0.00070   0.00000  -0.01125  -0.01089  -2.50734
   D18        1.75506  -0.00239   0.00000  -0.02374  -0.02336   1.73170
   D19       -0.48798  -0.00012   0.00000   0.00348   0.00344  -0.48454
   D20        0.94569   0.00003   0.00000  -0.03474  -0.03536   0.91033
   D21       -1.08599  -0.00166   0.00000  -0.04722  -0.04782  -1.13382
   D22        2.95415   0.00062   0.00000  -0.02001  -0.02103   2.93313
   D23        2.94340   0.00241   0.00000   0.03007   0.02992   2.97332
   D24       -1.22777   0.00152   0.00000   0.02518   0.02505  -1.20272
   D25        0.84917  -0.00044   0.00000   0.00647   0.00641   0.85558
   D26        0.91995   0.00323   0.00000   0.04168   0.04167   0.96162
   D27        3.03196   0.00234   0.00000   0.03679   0.03680   3.06876
   D28       -1.17428   0.00038   0.00000   0.01808   0.01816  -1.15612
   D29       -1.08055   0.00138   0.00000   0.00701   0.00704  -1.07350
   D30        1.03146   0.00049   0.00000   0.00212   0.00217   1.03363
   D31        3.10841  -0.00147   0.00000  -0.01659  -0.01647   3.09194
   D32       -2.89958  -0.00090   0.00000  -0.01421  -0.01396  -2.91354
   D33       -0.86428   0.00221   0.00000   0.02066   0.02051  -0.84377
   D34        1.30938   0.00051   0.00000   0.00000  -0.00001   1.30937
   D35       -0.89785  -0.00192   0.00000  -0.02310  -0.02301  -0.92086
   D36        1.13745   0.00118   0.00000   0.01177   0.01146   1.14891
   D37       -2.97208  -0.00052   0.00000  -0.00889  -0.00906  -2.98114
   D38        1.10464   0.00099   0.00000   0.01327   0.01338   1.11802
   D39        3.13994   0.00409   0.00000   0.04814   0.04785  -3.09539
   D40       -0.96959   0.00239   0.00000   0.02748   0.02733  -0.94226
   D41        0.95665   0.00070   0.00000   0.00000   0.00001   0.95666
   D42        3.08229   0.00061   0.00000   0.00825   0.00821   3.09050
   D43       -1.13772  -0.00110   0.00000  -0.01569  -0.01566  -1.15338
   D44       -1.15720   0.00174   0.00000   0.01622   0.01629  -1.14091
   D45        0.96843   0.00166   0.00000   0.02447   0.02449   0.99292
   D46        3.03161  -0.00005   0.00000   0.00053   0.00063   3.03224
   D47        3.06207   0.00063   0.00000   0.00386   0.00382   3.06589
   D48       -1.09548   0.00055   0.00000   0.01211   0.01202  -1.08345
   D49        0.96770  -0.00116   0.00000  -0.01183  -0.01184   0.95586
   D50       -0.92192  -0.00078   0.00000   0.00000   0.00001  -0.92192
   D51        1.18354  -0.00141   0.00000  -0.01094  -0.01095   1.17259
   D52       -3.04834  -0.00091   0.00000  -0.00767  -0.00770  -3.05604
   D53       -3.04919   0.00016   0.00000   0.00002   0.00004  -3.04915
   D54       -0.94373  -0.00048   0.00000  -0.01092  -0.01092  -0.95465
   D55        1.10758   0.00003   0.00000  -0.00765  -0.00767   1.09991
   D56        1.17628   0.00017   0.00000   0.00715   0.00718   1.18346
   D57       -3.00145  -0.00046   0.00000  -0.00380  -0.00378  -3.00523
   D58       -0.95014   0.00004   0.00000  -0.00052  -0.00052  -0.95067
   D59        0.98861  -0.00084   0.00000  -0.01154  -0.01156   0.97705
   D60        3.09769  -0.00083   0.00000  -0.01668  -0.01683   3.08086
   D61       -1.13032   0.00041   0.00000  -0.00319  -0.00315  -1.13347
   D62       -1.11430  -0.00126   0.00000  -0.01278  -0.01276  -1.12706
   D63        0.99477  -0.00124   0.00000  -0.01793  -0.01803   0.97675
   D64        3.04995  -0.00000   0.00000  -0.00444  -0.00435   3.04560
   D65        3.11620  -0.00023   0.00000  -0.00093  -0.00092   3.11528
   D66       -1.05791  -0.00021   0.00000  -0.00608  -0.00619  -1.06410
   D67        0.99727   0.00103   0.00000   0.00741   0.00748   1.00475
   D68       -1.05383   0.00000   0.00000  -0.00138  -0.00132  -1.05515
   D69       -3.12722   0.00154   0.00000   0.00667   0.00629  -3.12093
   D70        1.08138   0.00155   0.00000   0.01036   0.01033   1.09170
   D71        3.12041  -0.00138   0.00000  -0.00802  -0.00790   3.11251
   D72        1.04702   0.00016   0.00000   0.00002  -0.00029   1.04674
   D73       -1.02757   0.00016   0.00000   0.00372   0.00375  -1.02382
   D74        1.06470  -0.00033   0.00000   0.00089   0.00105   1.06575
   D75       -1.00869   0.00121   0.00000   0.00893   0.00867  -1.00003
   D76       -3.08328   0.00121   0.00000   0.01263   0.01270  -3.07058
   D77       -1.17216   0.00410   0.00000   0.00000  -0.00001  -1.17217
   D78        3.06300   0.00051   0.00000  -0.01660  -0.01649   3.04651
   D79        1.01204  -0.00035   0.00000  -0.03489  -0.03515   0.97689
   D80        0.14781   0.00025   0.00000   0.01090   0.01067   0.15848
   D81       -2.99231  -0.00167   0.00000  -0.04122  -0.04108  -3.03339
         Item               Value     Threshold  Converged?
 Maximum Force            0.031686     0.000450     NO 
 RMS     Force            0.006608     0.000300     NO 
 Maximum Displacement     0.253130     0.001800     NO 
 RMS     Displacement     0.058724     0.001200     NO 
 Predicted change in Energy=-1.232794D-02
 GradGradGradGradGradGradGradGradGradGradGradGradGradGradGradGradGradGrad

                          Input orientation:                          
 ---------------------------------------------------------------------
 Center     Atomic      Atomic             Coordinates (Angstroms)
 Number     Number       Type             X           Y           Z
 ---------------------------------------------------------------------
      1          8           0       -3.541396   -1.096036   -0.852587
      2          7           0       -3.124213   -0.257688   -0.039234
      3          8           0       -3.830840    0.502870    0.641079
      4          6           0       -1.678409   -0.028241   -0.017187
      5          6           0       -1.320737    1.257205    0.250776
      6          7           0       -0.073312    1.749829    0.366750
      7          6           0        1.192641    1.010557    0.356207
      8          1           0        1.826966    1.545611    1.081749
      9          6           0        1.916375    1.026939   -0.986658
     10          6           0        3.320003    0.437082   -0.808133
     11          6           0        3.266292   -0.960803   -0.181050
     12          6           0        2.452552   -0.969978    1.112835
     13          6           0        1.039916   -0.427162    0.862491
     14          1           0        0.474572   -0.420596    1.807138
     15          7           0        0.403239   -1.336833   -0.084146
     16          6           0       -0.838969   -1.156368   -0.377642
     17          1           0       -2.117165    1.978536    0.418774
     18          1           0        0.046670    2.747194    0.219961
     19          1           0        1.346643    0.438033   -1.714093
     20          1           0        1.975506    2.056632   -1.364462
     21          1           0        3.827209    0.397288   -1.778698
     22          1           0        3.908854    1.104667   -0.163425
     23          1           0        2.801148   -1.657550   -0.887047
     24          1           0        4.281372   -1.325544    0.016930
     25          1           0        2.378988   -1.990168    1.505482
     26          1           0        2.946677   -0.356066    1.877702
     27          1           0       -1.323590   -1.906401   -1.005522
 ---------------------------------------------------------------------
                    Distance matrix (angstroms):
                    1          2          3          4          5
     1  O    0.000000
     2  N    1.240327   0.000000
     3  O    2.207106   1.241207   0.000000
     4  C    2.304083   1.464063   2.312651   0.000000
     5  C    3.418548   2.373084   2.649900   1.360920   0.000000
     6  N    4.649015   3.674635   3.968524   2.425959   1.346180
     7  C    5.320716   4.516641   5.057100   3.075947   2.527652
     8  H    6.288025   5.387268   5.769945   3.996539   3.268292
     9  C    5.857667   5.287287   5.996220   3.869851   3.473206
    10  C    7.030734   6.527008   7.296513   5.081952   4.830151
    11  C    6.842066   6.430633   7.292978   5.034540   5.113401
    12  C    6.309214   5.738895   6.470923   4.385049   4.465557
    13  C    4.937337   4.264011   4.963693   2.884832   2.963776
    14  H    4.863986   4.048071   4.555114   2.849111   2.908680
    15  N    4.025995   3.689104   4.673103   2.459707   3.132619
    16  C    2.744508   2.478807   3.569616   1.451640   2.540146
    17  H    3.619086   2.494918   2.272376   2.099934   1.087584
    18  H    5.366096   4.376185   4.499934   3.276457   2.022577
    19  H    5.195044   4.824700   5.688354   3.499691   3.412722
    20  H    6.374758   5.754949   6.336404   4.417345   3.756767
    21  H    7.575225   7.195623   8.031947   5.796190   5.599961
    22  H    7.798991   7.164877   7.804630   5.702838   5.248186
    23  H    6.367445   6.147219   7.140438   4.845383   5.174976
    24  H    7.874289   7.482390   8.339103   6.099438   6.173241
    25  H    6.435130   5.972675   6.747177   4.757115   5.080126
    26  H    7.077932   6.367104   6.942747   5.008941   4.843589
    27  H    2.366166   2.625683   3.847361   2.151787   3.403923
                    6          7          8          9         10
     6  N    0.000000
     7  C    1.466040   0.000000
     8  H    2.040584   1.102299   0.000000
     9  C    2.512596   1.525564   2.134319   0.000000
    10  C    3.823381   2.492033   2.651348   1.532962   0.000000
    11  C    4.335962   2.911174   3.154113   2.534245   1.533037
    12  C    3.786024   2.466248   2.592395   2.946698   2.534247
    13  C    2.494860   1.531889   2.135265   2.510367   2.955791
    14  H    2.661887   2.160792   2.494220   3.461134   3.958754
    15  N    3.155613   2.515414   3.419765   2.948139   3.489763
    16  C    3.096181   3.059663   4.066660   3.567864   4.474534
    17  H    2.057267   3.449016   4.022826   4.376097   5.783094
    18  H    1.015223   2.085119   2.314289   2.812651   4.136219
    19  H    2.840244   2.153518   3.045352   1.095704   2.171385
    20  H    2.699792   2.160522   2.503429   1.098409   2.177181
    21  H    4.652567   3.445992   3.674476   2.162192   1.095827
    22  H    4.068779   2.767071   2.465592   2.157249   1.099119
    23  H    4.630849   3.354366   3.883997   2.828290   2.159380
    24  H    5.342618   3.887510   3.924472   3.483471   2.170671
    25  H    4.614982   3.425288   3.603611   3.940520   3.482796
    26  H    3.979712   2.694299   2.345991   3.343468   2.825273
    27  H    4.100530   4.085874   5.118505   4.370608   5.205174
                   11         12         13         14         15
    11  C    0.000000
    12  C    1.528527   0.000000
    13  C    2.516049   1.533904   0.000000
    14  H    3.469642   2.167090   1.100916   0.000000
    15  N    2.889266   2.401464   1.459102   2.102745   0.000000
    16  C    4.114616   3.618062   2.366406   2.653303   1.289104
    17  H    6.162882   5.482496   3.993924   3.794798   4.194883
    18  H    4.927070   4.516952   3.387613   3.568911   4.110827
    19  H    2.827015   3.346199   2.735220   3.727844   2.587834
    20  H    3.488769   3.940170   3.464662   4.295173   3.953080
    21  H    2.170603   3.481388   3.927416   4.976678   4.195503
    22  H    2.163183   2.837923   3.410251   4.243093   4.272767
    23  H    1.095558   2.143316   2.770682   3.768507   2.549015
    24  H    1.096640   2.161485   3.468299   4.302964   3.879466
    25  H    2.165939   1.095614   2.156279   2.486232   2.618653
    26  H    2.169405   1.098211   2.161353   2.473953   3.358545
    27  H    4.758249   4.429850   3.356155   3.654048   2.038451
                   16         17         18         19         20
    16  C    0.000000
    17  H    3.477886   0.000000
    18  H    4.047133   2.304895   0.000000
    19  H    3.017468   4.349740   3.280659   0.000000
    20  H    4.383886   4.464973   2.589919   1.771320   0.000000
    21  H    5.113709   6.531830   4.879464   2.481741   2.520678
    22  H    5.263078   6.116821   4.214421   3.068207   2.467096
    23  H    3.709600   6.254286   5.311722   2.681615   3.834679
    24  H    5.138307   7.212468   5.878870   3.836571   4.320229
    25  H    3.820553   6.094828   5.434599   4.162638   4.977546
    26  H    4.478635   5.763795   4.559426   4.011444   4.156431
    27  H    1.091623   4.213208   5.003535   3.623339   5.168994
                   21         22         23         24         25
    21  H    0.000000
    22  H    1.765265   0.000000
    23  H    2.463778   3.062758   0.000000
    24  H    2.529564   2.465202   1.765918   0.000000
    25  H    4.310815   3.834545   2.452152   2.505309   0.000000
    26  H    3.835640   2.688070   3.059228   2.486718   1.769493
    27  H    5.695218   6.095419   4.133937   5.726989   4.474510
                   26         27
    26  H    0.000000
    27  H    5.380678   0.000000
 Symmetry turned off by external request.
 Stoichiometry    C9H13N3O2
 Framework group  C1[X(C9H13N3O2)]
 Deg. of freedom    75
 Full point group                 C1      NOp   1
 Rotational constants (GHZ):           1.6882130           0.4157180           0.3770859
 Standard basis: 6-31G(d) (6D, 7F)
   236 basis functions,   444 primitive gaussians,   236 cartesian basis functions
    52 alpha electrons       52 beta electrons
       nuclear repulsion energy       931.8439171883 Hartrees.
 NAtoms=   27 NActive=   27 NUniq=   27 SFac= 1.00D+00 NAtFMM=   60 NAOKFM=F Big=F
 Integral buffers will be    131072 words long.
 Raffenetti 1 integral format.
 Two-electron integral symmetry is turned off.
 One-electron integrals computed using PRISM.
 NBasis=   236 RedAO= T EigKep=  1.39D-03  NBF=   236
 NBsUse=   236 1.00D-06 EigRej= -1.00D+00 NBFU=   236
 Initial guess from the checkpoint file:  "/home/alexey/tmp/Gau-1119968.chk"
 B after Tr=     0.050075    0.009440   -0.006766
         Rot=    0.999994    0.001219    0.002587    0.002078 Ang=   0.41 deg.
 ExpMin= 1.61D-01 ExpMax= 5.48D+03 ExpMxC= 8.25D+02 IAcc=3 IRadAn=         5 AccDes= 0.00D+00
 Harris functional with IExCor=  205 and IRadAn=       5 diagonalized for initial guess.
 HarFok:  IExCor=  205 AccDes= 0.00D+00 IRadAn=         5 IDoV= 1 UseB2=F ITyADJ=14
 ICtDFT=  3500011 ScaDFX=  1.000000  1.000000  1.000000  1.000000
 FoFCou: FMM=F IPFlag=           0 FMFlag=      100000 FMFlg1=           0
         NFxFlg=           0 DoJE=T BraDBF=F KetDBF=T FulRan=T
         wScrn=  0.000000 ICntrl=       500 IOpCl=  0 I1Cent=   200000004 NGrid=           0
         NMat0=    1 NMatS0=      1 NMatT0=    0 NMatD0=    1 NMtDS0=    0 NMtDT0=    0
 Symmetry not used in FoFCou.
 Keep R1 ints in memory in canonical form, NReq=397720213.
 Requested convergence on RMS density matrix=1.00D-08 within 128 cycles.
 Requested convergence on MAX density matrix=1.00D-06.
 Requested convergence on             energy=1.00D-06.
 No special actions if energy rises.
 SCF Done:  E(RHF) =  -661.294624291     A.U. after   15 cycles
            NFock= 15  Conv=0.70D-08     -V/T= 2.0024
 ExpMin= 1.61D-01 ExpMax= 5.48D+03 ExpMxC= 8.25D+02 IAcc=3 IRadAn=         5 AccDes= 0.00D+00
 HarFok:  IExCor=  205 AccDes= 0.00D+00 IRadAn=         5 IDoV=-2 UseB2=F ITyADJ=14
 ICtDFT= 12500011 ScaDFX=  1.000000  1.000000  1.000000  1.000000
 Range of M.O.s used for correlation:    15   236
 NBasis=   236 NAE=    52 NBE=    52 NFC=    14 NFV=     0
 NROrb=    222 NOA=    38 NOB=    38 NVA=   184 NVB=   184
 Fully direct method using O(ONN) memory.
 JobTyp=1 Pass  1:  I=  15 to  52 NPSUse=  4 ParTrn=T ParDer=T DoDerP=T.
 Spin components of T(2) and E(2):
     alpha-alpha T2 =       0.9138971097D-01 E2=     -0.2725298076D+00
     alpha-beta  T2 =       0.4924401920D+00 E2=     -0.1489356703D+01
     beta-beta   T2 =       0.9138971097D-01 E2=     -0.2725298076D+00
 ANorm=    0.1294302752D+01
 E2 =    -0.2034416318D+01 EUMP2 =    -0.66332904060891D+03
          IDoAtm=111111111111111111111111111
          Differentiating once with respect to electric field.
                with respect to dipole field.
          Differentiating once with respect to nuclear coordinates.
 Keep R1 ints in memory in canonical form, NReq=397723379.
          There are     1 degrees of freedom in the 1st order CPHF.  IDoFFX=0 NUNeed=     1.
 LinEq1:  Iter=  0 NonCon=     1 RMS=4.55D-03 Max=1.25D-01 NDo=     1
 AX will form     1 AO Fock derivatives at one time.
 LinEq1:  Iter=  1 NonCon=     1 RMS=1.53D-03 Max=3.14D-02 NDo=     1
 LinEq1:  Iter=  2 NonCon=     1 RMS=6.42D-04 Max=1.96D-02 NDo=     1
 LinEq1:  Iter=  3 NonCon=     1 RMS=2.80D-04 Max=7.02D-03 NDo=     1
 LinEq1:  Iter=  4 NonCon=     1 RMS=8.74D-05 Max=1.74D-03 NDo=     1
 LinEq1:  Iter=  5 NonCon=     1 RMS=3.62D-05 Max=1.56D-03 NDo=     1
 LinEq1:  Iter=  6 NonCon=     1 RMS=1.46D-05 Max=5.12D-04 NDo=     1
[...]
                   16         17         18         19         20
    16  C    0.000000
    17  H    3.469942   0.000000
    18  H    4.097147   2.234341   0.000000
    19  H    2.997088   4.336799   3.522245   0.000000
    20  H    4.385034   4.487937   2.899633   1.768447   0.000000
    21  H    5.099797   6.536052   5.098859   2.499446   2.521384
    22  H    5.254280   6.109035   4.322562   3.070374   2.462215
    23  H    3.690714   6.236213   5.423875   2.703529   3.842766
    24  H    5.131678   7.194657   5.939861   3.849178   4.317473
    25  H    3.818729   6.055481   5.363150   4.171718   4.985316
    26  H    4.496119   5.748343   4.477709   4.033970   4.180453
    27  H    1.090530   4.231637   5.094135   3.604178   5.169641
                   21         22         23         24         25
    21  H    0.000000
    22  H    1.758858   0.000000
    23  H    2.469685   3.062378   0.000000
    24  H    2.517209   2.460117   1.764466   0.000000
    25  H    4.312031   3.838906   2.444640   2.519204   0.000000
    26  H    3.845837   2.703030   3.060468   2.493034   1.768102
    27  H    5.668132   6.074331   4.094748   5.698446   4.451779
                   26         27
    26  H    0.000000
    27  H    5.381162   0.000000
 Symmetry turned off by external request.
 Stoichiometry    C9H13N3O2
 Framework group  C1[X(C9H13N3O2)]
 Deg. of freedom    75
 Full point group                 C1      NOp   1
 Rotational constants (GHZ):           1.6791870           0.4142325           0.3776786

 **********************************************************************

            Population analysis using the SCF Density.

 **********************************************************************

 Alpha  occ. eigenvalues --  -20.59572 -20.59491 -15.84838 -15.63728 -15.56184
 Alpha  occ. eigenvalues --  -11.34929 -11.29687 -11.29501 -11.28682 -11.27109
 Alpha  occ. eigenvalues --  -11.23600 -11.23129 -11.22644 -11.22043  -1.57352
 Alpha  occ. eigenvalues --   -1.37009  -1.30685  -1.23063  -1.14716  -1.09830
 Alpha  occ. eigenvalues --   -1.02717  -1.01225  -0.94481  -0.89748  -0.85450
 Alpha  occ. eigenvalues --   -0.82517  -0.78505  -0.77573  -0.75111  -0.72024
 Alpha  occ. eigenvalues --   -0.70258  -0.68990  -0.67811  -0.64888  -0.63723
 Alpha  occ. eigenvalues --   -0.62243  -0.60395  -0.57664  -0.56885  -0.54990
 Alpha  occ. eigenvalues --   -0.54456  -0.50870  -0.50088  -0.48938  -0.48110
 Alpha  occ. eigenvalues --   -0.47603  -0.46356  -0.45880  -0.43765  -0.41722
 Alpha  occ. eigenvalues --   -0.39812  -0.33584
 Alpha virt. eigenvalues --    0.07852   0.11414   0.17434   0.21816   0.23799
 Alpha virt. eigenvalues --    0.24964   0.26808   0.28434   0.29145   0.29472
 Alpha virt. eigenvalues --    0.30649   0.31848   0.32018   0.32806   0.34042
 Alpha virt. eigenvalues --    0.34418   0.35841   0.37428   0.38675   0.40165
 Alpha virt. eigenvalues --    0.41154   0.42595   0.45458   0.46156   0.46981
 Alpha virt. eigenvalues --    0.47552   0.48670   0.53921   0.57835   0.59545
 Alpha virt. eigenvalues --    0.63284   0.69770   0.69986   0.72761   0.74362
 Alpha virt. eigenvalues --    0.74655   0.75825   0.76520   0.78600   0.79892
 Alpha virt. eigenvalues --    0.80063   0.84561   0.85657   0.86017   0.88678
 Alpha virt. eigenvalues --    0.89499   0.91104   0.91943   0.92966   0.94160
 Alpha virt. eigenvalues --    0.95662   0.97767   1.00043   1.01412   1.02508
 Alpha virt. eigenvalues --    1.03463   1.06121   1.06600   1.07962   1.08971
 Alpha virt. eigenvalues --    1.09186   1.11133   1.11893   1.12792   1.13993
 Alpha virt. eigenvalues --    1.14689   1.14822   1.15732   1.16967   1.18386
 Alpha virt. eigenvalues --    1.18935   1.19493   1.21493   1.22961   1.23483
 Alpha virt. eigenvalues --    1.24851   1.25336   1.27900   1.28162   1.30304
 Alpha virt. eigenvalues --    1.31805   1.34440   1.34969   1.36947   1.38704
 Alpha virt. eigenvalues --    1.41140   1.45435   1.46450   1.48933   1.51988
 Alpha virt. eigenvalues --    1.55338   1.56769   1.60025   1.63417   1.66642
 Alpha virt. eigenvalues --    1.67637   1.68268   1.72087   1.73812   1.77326
 Alpha virt. eigenvalues --    1.78208   1.84941   1.86395   1.89921   1.91163
 Alpha virt. eigenvalues --    1.93058   1.95860   1.99691   2.01882   2.02300
 Alpha virt. eigenvalues --    2.03729   2.06126   2.08427   2.08992   2.13800
 Alpha virt. eigenvalues --    2.14258   2.15743   2.19163   2.20145   2.22539
 Alpha virt. eigenvalues --    2.24531   2.25188   2.25516   2.28252   2.29671
 Alpha virt. eigenvalues --    2.31292   2.33604   2.35426   2.36051   2.38846
 Alpha virt. eigenvalues --    2.39017   2.41239   2.43224   2.45341   2.46694
 Alpha virt. eigenvalues --    2.49751   2.51857   2.53349   2.55459   2.60901
 Alpha virt. eigenvalues --    2.62277   2.65326   2.68502   2.69684   2.70471
 Alpha virt. eigenvalues --    2.71783   2.72649   2.74302   2.78000   2.86709
 Alpha virt. eigenvalues --    2.89458   2.90161   2.91256   2.93661   2.95530
 Alpha virt. eigenvalues --    3.00439   3.00698   3.03400   3.05144   3.09072
 Alpha virt. eigenvalues --    3.09275   3.14808   3.20471   3.21883   3.25111
 Alpha virt. eigenvalues --    3.32831   3.37330   3.38764   3.48926   3.65487
 Alpha virt. eigenvalues --    4.10344   4.24438   4.26832   4.37181   4.47033
 Alpha virt. eigenvalues --    4.55981   4.61992   4.62746   4.73791   4.78831
 Alpha virt. eigenvalues --    4.99180   5.00949   5.05322   5.10855
          Condensed to atoms (all electrons):
               1          2          3          4          5          6
     1  O    8.309812   0.301041  -0.079141  -0.082178   0.002426  -0.000021
     2  N    0.301041   5.757870   0.303234   0.238996  -0.046998   0.001351
     3  O   -0.079141   0.303234   8.327128  -0.090853   0.006603   0.000593
     4  C   -0.082178   0.238996  -0.090853   5.243499   0.560104  -0.051327
     5  C    0.002426  -0.046998   0.006603   0.560104   4.691819   0.324013
     6  N   -0.000021   0.001351   0.000593  -0.051327   0.324013   7.190082
     7  C   -0.000001  -0.000132   0.000008   0.003045  -0.033568   0.174828
     8  H   -0.000000   0.000002  -0.000000  -0.000225   0.002985  -0.050674
     9  C   -0.000000  -0.000005   0.000000   0.000918   0.000865  -0.061678
    10  C   -0.000000   0.000000  -0.000000  -0.000034  -0.000060   0.003726
    11  C   -0.000000  -0.000000  -0.000000  -0.000038   0.000024  -0.000192
    12  C    0.000000   0.000002  -0.000000  -0.000088  -0.000139   0.003917
    13  C   -0.000004  -0.000064  -0.000010  -0.011461   0.000048  -0.049178
    14  H    0.000001  -0.000095  -0.000005   0.002772   0.007010  -0.007209
    15  N    0.000476   0.002276  -0.000013  -0.063989  -0.007541   0.002248
    16  C    0.002834  -0.027664   0.002486   0.327934  -0.046294  -0.001854
    17  H    0.000161  -0.005092   0.012442  -0.031243   0.382405  -0.033563
    18  H    0.000001  -0.000059   0.000008   0.001902  -0.030295   0.337832
    19  H    0.000001  -0.000003   0.000000  -0.001094   0.001135  -0.000243
    20  H    0.000000  -0.000000   0.000000  -0.000091   0.000167  -0.000420
    21  H   -0.000000   0.000000   0.000000   0.000001   0.000001  -0.000075
    22  H    0.000000   0.000000  -0.000000  -0.000000  -0.000003  -0.000116
    23  H    0.000000  -0.000000   0.000000   0.000041   0.000001  -0.000031
    24  H    0.000000   0.000000   0.000000   0.000000  -0.000000   0.000006
    25  H    0.000000  -0.000000   0.000000   0.000025   0.000000  -0.000093
    26  H    0.000000  -0.000000   0.000000   0.000006  -0.000003  -0.000056
    27  H    0.007067  -0.000632   0.000059  -0.062680   0.002128  -0.000007
               7          8          9         10         11         12
     1  O   -0.000001  -0.000000  -0.000000  -0.000000  -0.000000   0.000000
     2  N   -0.000132   0.000002  -0.000005   0.000000  -0.000000   0.000002
     3  O    0.000008  -0.000000   0.000000  -0.000000  -0.000000  -0.000000
     4  C    0.003045  -0.000225   0.000918  -0.000034  -0.000038  -0.000088
     5  C   -0.033568   0.002985   0.000865  -0.000060   0.000024  -0.000139
     6  N    0.174828  -0.050674  -0.061678   0.003726  -0.000192   0.003917
     7  C    5.014323   0.418254   0.350349  -0.054715  -0.008942  -0.061690
     8  H    0.418254   0.538945  -0.055202   0.000740  -0.000305  -0.002251
     9  C    0.350349  -0.055202   5.158161   0.324595  -0.050457  -0.005237
    10  C   -0.054715   0.000740   0.324595   5.119992   0.336930  -0.061008
    11  C   -0.008942  -0.000305  -0.050457   0.336930   5.120506   0.335986
    12  C   -0.061690  -0.002251  -0.005237  -0.061008   0.335986   5.119640
    13  C    0.339765  -0.037705  -0.060673  -0.000284  -0.050799   0.371666
    14  H   -0.046403  -0.000691   0.004396  -0.000398   0.004180  -0.036127
    15  N   -0.059217   0.003911  -0.014400   0.001654  -0.013233  -0.082647
    16  C   -0.000796  -0.000081  -0.000863  -0.000047   0.000065   0.002507
    17  H    0.001842  -0.000052  -0.000080   0.000001   0.000000   0.000000
    18  H   -0.021438  -0.004442   0.001366  -0.000084   0.000004  -0.000116
    19  H   -0.036760   0.004372   0.390384  -0.032310  -0.002221   0.000692
    20  H   -0.042028  -0.002011   0.399261  -0.035312   0.003929  -0.000412
    21  H    0.004586  -0.000078  -0.036299   0.402427  -0.034937   0.004348
    22  H   -0.004843   0.003572  -0.046854   0.397603  -0.045410  -0.001051
    23  H    0.000595   0.000035  -0.001963  -0.039061   0.399210  -0.038021
    24  H   -0.000132  -0.000100   0.004374  -0.038386   0.402281  -0.038635
    25  H    0.005153  -0.000021  -0.000431   0.004199  -0.033434   0.398164
    26  H   -0.003903   0.001656   0.000967  -0.002243  -0.041412   0.396636
    27  H   -0.000365   0.000008  -0.000051   0.000006   0.000013  -0.000031
              13         14         15         16         17         18
     1  O   -0.000004   0.000001   0.000476   0.002834   0.000161   0.000001
     2  N   -0.000064  -0.000095   0.002276  -0.027664  -0.005092  -0.000059
     3  O   -0.000010  -0.000005  -0.000013   0.002486   0.012442   0.000008
     4  C   -0.011461   0.002772  -0.063989   0.327934  -0.031243   0.001902
     5  C    0.000048   0.007010  -0.007541  -0.046294   0.382405  -0.030295
     6  N   -0.049178  -0.007209   0.002248  -0.001854  -0.033563   0.337832
     7  C    0.339765  -0.046403  -0.059217  -0.000796   0.001842  -0.021438
     8  H   -0.037705  -0.000691   0.003911  -0.000081  -0.000052  -0.004442
     9  C   -0.060673   0.004396  -0.014400  -0.000863  -0.000080   0.001366
    10  C   -0.000284  -0.000398   0.001654  -0.000047   0.000001  -0.000084
    11  C   -0.050799   0.004180  -0.013233   0.000065   0.000000   0.000004
    12  C    0.371666  -0.036127  -0.082647   0.002507   0.000000  -0.000116
    13  C    5.040547   0.403077   0.247266  -0.069846  -0.000014   0.002976
    14  H    0.403077   0.525812  -0.037133  -0.005863   0.000102  -0.000097
    15  N    0.247266  -0.037133   6.963856   0.583644  -0.000072  -0.000128
    16  C   -0.069846  -0.005863   0.583644   4.714900   0.001739  -0.000156
    17  H   -0.000014   0.000102  -0.000072   0.001739   0.391112  -0.003090
    18  H    0.002976  -0.000097  -0.000128  -0.000156  -0.003090   0.312294
    19  H   -0.007618   0.000108   0.007653   0.002607   0.000016  -0.000144
    20  H    0.004347  -0.000067   0.000129  -0.000040   0.000003   0.000752
    21  H   -0.000428   0.000010  -0.000042   0.000004  -0.000000   0.000001
    22  H    0.000041  -0.000054   0.000022  -0.000002   0.000000   0.000001
    23  H   -0.007597   0.000003   0.008634   0.000114   0.000000   0.000000
    24  H    0.004698  -0.000057   0.000130   0.000007   0.000000  -0.000000
    25  H   -0.035614  -0.002807   0.000496  -0.000028  -0.000000   0.000002
    26  H   -0.047291  -0.001049   0.004913  -0.000060   0.000000  -0.000000
    27  H    0.004873  -0.000192  -0.039832   0.403162  -0.000083   0.000001
              19         20         21         22         23         24
     1  O    0.000001   0.000000  -0.000000   0.000000   0.000000   0.000000
     2  N   -0.000003  -0.000000   0.000000   0.000000  -0.000000   0.000000
     3  O    0.000000   0.000000   0.000000  -0.000000   0.000000   0.000000
     4  C   -0.001094  -0.000091   0.000001  -0.000000   0.000041   0.000000
     5  C    0.001135   0.000167   0.000001  -0.000003   0.000001  -0.000000
     6  N   -0.000243  -0.000420  -0.000075  -0.000116  -0.000031   0.000006
     7  C   -0.036760  -0.042028   0.004586  -0.004843   0.000595  -0.000132
     8  H    0.004372  -0.002011  -0.000078   0.003572   0.000035  -0.000100
     9  C    0.390384   0.399261  -0.036299  -0.046854  -0.001963   0.004374
    10  C   -0.032310  -0.035312   0.402427   0.397603  -0.039061  -0.038386
    11  C   -0.002221   0.003929  -0.034937  -0.045410   0.399210   0.402281
    12  C    0.000692  -0.000412   0.004348  -0.001051  -0.038021  -0.038635
    13  C   -0.007618   0.004347  -0.000428   0.000041  -0.007597   0.004698
    14  H    0.000108  -0.000067   0.000010  -0.000054   0.000003  -0.000057
    15  N    0.007653   0.000129  -0.000042   0.000022   0.008634   0.000130
    16  C    0.002607  -0.000040   0.000004  -0.000002   0.000114   0.000007
    17  H    0.000016   0.000003  -0.000000   0.000000   0.000000   0.000000
    18  H   -0.000144   0.000752   0.000001   0.000001   0.000000  -0.000000
    19  H    0.505110  -0.024584  -0.002783   0.003965   0.001526  -0.000066
    20  H   -0.024584   0.540615  -0.002692  -0.002976  -0.000046  -0.000083
    21  H   -0.002783  -0.002692   0.524290  -0.027444  -0.002903  -0.002244
    22  H    0.003965  -0.002976  -0.027444   0.571595   0.004142  -0.003646
    23  H    0.001526  -0.000046  -0.002903   0.004142   0.499506  -0.025477
    24  H   -0.000066  -0.000083  -0.002244  -0.003646  -0.025477   0.538315
    25  H   -0.000028   0.000013  -0.000087  -0.000080  -0.002307  -0.002307
    26  H    0.000020  -0.000030  -0.000081   0.002380   0.004070  -0.003017
    27  H    0.000073   0.000000  -0.000000   0.000000  -0.000035  -0.000000
              25         26         27
     1  O    0.000000   0.000000   0.007067
     2  N   -0.000000  -0.000000  -0.000632
     3  O    0.000000   0.000000   0.000059
     4  C    0.000025   0.000006  -0.062680
     5  C    0.000000  -0.000003   0.002128
     6  N   -0.000093  -0.000056  -0.000007
     7  C    0.005153  -0.003903  -0.000365
     8  H   -0.000021   0.001656   0.000008
     9  C   -0.000431   0.000967  -0.000051
    10  C    0.004199  -0.002243   0.000006
    11  C   -0.033434  -0.041412   0.000013
    12  C    0.398164   0.396636  -0.000031
    13  C   -0.035614  -0.047291   0.004873
    14  H   -0.002807  -0.001049  -0.000192
    15  N    0.000496   0.004913  -0.039832
    16  C   -0.000028  -0.000060   0.403162
    17  H   -0.000000   0.000000  -0.000083
    18  H    0.000002  -0.000000   0.000001
    19  H   -0.000028   0.000020   0.000073
    20  H    0.000013  -0.000030   0.000000
    21  H   -0.000087  -0.000081  -0.000000
    22  H   -0.000080   0.002380   0.000000
    23  H   -0.002307   0.004070  -0.000035
    24  H   -0.002307  -0.003017  -0.000000
    25  H    0.506995  -0.024114  -0.000013
    26  H   -0.024114   0.562193   0.000001
    27  H   -0.000013   0.000001   0.434137
 Mulliken charges:
               1
     1  O   -0.462474
     2  N    0.475972
     3  O   -0.482539
     4  C    0.016060
     5  C    0.183169
     6  N   -0.781860
     7  C    0.062185
     8  H    0.179361
     9  C   -0.301444
    10  C   -0.327931
    11  C   -0.321747
    12  C   -0.306104
    13  C   -0.040716
    14  H    0.190775
    15  N   -0.509061
    16  C    0.111594
    17  H    0.283467
    18  H    0.402910
    19  H    0.190194
    20  H    0.161576
    21  H    0.174424
    22  H    0.149159
    23  H    0.199563
    24  H    0.164339
    25  H    0.186316
    26  H    0.150416
    27  H    0.252394
 Sum of Mulliken charges =  -0.00000
 Mulliken charges with hydrogens summed into heavy atoms:
               1
     1  O   -0.462474
     2  N    0.475972
     3  O   -0.482539
     4  C    0.016060
     5  C    0.466636
     6  N   -0.378950
     7  C    0.241546
     9  C    0.050326
    10  C   -0.004348
    11  C    0.042155
    12  C    0.030629
    13  C    0.150060
    15  N   -0.509061
    16  C    0.363988
 Electronic spatial extent (au):  <R**2>=           3000.3057
 Charge=             -0.0000 electrons
 Dipole moment (field-independent basis, Debye):
    X=              5.1613    Y=              4.6289    Z=              1.2506  Tot=              7.0449
 Quadrupole moment (field-independent basis, Debye-Ang):
   XX=           -105.0728   YY=            -77.0298   ZZ=            -84.0462
   XY=             -1.7416   XZ=              0.1343   YZ=              0.3160
 Traceless Quadrupole moment (field-independent basis, Debye-Ang):
   XX=            -16.3565   YY=             11.6865   ZZ=              4.6701
   XY=             -1.7416   XZ=              0.1343   YZ=              0.3160
 Octapole moment (field-independent basis, Debye-Ang**2):
  XXX=             86.4362  YYY=             33.3037  ZZZ=              0.2430  XYY=            -13.4008
  XXY=             11.2391  XXZ=              2.2152  XZZ=             -1.3028  YZZ=              0.4072
  YYZ=              8.1268  XYZ=              5.9822
 Hexadecapole moment (field-independent basis, Debye-Ang**3):
 XXXX=          -3352.6576 YYYY=           -559.4420 ZZZZ=           -344.4804 XXXY=            -33.6656
 XXXZ=              3.2260 YYYX=             -1.6555 YYYZ=             15.0102 ZZZX=             -0.6158
 ZZZY=             -3.7586 XXYY=           -590.7917 XXZZ=           -559.0288 YYZZ=           -159.2415
 XXYZ=            -27.1417 YYXZ=              0.0031 ZZXY=              0.0183
 N-N= 9.310368987484D+02 E-N=-3.408759915730D+03  KE= 6.596169500842D+02
 Unable to Open any file for archive entry.
 1\1\GINC-LOTUS\FOpt\RMP2-FC\6-31G(d)\C9H13N3O2\ALEXEY\30-Jun-2023\0\\#
 MP2/6-31G* SCF=Tight Opt=(ModRedun, MaxCycle=20 ) NoSymm\\MolName:\\0,
 1\O,-3.534466439,-1.0728001381,-0.9381478529\N,-3.1158357796,-0.238979
 1668,-0.1120930361\O,-3.8535064069,0.4480511779,0.6217578775\C,-1.6796
 323371,-0.0299813327,-0.0413322133\C,-1.3044464713,1.2514181682,0.2640
 728988\N,-0.0615130752,1.7584564077,0.3354894711\C,1.2044803003,1.0361
 681319,0.3308440617\H,1.8488750147,1.5827386153,1.0360216328\C,1.91378
 61227,1.0129600751,-1.0216425315\C,3.3111689937,0.4099616251,-0.836716
 4132\C,3.2595499609,-0.9700286766,-0.1756807047\C,2.4590800935,-0.9473
 589143,1.1282233305\C,1.0501362891,-0.4009908585,0.8692831965\H,0.4668
 075645,-0.3568885621,1.8025773505\N,0.4102646883,-1.3244041379,-0.0625
 87416\C,-0.836741469,-1.1586787012,-0.3700181627\H,-2.1014791479,1.970
 1397533,0.4370926556\H,-0.0093818159,2.7451843161,0.5583929166\H,1.322
 1335233,0.4176219392,-1.7254040509\H,1.9814117455,2.0308774944,-1.4251
 343462\H,3.8192943098,0.3472337331,-1.8058060381\H,3.9087986056,1.0914
 716144,-0.2146805514\H,2.7839876099,-1.683764886,-0.8557914743\H,4.277
 650109,-1.3300275465,0.0143709669\H,2.3727447704,-1.9589344145,1.53824
 81211\H,2.9649503444,-0.3289079764,1.8824710613\H,-1.3011271037,-1.937
 5277398,-0.9758207494\\Version=ES64L-G16RevC.02\HF=-661.2962791\MP2=-6
 63.3324942\RMSD=9.034e-09\RMSF=1.250e-03\Dipole=1.890336,1.6454347,0.4
 514886\PG=C01 [X(C9H13N3O2)]\\@
 The archive entry for this job was punched.


 IT IS A CAPITAL MISTAKE TO THEORIZE BEFORE ONE HAS
 DATA.  INSENSIBLY ONE BEGINS TO TWIST FACTS TO SUIT
 THEORIES RATHER THAN THEORIES TO SUIT FACTS.

                                         -- SHERLOCK HOLMES
 Job cpu time:       0 days  1 hours 22 minutes 19.6 seconds.
 Elapsed time:       0 days  0 hours 24 minutes 31.6 seconds.
 File lengths (MBytes):  RWF=     36 Int=      0 D2E=      0 Chk=      7 Scr=      1
 Normal termination of Gaussian 16 at Fri Jun 30 09:52:46 2023.
