 Entering Gaussian System, Link 0=g16
 Initial command:
 /home/alexey/programs//g16/l1.exe "/home/alexey/tmp/Gau-1116158.inp" -scrdir="/home/alexey/tmp/"
 Entering Link 1 = /home/alexey/programs//g16/l1.exe PID=   1116160.
  
 Copyright (c) 1988-2021, Gaussian, Inc.  All Rights Reserved.
  
 This is part of the Gaussian(R) 16 program.  It is based on
 the Gaussian(R) 09 system (copyright 2009, Gaussian, Inc.),
 the Gaussian(R) 03 system (copyright 2003, Gaussian, Inc.),
 the Gaussian(R) 98 system (copyright 1998, Gaussian, Inc.),
 the Gaussian(R) 94 system (copyright 1995, Gaussian, Inc.),
 the Gaussian 92(TM) system (copyright 1992, Gaussian, Inc.),
 the Gaussian 90(TM) system (copyright 1990, Gaussian, Inc.),
 the Gaussian 88(TM) system (copyright 1988, Gaussian, Inc.),
 the Gaussian 86(TM) system (copyright 1986, Carnegie Mellon
 University), and the Gaussian 82(TM) system (copyright 1983,
 Carnegie Mellon University). Gaussian is a federally registered
 trademark of Gaussian, Inc.
  
 This software contains proprietary and confidential information,
 including trade secrets, belonging to Gaussian, Inc.
  
 This software is provided under written license and may be
 used, copied, transmitted, or stored only in accord with that
 written license.
  
 The following legend is applicable only to US Government
 contracts under FAR:
  
                    RESTRICTED RIGHTS LEGEND
  
 Use, reproduction and disclosure by the US Government is
 subject to restrictions as set forth in subparagraphs (a)
 and (c) of the Commercial Computer Software - Restricted
 Rights clause in FAR 52.227-19.
  
 Gaussian, Inc.
 340 Quinnipiac St., Bldg. 40, Wallingford CT 06492
  
  
 ---------------------------------------------------------------
 Warning -- This program may not be used in any manner that
 competes with the business of Gaussian, Inc. or will provide
 assistance to any competitor of Gaussian, Inc.  The licensee
 of this program is prohibited from giving any competitor of
 Gaussian, Inc. access to this program.  By using this program,
 the user acknowledges that Gaussian, Inc. is engaged in the
 business of creating and licensing software in the field of
 computational chemistry and represents and warrants to the
 licensee that it is not a competitor of Gaussian, Inc. and that
 it will not use this program in any manner prohibited above.
 ---------------------------------------------------------------
  

 Cite this work as:
 Gaussian 16, Revision C.02,
 M. J. Frisch, G. W. Trucks, H. B. Schlegel, G. E. Scuseria, 
 M. A. Robb, J. R. Cheeseman, G. Scalmani, V. Barone, 
 G. A. Petersson, H. Nakatsuji, X. Li, M. Caricato, A. V. Marenich, 
 J. Bloino, B. G. Janesko, R. Gomperts, B. Mennucci, H. P. Hratchian, 
 J. V. Ortiz, A. F. Izmaylov, J. L. Sonnenberg, D. Williams-Young, 
 F. Ding, F. Lipparini, F. Egidi, J. Goings, B. Peng, A. Petrone, 
 T. Henderson, D. Ranasinghe, V. G. Zakrzewski, J. Gao, N. Rega, 
 G. Zheng, W. Liang, M. Hada, M. Ehara, K. Toyota, R. Fukuda, 
 J. Hasegawa, M. Ishida, T. Nakajima, Y. Honda, O. Kitao, H. Nakai, 
 T. Vreven, K. Throssell, J. A. Montgomery, Jr., J. E. Peralta, 
 F. Ogliaro, M. J. Bearpark, J. J. Heyd, E. N. Brothers, K. N. Kudin, 
 V. N. Staroverov, T. A. Keith, R. Kobayashi, J. Normand, 
 K. Raghavachari, A. P. Rendell, J. C. Burant, S. S. Iyengar, 
 J. Tomasi, M. Cossi, J. M. Millam, M. Klene, C. Adamo, R. Cammi, 
 J. W. Ochterski, R. L. Martin, K. Morokuma, O. Farkas, 
 J. B. Foresman, and D. J. Fox, Gaussian, Inc., Wallingford CT, 2019.
 
 ******************************************
 Gaussian 16:  ES64L-G16RevC.02  7-Dec-2021
                30-Jun-2023 
 ******************************************
 %mem=8GB
 %NPROCS=4
 Will use up to    4 processors via shared memory.
 %NoSave
 ---------------------------------------------------------
 #MP2/6-31G* SCF=Tight Opt=(ModRedun, MaxCycle=20 ) NoSymm
 ---------------------------------------------------------
 1/6=20,18=120,19=15,38=1/1,3;
 2/9=110,12=2,15=1,17=6,18=5,40=1/2;
 3/5=1,6=6,7=1,11=9,25=1,30=1,71=1/1,2,3;
 4//1;
 5/5=2,32=2,38=5/2;
 8/6=4,10=2/1;
 9/15=2,16=-3/6;
 10/5=1,31=1/2;
 6/7=2,8=2,9=2,10=2/1;
 7/12=2,30=1/1,2,3,16;
 1/6=20,18=20,19=15/3(2);
 2/9=110,15=1/2;
 99//99;
 2/9=110,15=1/2;
 3/5=1,6=6,7=1,11=9,25=1,30=1,71=1/1,2,3;
 4/5=5,16=3,69=1/1;
 5/5=2,32=2,38=5/2;
 8/6=4,10=2/1;
 9/15=2,16=-3/6;
 10/5=1,31=1/2;
 7/12=2,30=1/1,2,3,16;
 1/6=20,18=20,19=15/3(-8);
 2/9=110,15=1/2;
 6/7=2,8=2,9=2,10=2/1;
 99/9=10/99;
 --------
 MolName:
 --------
 Symbolic Z-matrix:
 Charge =  0 Multiplicity = 1
 8                    0    -3.65885  -1.24266  -0.66681 
 7                    0    -3.25029  -0.27522  -0.02717 
 8                    0    -3.97271   0.46501   0.64106 
 6                    0    -1.75444   0.00196  -0.04347 
 6                    0    -1.3725    1.31603   0.24512 
 7                    0    -0.08525   1.7741    0.35613 
 6                    0     1.19434   1.00125   0.34407 
 1                    0     1.85528   1.51157   1.09197 
 6                    0     1.96341   1.03099  -1.00031 
 6                    0     3.37497   0.44824  -0.79673 
 6                    0     3.31155  -0.95801  -0.17989 
 6                    0     2.45892  -0.97127   1.10722 
 6                    0     1.02255  -0.44034   0.84703 
 1                    0     0.47081  -0.46352   1.81603 
 7                    0     0.37006  -1.32672  -0.12011 
 6                    0    -0.87059  -1.13005  -0.42494 
 1                    0    -2.16506   2.05539   0.44882 
 1                    0     0.14652   2.75446   0.17891 
 1                    0     1.41673   0.44169  -1.76697 
 1                    0     2.05056   2.0752   -1.36867 
 1                    0     3.91297   0.40881  -1.76914 
 1                    0     3.9495    1.11334  -0.11394 
 1                    0     2.86712  -1.65946  -0.92166 
 1                    0     4.33891  -1.31789   0.04644 
 1                    0     2.39982  -2.01143   1.49616 
 1                    0     2.95009  -0.34725   1.88303 
 1                    0    -1.36842  -1.88923  -1.04721 
 
 The following ModRedundant input section has been read:
 D       1       2       4      16 F                                           
 D       7      13      15      16 F                                           
 D       7       9      10      11 F                                           
 D       9      10      11      12 F                                           
 D       6       7      13      15 F                                           
 

 GradGradGradGradGradGradGradGradGradGradGradGradGradGradGradGradGradGrad
 Berny optimization.
 Initialization pass.
                           ----------------------------
                           !    Initial Parameters    !
                           ! (Angstroms and Degrees)  !
 --------------------------                            --------------------------
 ! Name  Definition              Value          Derivative Info.                !
 --------------------------------------------------------------------------------
 ! R1    R(1,2)                  1.2296         estimate D2E/DX2                !
 ! R2    R(2,3)                  1.2314         estimate D2E/DX2                !
 ! R3    R(2,4)                  1.5214         estimate D2E/DX2                !
 ! R4    R(4,5)                  1.3986         estimate D2E/DX2                !
 ! R5    R(4,16)                 1.486          estimate D2E/DX2                !
 ! R6    R(5,6)                  1.3708         estimate D2E/DX2                !
 ! R7    R(5,17)                 1.1029         estimate D2E/DX2                !
 ! R8    R(6,7)                  1.4949         estimate D2E/DX2                !
 ! R9    R(6,18)                 1.0229         estimate D2E/DX2                !
 ! R10   R(7,8)                  1.121          estimate D2E/DX2                !
 ! R11   R(7,9)                  1.5491         estimate D2E/DX2                !
 ! R12   R(7,13)                 1.5364         estimate D2E/DX2                !
 ! R13   R(9,10)                 1.5406         estimate D2E/DX2                !
 ! R14   R(9,19)                 1.1108         estimate D2E/DX2                !
 ! R15   R(9,20)                 1.1107         estimate D2E/DX2                !
 ! R16   R(10,11)                1.5369         estimate D2E/DX2                !
 ! R17   R(10,21)                1.112          estimate D2E/DX2                !
 ! R18   R(10,22)                1.1129         estimate D2E/DX2                !
 ! R19   R(11,12)                1.544          estimate D2E/DX2                !
 ! R20   R(11,23)                1.1135         estimate D2E/DX2                !
 ! R21   R(11,24)                1.1118         estimate D2E/DX2                !
 ! R22   R(12,13)                1.5533         estimate D2E/DX2                !
 ! R23   R(12,25)                1.1121         estimate D2E/DX2                !
 ! R24   R(12,26)                1.1102         estimate D2E/DX2                !
 ! R25   R(13,14)                1.1153         estimate D2E/DX2                !
 ! R26   R(13,15)                1.4652         estimate D2E/DX2                !
 ! R27   R(15,16)                1.2926         estimate D2E/DX2                !
 ! R28   R(16,27)                1.1006         estimate D2E/DX2                !
 ! A1    A(1,2,3)              124.0769         estimate D2E/DX2                !
 ! A2    A(1,2,4)              117.6745         estimate D2E/DX2                !
 ! A3    A(3,2,4)              118.2361         estimate D2E/DX2                !
 ! A4    A(2,4,5)              115.9433         estimate D2E/DX2                !
 ! A5    A(2,4,16)             116.6643         estimate D2E/DX2                !
 ! A6    A(5,4,16)             127.3232         estimate D2E/DX2                !
 ! A7    A(4,5,6)              125.9535         estimate D2E/DX2                !
 ! A8    A(4,5,17)             118.1487         estimate D2E/DX2                !
 ! A9    A(6,5,17)             115.8394         estimate D2E/DX2                !
 ! A10   A(5,6,7)              129.0771         estimate D2E/DX2                !
 ! A11   A(5,6,18)             121.2665         estimate D2E/DX2                !
 ! A12   A(7,6,18)             107.4669         estimate D2E/DX2                !
 ! A13   A(6,7,8)              105.3041         estimate D2E/DX2                !
 ! A14   A(6,7,9)              114.9626         estimate D2E/DX2                !
 ! A15   A(6,7,13)             112.7506         estimate D2E/DX2                !
 ! A16   A(8,7,9)              106.1141         estimate D2E/DX2                !
 ! A17   A(8,7,13)             105.9415         estimate D2E/DX2                !
 ! A18   A(9,7,13)             110.9538         estimate D2E/DX2                !
 ! A19   A(7,9,10)             109.4467         estimate D2E/DX2                !
 ! A20   A(7,9,19)             110.1485         estimate D2E/DX2                !
 ! A21   A(7,9,20)             110.1709         estimate D2E/DX2                !
 ! A22   A(10,9,19)            109.965          estimate D2E/DX2                !
 ! A23   A(10,9,20)            109.1197         estimate D2E/DX2                !
 ! A24   A(19,9,20)            107.9673         estimate D2E/DX2                !
 ! A25   A(9,10,11)            111.1817         estimate D2E/DX2                !
 ! A26   A(9,10,21)            109.946          estimate D2E/DX2                !
 ! A27   A(9,10,22)            109.1474         estimate D2E/DX2                !
 ! A28   A(11,10,21)           109.7847         estimate D2E/DX2                !
 ! A29   A(11,10,22)           108.7764         estimate D2E/DX2                !
 ! A30   A(21,10,22)           107.9336         estimate D2E/DX2                !
 ! A31   A(10,11,12)           111.4219         estimate D2E/DX2                !
 ! A32   A(10,11,23)           108.997          estimate D2E/DX2                !
 ! A33   A(10,11,24)           109.8606         estimate D2E/DX2                !
 ! A34   A(12,11,23)           109.2403         estimate D2E/DX2                !
 ! A35   A(12,11,24)           109.7426         estimate D2E/DX2                !
 ! A36   A(23,11,24)           107.4887         estimate D2E/DX2                !
 ! A37   A(11,12,13)           111.5977         estimate D2E/DX2                !
 ! A38   A(11,12,25)           109.2046         estimate D2E/DX2                !
 ! A39   A(11,12,26)           109.4758         estimate D2E/DX2                !
 ! A40   A(13,12,25)           109.217          estimate D2E/DX2                !
 ! A41   A(13,12,26)           109.5145         estimate D2E/DX2                !
 ! A42   A(25,12,26)           107.7488         estimate D2E/DX2                !
 ! A43   A(7,13,12)            105.792          estimate D2E/DX2                !
 ! A44   A(7,13,14)            111.0525         estimate D2E/DX2                !
 ! A45   A(7,13,15)            113.6611         estimate D2E/DX2                !
 ! A46   A(12,13,14)           107.7473         estimate D2E/DX2                !
 ! A47   A(12,13,15)           108.3966         estimate D2E/DX2                !
 ! A48   A(14,13,15)           109.9142         estimate D2E/DX2                !
 ! A49   A(13,15,16)           119.4097         estimate D2E/DX2                !
 ! A50   A(4,16,15)            128.7742         estimate D2E/DX2                !
 ! A51   A(4,16,27)            113.6759         estimate D2E/DX2                !
 ! A52   A(15,16,27)           117.5494         estimate D2E/DX2                !
 ! D1    D(1,2,4,5)            157.2012         estimate D2E/DX2                !
 ! D2    D(1,2,4,16)           -19.9993         Frozen                          !
 ! D3    D(3,2,4,5)            -24.0324         estimate D2E/DX2                !
 ! D4    D(3,2,4,16)           158.7672         estimate D2E/DX2                !
 ! D5    D(2,4,5,6)            176.3166         estimate D2E/DX2                !
 ! D6    D(2,4,5,17)            -0.7795         estimate D2E/DX2                !
 ! D7    D(16,4,5,6)            -6.8298         estimate D2E/DX2                !
 ! D8    D(16,4,5,17)          176.0742         estimate D2E/DX2                !
 ! D9    D(2,4,16,15)         -155.1901         estimate D2E/DX2                !
 ! D10   D(2,4,16,27)           24.5363         estimate D2E/DX2                !
 ! D11   D(5,4,16,15)           27.976          estimate D2E/DX2                !
 ! D12   D(5,4,16,27)         -152.2976         estimate D2E/DX2                !
 ! D13   D(4,5,6,7)             -6.9696         estimate D2E/DX2                !
 ! D14   D(4,5,6,18)           154.0113         estimate D2E/DX2                !
 ! D15   D(17,5,6,7)           170.1856         estimate D2E/DX2                !
 ! D16   D(17,5,6,18)          -28.8336         estimate D2E/DX2                !
 ! D17   D(5,6,7,8)           -142.423          estimate D2E/DX2                !
 ! D18   D(5,6,7,9)            101.167          estimate D2E/DX2                !
 ! D19   D(5,6,7,13)           -27.3654         estimate D2E/DX2                !
 ! D20   D(18,6,7,8)            54.5558         estimate D2E/DX2                !
 ! D21   D(18,6,7,9)           -61.8542         estimate D2E/DX2                !
 ! D22   D(18,6,7,13)          169.6135         estimate D2E/DX2                !
 ! D23   D(6,7,9,10)           168.6775         estimate D2E/DX2                !
 ! D24   D(6,7,9,19)           -70.3081         estimate D2E/DX2                !
 ! D25   D(6,7,9,20)            48.6936         estimate D2E/DX2                !
 ! D26   D(8,7,9,10)            52.731          estimate D2E/DX2                !
 ! D27   D(8,7,9,19)           173.7453         estimate D2E/DX2                !
 ! D28   D(8,7,9,20)           -67.253          estimate D2E/DX2                !
 ! D29   D(13,7,9,10)          -61.8995         estimate D2E/DX2                !
 ! D30   D(13,7,9,19)           59.1148         estimate D2E/DX2                !
 ! D31   D(13,7,9,20)          178.1165         estimate D2E/DX2                !
 ! D32   D(6,7,13,12)         -166.1623         estimate D2E/DX2                !
 ! D33   D(6,7,13,14)          -49.528          estimate D2E/DX2                !
 ! D34   D(6,7,13,15)           75.022          Frozen                          !
 ! D35   D(8,7,13,12)          -51.4892         estimate D2E/DX2                !
 ! D36   D(8,7,13,14)           65.145          estimate D2E/DX2                !
 ! D37   D(8,7,13,15)         -170.305          estimate D2E/DX2                !
 ! D38   D(9,7,13,12)           63.2492         estimate D2E/DX2                !
 ! D39   D(9,7,13,14)          179.8834         estimate D2E/DX2                !
 ! D40   D(9,7,13,15)          -55.5666         estimate D2E/DX2                !
 ! D41   D(7,9,10,11)           54.8129         Frozen                          !
 ! D42   D(7,9,10,21)          176.6028         estimate D2E/DX2                !
 ! D43   D(7,9,10,22)          -65.1843         estimate D2E/DX2                !
 ! D44   D(19,9,10,11)         -66.3126         estimate D2E/DX2                !
 ! D45   D(19,9,10,21)          55.4773         estimate D2E/DX2                !
 ! D46   D(19,9,10,22)         173.6902         estimate D2E/DX2                !
 ! D47   D(20,9,10,11)         175.4389         estimate D2E/DX2                !
 ! D48   D(20,9,10,21)         -62.7712         estimate D2E/DX2                !
 ! D49   D(20,9,10,22)          55.4417         estimate D2E/DX2                !
 ! D50   D(9,10,11,12)         -52.8226         Frozen                          !
 ! D51   D(9,10,11,23)          67.8043         estimate D2E/DX2                !
 ! D52   D(9,10,11,24)        -174.6612         estimate D2E/DX2                !
 ! D53   D(21,10,11,12)       -174.7063         estimate D2E/DX2                !
 ! D54   D(21,10,11,23)        -54.0795         estimate D2E/DX2                !
 ! D55   D(21,10,11,24)         63.455          estimate D2E/DX2                !
 ! D56   D(22,10,11,12)         67.3944         estimate D2E/DX2                !
 ! D57   D(22,10,11,23)       -171.9787         estimate D2E/DX2                !
 ! D58   D(22,10,11,24)        -54.4442         estimate D2E/DX2                !
 ! D59   D(10,11,12,13)         56.6169         estimate D2E/DX2                !
 ! D60   D(10,11,12,25)        177.4646         estimate D2E/DX2                !
 ! D61   D(10,11,12,26)        -64.7874         estimate D2E/DX2                !
 ! D62   D(23,11,12,13)        -63.8671         estimate D2E/DX2                !
 ! D63   D(23,11,12,25)         56.9806         estimate D2E/DX2                !
 ! D64   D(23,11,12,26)        174.7286         estimate D2E/DX2                !
 ! D65   D(24,11,12,13)        178.5239         estimate D2E/DX2                !
 ! D66   D(24,11,12,25)        -60.6284         estimate D2E/DX2                !
 ! D67   D(24,11,12,26)         57.1196         estimate D2E/DX2                !
 ! D68   D(11,12,13,7)         -60.3304         estimate D2E/DX2                !
 ! D69   D(11,12,13,14)       -179.1781         estimate D2E/DX2                !
 ! D70   D(11,12,13,15)         61.9182         estimate D2E/DX2                !
 ! D71   D(25,12,13,7)         178.8291         estimate D2E/DX2                !
 ! D72   D(25,12,13,14)         59.9814         estimate D2E/DX2                !
 ! D73   D(25,12,13,15)        -58.9223         estimate D2E/DX2                !
 ! D74   D(26,12,13,7)          61.0514         estimate D2E/DX2                !
 ! D75   D(26,12,13,14)        -57.7963         estimate D2E/DX2                !
 ! D76   D(26,12,13,15)       -176.7            estimate D2E/DX2                !
 ! D77   D(7,13,15,16)         -67.1601         Frozen                          !
 ! D78   D(12,13,15,16)        175.5267         estimate D2E/DX2                !
 ! D79   D(14,13,15,16)         58.0004         estimate D2E/DX2                !
 ! D80   D(13,15,16,4)           7.75           estimate D2E/DX2                !
 ! D81   D(13,15,16,27)       -171.9674         estimate D2E/DX2                !
 --------------------------------------------------------------------------------
 Trust Radius=3.00D-01 FncErr=1.00D-07 GrdErr=1.00D-07 EigMax=2.50D+02 EigMin=1.00D-04
 Number of steps in this run=     20 maximum allowed number of steps=    162.
 GradGradGradGradGradGradGradGradGradGradGradGradGradGradGradGradGradGrad

                          Input orientation:                          
 ---------------------------------------------------------------------
 Center     Atomic      Atomic             Coordinates (Angstroms)
 Number     Number       Type             X           Y           Z
 ---------------------------------------------------------------------
      1          8           0       -3.658850   -1.242660   -0.666810
      2          7           0       -3.250290   -0.275220   -0.027170
      3          8           0       -3.972710    0.465010    0.641060
      4          6           0       -1.754440    0.001960   -0.043470
      5          6           0       -1.372500    1.316030    0.245120
      6          7           0       -0.085250    1.774100    0.356130
      7          6           0        1.194340    1.001250    0.344070
      8          1           0        1.855280    1.511570    1.091970
      9          6           0        1.963410    1.030990   -1.000310
     10          6           0        3.374970    0.448240   -0.796730
     11          6           0        3.311550   -0.958010   -0.179890
     12          6           0        2.458920   -0.971270    1.107220
     13          6           0        1.022550   -0.440340    0.847030
     14          1           0        0.470810   -0.463520    1.816030
     15          7           0        0.370060   -1.326720   -0.120110
     16          6           0       -0.870590   -1.130050   -0.424940
     17          1           0       -2.165060    2.055390    0.448820
     18          1           0        0.146520    2.754460    0.178910
     19          1           0        1.416730    0.441690   -1.766970
     20          1           0        2.050560    2.075200   -1.368670
     21          1           0        3.912970    0.408810   -1.769140
     22          1           0        3.949500    1.113340   -0.113940
     23          1           0        2.867120   -1.659460   -0.921660
     24          1           0        4.338910   -1.317890    0.046440
     25          1           0        2.399820   -2.011430    1.496160
     26          1           0        2.950090   -0.347250    1.883030
     27          1           0       -1.368420   -1.889230   -1.047210
 ---------------------------------------------------------------------
                    Distance matrix (angstroms):
                    1          2          3          4          5
     1  O    0.000000
     2  N    1.229634   0.000000
     3  O    2.173745   1.231407   0.000000
     4  C    2.358900   1.521401   2.367217   0.000000
     5  C    3.550480   2.476351   2.764434   1.398550   0.000000
     6  N    4.787261   3.790001   4.111842   2.467054   1.370826
     7  C    5.441550   4.639173   5.203284   3.137526   2.587962
     8  H    6.409736   5.523761   5.938356   4.074092   3.342747
     9  C    6.073756   5.462221   6.184816   3.974526   3.572204
    10  C    7.235375   6.708926   7.487050   5.203596   4.937305
    11  C    6.993182   6.599036   7.467221   5.157946   5.224195
    12  C    6.375574   5.862287   6.606517   4.474781   4.544748
    13  C    4.985071   4.364476   5.080817   2.949626   3.030412
    14  H    4.881152   4.156853   4.689093   2.937031   3.005387
    15  N    4.066702   3.771104   4.759131   2.506943   3.186540
    16  C    2.800996   2.559673   3.647427   1.485987   2.585382
    17  H    3.788558   2.614581   2.415339   2.151170   1.102859
    18  H    5.583283   4.556287   4.735316   3.352515   2.093057
    19  H    5.459753   5.032091   5.902984   3.635950   3.548631
    20  H    6.640645   5.951731   6.550688   4.531281   3.859792
    21  H    7.827831   7.403692   8.245979   5.938266   5.728567
    22  H    7.983946   7.332981   7.984470   5.811632   5.337948
    23  H    6.544231   6.335530   7.330671   4.989023   5.309359
    24  H    8.029854   7.660844   8.521463   6.235303   6.292632
    25  H    6.478960   6.103991   6.890072   4.866423   5.183386
    26  H    7.140135   6.488356   7.080072   5.095680   4.912640
    27  H    2.410151   2.680848   3.895514   2.175570   3.455984
                    6          7          8          9         10
     6  N    0.000000
     7  C    1.494922   0.000000
     8  H    2.091898   1.120992   0.000000
     9  C    2.566934   1.549100   2.149485   0.000000
    10  C    3.880736   2.522378   2.647134   1.540631   0.000000
    11  C    4.392037   2.931862   3.136427   2.539034   1.536897
    12  C    3.817590   2.464223   2.555212   2.948942   2.545424
    13  C    2.524272   1.536445   2.136209   2.542183   3.004231
    14  H    2.729002   2.199025   2.518333   3.520396   4.011479
    15  N    3.170047   2.512836   3.425041   2.978643   3.554966
    16  C    3.108201   3.065575   4.087730   3.610083   4.544668
    17  H    2.100792   3.522464   4.107617   4.493733   5.901378
    18  H    1.022854   2.049134   2.301807   2.768031   4.085757
    19  H    2.922125   2.195235   3.083911   1.110811   2.185432
    20  H    2.761753   2.195441   2.531909   1.110702   2.174437
    21  H    4.729329   3.493936   3.692711   2.186091   1.112016
    22  H    4.115432   2.795218   2.449196   2.176462   1.112944
    23  H    4.705164   3.388162   3.890239   2.839260   2.171617
    24  H    5.406432   3.918586   3.907351   3.500846   2.181589
    25  H    4.669634   3.443361   3.587676   3.959689   3.501177
    26  H    4.005601   2.696203   2.297737   3.344657   2.827444
    27  H    4.127454   4.105883   5.151094   4.430686   5.293983
                   11         12         13         14         15
    11  C    0.000000
    12  C    1.543958   0.000000
    13  C    2.561653   1.553301   0.000000
    14  H    3.506853   2.170899   1.115310   0.000000
    15  N    2.965111   2.448677   1.465187   2.122240   0.000000
    16  C    4.192844   3.668564   2.382769   2.695471   1.292599
    17  H    6.282445   5.565550   4.067935   3.893839   4.264878
    18  H    4.891685   4.482189   3.379432   3.625013   4.098221
    19  H    2.840480   3.368024   2.786817   3.814716   2.633427
    20  H    3.493373   3.946868   3.506290   4.368412   3.994501
    21  H    2.180738   3.506042   3.989979   5.046075   4.275930
    22  H    2.168368   2.838778   3.450278   4.279317   4.332011
    23  H    1.113451   2.180960   2.831423   3.829820   2.643578
    24  H    1.111849   2.186267   3.522681   4.338617   3.972353
    25  H    2.179470   1.112070   2.187822   2.493877   2.683483
    26  H    2.181587   1.110194   2.190290   2.482909   3.410057
    27  H    4.849900   4.486953   3.377005   3.689656   2.048962
                   16         17         18         19         20
    16  C    0.000000
    17  H    3.547695   0.000000
    18  H    4.060611   2.430011   0.000000
    19  H    3.082733   4.510318   3.278534   0.000000
    20  H    4.438172   4.590764   2.545931   1.796869   0.000000
    21  H    5.201674   6.676303   4.845938   2.496457   2.530969
    22  H    5.325672   6.212246   4.152312   3.098152   2.470930
    23  H    3.807556   6.403215   5.300529   2.689426   3.848931
    24  H    5.234154   7.337749   5.846171   3.863122   4.330374
    25  H    3.893975   6.202747   5.433803   4.199081   5.002977
    26  H    4.531787   5.830471   4.514935   4.036845   4.153429
    27  H    1.100640   4.293340   5.036097   3.702473   5.244947
                   21         22         23         24         25
    21  H    0.000000
    22  H    1.799273   0.000000
    23  H    2.467745   3.084214   0.000000
    24  H    2.541505   2.467436   1.794451   0.000000
    25  H    4.336977   3.841630   2.487590   2.518483   0.000000
    26  H    3.851897   2.668339   3.097590   2.498805   1.794982
    27  H    5.804761   6.177920   4.243625   5.839188   4.547889
                   26         27
    26  H    0.000000
    27  H    5.441832   0.000000
 Symmetry turned off by external request.
 Stoichiometry    C9H13N3O2
 Framework group  C1[X(C9H13N3O2)]
 Deg. of freedom    75
 Full point group                 C1      NOp   1
 Rotational constants (GHZ):           1.6733893           0.3976214           0.3592751
 Standard basis: 6-31G(d) (6D, 7F)
   236 basis functions,   444 primitive gaussians,   236 cartesian basis functions
    52 alpha electrons       52 beta electrons
       nuclear repulsion energy       917.8392347536 Hartrees.
 NAtoms=   27 NActive=   27 NUniq=   27 SFac= 1.00D+00 NAtFMM=   60 NAOKFM=F Big=F
 Integral buffers will be    131072 words long.
 Raffenetti 1 integral format.
 Two-electron integral symmetry is turned off.
 One-electron integrals computed using PRISM.
 NBasis=   236 RedAO= T EigKep=  1.50D-03  NBF=   236
 NBsUse=   236 1.00D-06 EigRej= -1.00D+00 NBFU=   236
 ExpMin= 1.61D-01 ExpMax= 5.48D+03 ExpMxC= 8.25D+02 IAcc=3 IRadAn=         5 AccDes= 0.00D+00
 Harris functional with IExCor=  205 and IRadAn=       5 diagonalized for initial guess.
 HarFok:  IExCor=  205 AccDes= 0.00D+00 IRadAn=         5 IDoV= 1 UseB2=F ITyADJ=14
 ICtDFT=  3500011 ScaDFX=  1.000000  1.000000  1.000000  1.000000
 FoFCou: FMM=F IPFlag=           0 FMFlag=      100000 FMFlg1=           0
         NFxFlg=           0 DoJE=T BraDBF=F KetDBF=T FulRan=T
         wScrn=  0.000000 ICntrl=       500 IOpCl=  0 I1Cent=   200000004 NGrid=           0
         NMat0=    1 NMatS0=      1 NMatT0=    0 NMatD0=    1 NMtDS0=    0 NMtDT0=    0
 Symmetry not used in FoFCou.
 Keep R1 ints in memory in canonical form, NReq=397720213.
 Requested convergence on RMS density matrix=1.00D-08 within 128 cycles.
 Requested convergence on MAX density matrix=1.00D-06.
 Requested convergence on             energy=1.00D-06.
 No special actions if energy rises.
 SCF Done:  E(RHF) =  -661.280801011     A.U. after   16 cycles
            NFock= 16  Conv=0.75D-08     -V/T= 2.0037
 ExpMin= 1.61D-01 ExpMax= 5.48D+03 ExpMxC= 8.25D+02 IAcc=3 IRadAn=         5 AccDes= 0.00D+00
 HarFok:  IExCor=  205 AccDes= 0.00D+00 IRadAn=         5 IDoV=-2 UseB2=F ITyADJ=14
 ICtDFT= 12500011 ScaDFX=  1.000000  1.000000  1.000000  1.000000
 Range of M.O.s used for correlation:    15   236
 NBasis=   236 NAE=    52 NBE=    52 NFC=    14 NFV=     0
 NROrb=    222 NOA=    38 NOB=    38 NVA=   184 NVB=   184
 Fully direct method using O(ONN) memory.
 JobTyp=1 Pass  1:  I=  15 to  52 NPSUse=  4 ParTrn=T ParDer=T DoDerP=T.
 Spin components of T(2) and E(2):
     alpha-alpha T2 =       0.9199835124D-01 E2=     -0.2718430621D+00
     alpha-beta  T2 =       0.4998184517D+00 E2=     -0.1494002483D+01
     beta-beta   T2 =       0.9199835124D-01 E2=     -0.2718430621D+00
 ANorm=    0.1297619033D+01
 E2 =    -0.2037688607D+01 EUMP2 =    -0.66331848961766D+03
          IDoAtm=111111111111111111111111111
          Differentiating once with respect to electric field.
                with respect to dipole field.
          Differentiating once with respect to nuclear coordinates.
 Keep R1 ints in memory in canonical form, NReq=397723379.
          There are     1 degrees of freedom in the 1st order CPHF.  IDoFFX=0 NUNeed=     1.
 LinEq1:  Iter=  0 NonCon=     1 RMS=4.60D-03 Max=1.15D-01 NDo=     1
 AX will form     1 AO Fock derivatives at one time.
 LinEq1:  Iter=  1 NonCon=     1 RMS=1.56D-03 Max=3.45D-02 NDo=     1
 LinEq1:  Iter=  2 NonCon=     1 RMS=6.36D-04 Max=1.91D-02 NDo=     1
 LinEq1:  Iter=  3 NonCon=     1 RMS=2.91D-04 Max=8.45D-03 NDo=     1
 LinEq1:  Iter=  4 NonCon=     1 RMS=8.90D-05 Max=1.97D-03 NDo=     1
 LinEq1:  Iter=  5 NonCon=     1 RMS=3.68D-05 Max=1.81D-03 NDo=     1
 LinEq1:  Iter=  6 NonCon=     1 RMS=1.55D-05 Max=6.22D-04 NDo=     1
 LinEq1:  Iter=  7 NonCon=     1 RMS=6.07D-06 Max=1.19D-04 NDo=     1
 LinEq1:  Iter=  8 NonCon=     1 RMS=2.44D-06 Max=6.23D-05 NDo=     1
 LinEq1:  Iter=  9 NonCon=     1 RMS=9.45D-07 Max=2.41D-05 NDo=     1
 LinEq1:  Iter= 10 NonCon=     1 RMS=4.39D-07 Max=1.23D-05 NDo=     1
 LinEq1:  Iter= 11 NonCon=     1 RMS=1.52D-07 Max=5.79D-06 NDo=     1
 LinEq1:  Iter= 12 NonCon=     1 RMS=5.31D-08 Max=8.24D-07 NDo=     1
 LinEq1:  Iter= 13 NonCon=     1 RMS=1.68D-08 Max=3.36D-07 NDo=     1
 LinEq1:  Iter= 14 NonCon=     1 RMS=5.32D-09 Max=1.07D-07 NDo=     1
 LinEq1:  Iter= 15 NonCon=     1 RMS=2.01D-09 Max=5.37D-08 NDo=     1
 LinEq1:  Iter= 16 NonCon=     1 RMS=7.59D-10 Max=1.28D-08 NDo=     1
 LinEq1:  Iter= 17 NonCon=     1 RMS=2.58D-10 Max=3.97D-09 NDo=     1
 LinEq1:  Iter= 18 NonCon=     1 RMS=9.18D-11 Max=1.26D-09 NDo=     1
 LinEq1:  Iter= 19 NonCon=     0 RMS=2.96D-11 Max=3.70D-10 NDo=     1
 Linear equations converged to 1.000D-10 1.000D-09 after    19 iterations.
 End of Minotr F.D. properties file   721 does not exist.
 End of Minotr F.D. properties file   722 does not exist.
 End of Minotr F.D. properties file   788 does not exist.

 **********************************************************************

            Population analysis using the SCF Density.

 **********************************************************************

 Alpha  occ. eigenvalues --  -20.59795 -20.59639 -15.85286 -15.63299 -15.56791
 Alpha  occ. eigenvalues --  -11.35842 -11.30419 -11.30058 -11.30014 -11.27662
 Alpha  occ. eigenvalues --  -11.24603 -11.23861 -11.23380 -11.22837  -1.58582
 Alpha  occ. eigenvalues --   -1.38133  -1.28547  -1.22702  -1.13306  -1.08468
 Alpha  occ. eigenvalues --   -1.01790  -1.00674  -0.93600  -0.88972  -0.84905
 Alpha  occ. eigenvalues --   -0.81569  -0.78046  -0.77008  -0.74266  -0.71239
 Alpha  occ. eigenvalues --   -0.70466  -0.69641  -0.67426  -0.64286  -0.63238
 Alpha  occ. eigenvalues --   -0.61660  -0.60370  -0.57412  -0.56430  -0.54836
 Alpha  occ. eigenvalues --   -0.53582  -0.50793  -0.49350  -0.48483  -0.47973
 Alpha  occ. eigenvalues --   -0.47684  -0.46270  -0.45603  -0.44076  -0.42066
 Alpha  occ. eigenvalues --   -0.39917  -0.33629
 Alpha virt. eigenvalues --    0.07641   0.11799   0.18105   0.21375   0.22981
 Alpha virt. eigenvalues --    0.24080   0.26022   0.27645   0.28596   0.28857
 Alpha virt. eigenvalues --    0.30163   0.31302   0.31837   0.32306   0.33386
 Alpha virt. eigenvalues --    0.33811   0.34375   0.35509   0.37568   0.38592
 Alpha virt. eigenvalues --    0.40556   0.42019   0.44908   0.45389   0.45845
 Alpha virt. eigenvalues --    0.45954   0.49431   0.53458   0.57573   0.59135
 Alpha virt. eigenvalues --    0.63214   0.69141   0.69264   0.72211   0.73864
 Alpha virt. eigenvalues --    0.74810   0.75798   0.75884   0.77805   0.79336
 Alpha virt. eigenvalues --    0.79668   0.83716   0.84980   0.85532   0.87978
 Alpha virt. eigenvalues --    0.89112   0.90230   0.90654   0.91940   0.93767
 Alpha virt. eigenvalues --    0.95299   0.97099   0.99165   1.00303   1.01702
 Alpha virt. eigenvalues --    1.03060   1.05120   1.06378   1.07027   1.08619
 Alpha virt. eigenvalues --    1.08925   1.10485   1.11464   1.12098   1.13267
 Alpha virt. eigenvalues --    1.13686   1.14012   1.15596   1.16408   1.17352
 Alpha virt. eigenvalues --    1.18177   1.19308   1.20331   1.21633   1.22044
 Alpha virt. eigenvalues --    1.23402   1.25334   1.25892   1.27935   1.28331
 Alpha virt. eigenvalues --    1.30560   1.31291   1.33468   1.36137   1.38665
 Alpha virt. eigenvalues --    1.42731   1.44951   1.46610   1.47553   1.49393
 Alpha virt. eigenvalues --    1.54604   1.55601   1.59916   1.62760   1.65229
 Alpha virt. eigenvalues --    1.68091   1.70217   1.72642   1.72792   1.75982
 Alpha virt. eigenvalues --    1.77684   1.80430   1.84609   1.89261   1.91676
 Alpha virt. eigenvalues --    1.92915   1.95695   1.98674   1.98969   2.00226
 Alpha virt. eigenvalues --    2.00887   2.04062   2.06178   2.08645   2.12329
 Alpha virt. eigenvalues --    2.13301   2.14012   2.17864   2.19246   2.19788
 Alpha virt. eigenvalues --    2.21063   2.23190   2.23849   2.25688   2.26532
 Alpha virt. eigenvalues --    2.29183   2.32146   2.33783   2.35654   2.36489
 Alpha virt. eigenvalues --    2.38300   2.39562   2.41049   2.43693   2.44893
 Alpha virt. eigenvalues --    2.48315   2.49633   2.50333   2.56187   2.58204
 Alpha virt. eigenvalues --    2.60719   2.62492   2.66205   2.68516   2.68721
 Alpha virt. eigenvalues --    2.69638   2.70258   2.73960   2.75478   2.83062
 Alpha virt. eigenvalues --    2.86559   2.86960   2.88868   2.92273   2.93128
 Alpha virt. eigenvalues --    2.98058   2.98328   3.02718   3.03169   3.05834
 Alpha virt. eigenvalues --    3.07238   3.12702   3.19250   3.20768   3.25661
 Alpha virt. eigenvalues --    3.31344   3.33877   3.37741   3.42731   3.59689
 Alpha virt. eigenvalues --    4.09608   4.21275   4.29796   4.32907   4.44693
 Alpha virt. eigenvalues --    4.52937   4.59615   4.60616   4.70973   4.77647
 Alpha virt. eigenvalues --    4.96165   4.99252   5.02872   5.09927
          Condensed to atoms (all electrons):
               1          2          3          4          5          6
     1  O    8.303471   0.308648  -0.086972  -0.078590   0.002803  -0.000016
     2  N    0.308648   5.693980   0.311776   0.256579  -0.043356   0.001034
     3  O   -0.086972   0.311776   8.317537  -0.087795   0.008075   0.000373
     4  C   -0.078590   0.256579  -0.087795   5.256195   0.563925  -0.049351
     5  C    0.002803  -0.043356   0.008075   0.563925   4.665714   0.311692
     6  N   -0.000016   0.001034   0.000373  -0.049351   0.311692   7.184098
     7  C    0.000001  -0.000089   0.000006   0.003898  -0.030968   0.200841
     8  H   -0.000000   0.000002  -0.000000  -0.000201   0.002454  -0.049913
     9  C    0.000000  -0.000003   0.000000   0.000529   0.001571  -0.056410
    10  C   -0.000000   0.000000  -0.000000  -0.000019  -0.000061   0.003332
    11  C   -0.000000  -0.000000  -0.000000  -0.000016   0.000014  -0.000153
    12  C    0.000000   0.000002  -0.000000  -0.000088  -0.000118   0.003581
    13  C   -0.000008  -0.000039  -0.000007  -0.010602   0.000778  -0.044799
    14  H    0.000001  -0.000062  -0.000003   0.002971   0.005000  -0.005620
    15  N    0.000374   0.001500  -0.000006  -0.061749  -0.004342   0.002250
    16  C    0.002830  -0.027034   0.002154   0.318593  -0.040180  -0.001726
    17  H    0.000137  -0.003689   0.010618  -0.031436   0.380391  -0.033441
    18  H    0.000001  -0.000037   0.000004   0.000924  -0.023504   0.327894
    19  H    0.000000  -0.000000   0.000000  -0.000763   0.000718   0.000634
    20  H    0.000000  -0.000000   0.000000  -0.000029   0.000042  -0.001672
    21  H   -0.000000  -0.000000   0.000000   0.000000   0.000001  -0.000059
    22  H   -0.000000   0.000000  -0.000000  -0.000000  -0.000002  -0.000097
    23  H    0.000000  -0.000000   0.000000   0.000025  -0.000000  -0.000024
    24  H    0.000000   0.000000   0.000000   0.000000  -0.000000   0.000004
    25  H    0.000000  -0.000000   0.000000   0.000018  -0.000000  -0.000071
    26  H    0.000000  -0.000000   0.000000   0.000006  -0.000001  -0.000065
    27  H    0.006693  -0.000372   0.000063  -0.063204   0.001858   0.000027
               7          8          9         10         11         12
     1  O    0.000001  -0.000000   0.000000  -0.000000  -0.000000   0.000000
     2  N   -0.000089   0.000002  -0.000003   0.000000  -0.000000   0.000002
     3  O    0.000006  -0.000000   0.000000  -0.000000  -0.000000  -0.000000
     4  C    0.003898  -0.000201   0.000529  -0.000019  -0.000016  -0.000088
     5  C   -0.030968   0.002454   0.001571  -0.000061   0.000014  -0.000118
     6  N    0.200841  -0.049913  -0.056410   0.003332  -0.000153   0.003581
     7  C    5.004698   0.416427   0.340860  -0.049311  -0.007711  -0.064326
     8  H    0.416427   0.547635  -0.060633   0.001451  -0.000327  -0.002823
     9  C    0.340860  -0.060633   5.181431   0.317897  -0.053045  -0.006215
    10  C   -0.049311   0.001451   0.317897   5.126760   0.332770  -0.060145
    11  C   -0.007711  -0.000327  -0.053045   0.332770   5.124034   0.330613
    12  C   -0.064326  -0.002823  -0.006215  -0.060145   0.330613   5.137217
    13  C    0.332034  -0.040230  -0.050637  -0.001686  -0.047875   0.368055
    14  H   -0.040089  -0.000939   0.003849  -0.000390   0.003955  -0.040645
    15  N   -0.059127   0.004062  -0.012851   0.001471  -0.007729  -0.074196
    16  C   -0.001990  -0.000008  -0.000744  -0.000032   0.000014   0.002422
    17  H    0.001482  -0.000017  -0.000071   0.000001   0.000000   0.000001
    18  H   -0.028455  -0.002690   0.000816  -0.000119   0.000011  -0.000134
    19  H   -0.034999   0.004096   0.386021  -0.032580  -0.002262   0.000633
    20  H   -0.041682  -0.001843   0.397208  -0.037365   0.004139  -0.000361
    21  H    0.004042  -0.000080  -0.035826   0.400134  -0.035848   0.004211
    22  H   -0.004222   0.003518  -0.045690   0.395957  -0.045615  -0.001233
    23  H    0.000435   0.000033  -0.002003  -0.040101   0.396689  -0.036645
    24  H   -0.000142  -0.000098   0.004395  -0.038487   0.400272  -0.037868
    25  H    0.004992  -0.000005  -0.000370   0.004101  -0.033939   0.395374
    26  H   -0.004442   0.001588   0.001042  -0.002404  -0.042319   0.394701
    27  H   -0.000387   0.000008  -0.000057   0.000005   0.000005  -0.000016
              13         14         15         16         17         18
     1  O   -0.000008   0.000001   0.000374   0.002830   0.000137   0.000001
     2  N   -0.000039  -0.000062   0.001500  -0.027034  -0.003689  -0.000037
     3  O   -0.000007  -0.000003  -0.000006   0.002154   0.010618   0.000004
     4  C   -0.010602   0.002971  -0.061749   0.318593  -0.031436   0.000924
     5  C    0.000778   0.005000  -0.004342  -0.040180   0.380391  -0.023504
     6  N   -0.044799  -0.005620   0.002250  -0.001726  -0.033441   0.327894
     7  C    0.332034  -0.040089  -0.059127  -0.001990   0.001482  -0.028455
     8  H   -0.040230  -0.000939   0.004062  -0.000008  -0.000017  -0.002690
     9  C   -0.050637   0.003849  -0.012851  -0.000744  -0.000071   0.000816
    10  C   -0.001686  -0.000390   0.001471  -0.000032   0.000001  -0.000119
    11  C   -0.047875   0.003955  -0.007729   0.000014   0.000000   0.000011
    12  C    0.368055  -0.040645  -0.074196   0.002422   0.000001  -0.000134
    13  C    5.023954   0.402322   0.240623  -0.068725  -0.000048   0.003664
    14  H    0.402322   0.518130  -0.035498  -0.005243   0.000067   0.000006
    15  N    0.240623  -0.035498   6.938250   0.586151  -0.000058  -0.000113
    16  C   -0.068725  -0.005243   0.586151   4.710766   0.001515  -0.000228
    17  H   -0.000048   0.000067  -0.000058   0.001515   0.392496  -0.001831
    18  H    0.003664   0.000006  -0.000113  -0.000228  -0.001831   0.324968
    19  H   -0.006246   0.000064   0.006911   0.002438   0.000012  -0.000124
    20  H    0.003861  -0.000050   0.000080  -0.000033  -0.000001   0.002835
    21  H   -0.000378   0.000009  -0.000030   0.000002  -0.000000  -0.000000
    22  H    0.000318  -0.000044   0.000003  -0.000001   0.000000   0.000002
    23  H   -0.005870   0.000008   0.006783   0.000062   0.000000   0.000000
    24  H    0.004142  -0.000058   0.000042   0.000005   0.000000  -0.000000
    25  H   -0.034468  -0.002657   0.000797  -0.000066  -0.000000   0.000002
    26  H   -0.044795  -0.000920   0.004186  -0.000053   0.000000  -0.000001
    27  H    0.004738  -0.000181  -0.040473   0.401852  -0.000064   0.000002
              19         20         21         22         23         24
     1  O    0.000000   0.000000  -0.000000  -0.000000   0.000000   0.000000
     2  N   -0.000000  -0.000000  -0.000000   0.000000  -0.000000   0.000000
     3  O    0.000000   0.000000   0.000000  -0.000000   0.000000   0.000000
     4  C   -0.000763  -0.000029   0.000000  -0.000000   0.000025   0.000000
     5  C    0.000718   0.000042   0.000001  -0.000002  -0.000000  -0.000000
     6  N    0.000634  -0.001672  -0.000059  -0.000097  -0.000024   0.000004
     7  C   -0.034999  -0.041682   0.004042  -0.004222   0.000435  -0.000142
     8  H    0.004096  -0.001843  -0.000080   0.003518   0.000033  -0.000098
     9  C    0.386021   0.397208  -0.035826  -0.045690  -0.002003   0.004395
    10  C   -0.032580  -0.037365   0.400134   0.395957  -0.040101  -0.038487
    11  C   -0.002262   0.004139  -0.035848  -0.045615   0.396689   0.400272
    12  C    0.000633  -0.000361   0.004211  -0.001233  -0.036645  -0.037868
    13  C   -0.006246   0.003861  -0.000378   0.000318  -0.005870   0.004142
    14  H    0.000064  -0.000050   0.000009  -0.000044   0.000008  -0.000058
    15  N    0.006911   0.000080  -0.000030   0.000003   0.006783   0.000042
    16  C    0.002438  -0.000033   0.000002  -0.000001   0.000062   0.000005
    17  H    0.000012  -0.000001  -0.000000   0.000000   0.000000   0.000000
    18  H   -0.000124   0.002835  -0.000000   0.000002   0.000000  -0.000000
    19  H    0.506594  -0.024005  -0.002593   0.003757   0.001642  -0.000069
    20  H   -0.024005   0.550348  -0.002620  -0.002966  -0.000050  -0.000090
    21  H   -0.002593  -0.002620   0.526161  -0.024708  -0.002815  -0.002061
    22  H    0.003757  -0.002966  -0.024708   0.568899   0.004062  -0.003594
    23  H    0.001642  -0.000050  -0.002815   0.004062   0.509713  -0.024994
    24  H   -0.000069  -0.000090  -0.002061  -0.003594  -0.024994   0.541177
    25  H   -0.000027   0.000011  -0.000086  -0.000082  -0.002091  -0.002384
    26  H    0.000023  -0.000035  -0.000074   0.002464   0.003820  -0.002766
    27  H    0.000071  -0.000000  -0.000000   0.000000  -0.000022  -0.000000
              25         26         27
     1  O    0.000000   0.000000   0.006693
     2  N   -0.000000  -0.000000  -0.000372
     3  O    0.000000   0.000000   0.000063
     4  C    0.000018   0.000006  -0.063204
     5  C   -0.000000  -0.000001   0.001858
     6  N   -0.000071  -0.000065   0.000027
     7  C    0.004992  -0.004442  -0.000387
     8  H   -0.000005   0.001588   0.000008
     9  C   -0.000370   0.001042  -0.000057
    10  C    0.004101  -0.002404   0.000005
    11  C   -0.033939  -0.042319   0.000005
    12  C    0.395374   0.394701  -0.000016
    13  C   -0.034468  -0.044795   0.004738
    14  H   -0.002657  -0.000920  -0.000181
    15  N    0.000797   0.004186  -0.040473
    16  C   -0.000066  -0.000053   0.401852
    17  H   -0.000000   0.000000  -0.000064
    18  H    0.000002  -0.000001   0.000002
    19  H   -0.000027   0.000023   0.000071
    20  H    0.000011  -0.000035  -0.000000
    21  H   -0.000086  -0.000074  -0.000000
    22  H   -0.000082   0.002464   0.000000
    23  H   -0.002091   0.003820  -0.000022
    24  H   -0.002384  -0.002766  -0.000000
    25  H    0.510821  -0.023123  -0.000010
    26  H   -0.023123   0.560933   0.000001
    27  H   -0.000010   0.000001   0.441172
 Mulliken charges:
               1
     1  O   -0.459373
     2  N    0.501162
     3  O   -0.475824
     4  C   -0.019819
     5  C    0.197493
     6  N   -0.792344
     7  C    0.058224
     8  H    0.178534
     9  C   -0.311064
    10  C   -0.321179
    11  C   -0.315677
    12  C   -0.311995
    13  C   -0.028075
    14  H    0.196017
    15  N   -0.497311
    16  C    0.117259
    17  H    0.283937
    18  H    0.396105
    19  H    0.190056
    20  H    0.154277
    21  H    0.172617
    22  H    0.149273
    23  H    0.191342
    24  H    0.162575
    25  H    0.183265
    26  H    0.152234
    27  H    0.248291
 Sum of Mulliken charges =  -0.00000
 Mulliken charges with hydrogens summed into heavy atoms:
               1
     1  O   -0.459373
     2  N    0.501162
     3  O   -0.475824
     4  C   -0.019819
     5  C    0.481430
     6  N   -0.396239
     7  C    0.236758
     9  C    0.033269
    10  C    0.000711
    11  C    0.038239
    12  C    0.023503
    13  C    0.167943
    15  N   -0.497311
    16  C    0.365550
 Electronic spatial extent (au):  <R**2>=           3118.4554
 Charge=             -0.0000 electrons
 Dipole moment (field-independent basis, Debye):
    X=              5.2614    Y=              4.5171    Z=              0.3472  Tot=              6.9432
 Quadrupole moment (field-independent basis, Debye-Ang):
   XX=           -104.8783   YY=            -78.6358   ZZ=            -84.0419
   XY=             -2.2839   XZ=              1.5381   YZ=             -1.7344
 Traceless Quadrupole moment (field-independent basis, Debye-Ang):
   XX=            -15.6930   YY=             10.5495   ZZ=              5.1435
   XY=             -2.2839   XZ=              1.5381   YZ=             -1.7344
 Octapole moment (field-independent basis, Debye-Ang**2):
  XXX=             97.4203  YYY=             34.7577  ZZZ=             -5.2980  XYY=             -7.6148
  XXY=             14.9418  XXZ=             -3.9548  XZZ=             -1.7225  YZZ=             -2.3631
  YYZ=              1.1242  XYZ=              5.0489
 Hexadecapole moment (field-independent basis, Debye-Ang**3):
 XXXX=          -3531.0932 YYYY=           -590.3074 ZZZZ=           -327.0549 XXXY=            -59.7813
 XXXZ=             44.5517 YYYX=            -15.6788 YYYZ=             -0.6996 ZZZX=             22.6413
 ZZZY=             -1.8690 XXYY=           -629.8750 XXZZ=           -570.5331 YYZZ=           -165.8402
 XXYZ=            -23.6518 YYXZ=              7.1366 ZZXY=             -0.5201
 N-N= 9.178392347536D+02 E-N=-3.381700491193D+03  KE= 6.588701003773D+02
 Calling FoFJK, ICntrl=  10002127 FMM=F ISym2X=0 I1Cent= 0 IOpClX= 0 NMat=1 NMatS=1 NMatT=0.
 -------------------------------------------------------------------
 Center     Atomic                   Forces (Hartrees/Bohr)
 Number     Number              X              Y              Z
 -------------------------------------------------------------------
      1        8          -0.001023788   -0.015364922   -0.011465330
      2        7           0.040723086    0.009402946    0.002871267
      3        8          -0.005985173    0.014702714    0.008049139
      4        6          -0.002720532    0.007918044    0.007508429
      5        6           0.004161756   -0.017004520   -0.003141641
      6        7           0.014257378   -0.009311434   -0.006450132
      7        6          -0.004682715    0.005372967    0.003235285
      8        1          -0.010055881   -0.001761388   -0.007672877
      9        6          -0.004032510    0.000128011   -0.002152353
     10        6           0.002832988   -0.000868982    0.001009013
     11        6          -0.001023922   -0.004634550   -0.002302637
     12        6           0.000850266   -0.008729037   -0.002733601
     13        6           0.009035634   -0.001499508    0.004085423
     14        1           0.000888044    0.004210476   -0.010018060
     15        7           0.000638372    0.000458845    0.003277364
     16        6          -0.019701674    0.008861448    0.000380971
     17        1           0.007661893   -0.005863989   -0.004736305
     18        1          -0.017410934   -0.001808465    0.005447697
     19        1           0.003089809    0.006002904    0.007577801
     20        1          -0.003242719   -0.007314517    0.002731538
     21        1          -0.004385363    0.002569858    0.009566617
     22        1          -0.003970750   -0.004110725   -0.007333316
     23        1           0.003941817    0.006280193    0.009188508
     24        1          -0.009376138    0.002564869   -0.002207741
     25        1          -0.000800234    0.010550659   -0.002606899
     26        1          -0.004748610   -0.004896622   -0.004301030
     27        1           0.005079902    0.004144726    0.002192872
 -------------------------------------------------------------------
 Cartesian Forces:  Max     0.040723086 RMS     0.008299905

 GradGradGradGradGradGradGradGradGradGradGradGradGradGradGradGradGradGrad
 Berny optimization.
 FormGI is forming the generalized inverse of G from B-inverse, IUseBI=4.
 Internal  Forces:  Max     0.034746203 RMS     0.006719829
 Search for a local minimum.
 Step number   1 out of a maximum of   20
 All quantities printed in internal units (Hartrees-Bohrs-Radians)
 Mixed Optimization -- RFO/linear search
 Second derivative matrix not updated -- first step.
 ITU=  0
     Eigenvalues ---    0.00232   0.00770   0.01048   0.01148   0.01198
     Eigenvalues ---    0.01484   0.01531   0.01602   0.01976   0.02019
     Eigenvalues ---    0.02096   0.02686   0.03661   0.04506   0.04695
     Eigenvalues ---    0.04838   0.05080   0.05138   0.05304   0.05889
     Eigenvalues ---    0.06266   0.07216   0.07701   0.07724   0.07870
     Eigenvalues ---    0.07994   0.08050   0.08055   0.10459   0.11739
     Eigenvalues ---    0.12269   0.13485   0.15259   0.15734   0.15990
     Eigenvalues ---    0.16000   0.20085   0.21957   0.23150   0.24970
     Eigenvalues ---    0.25000   0.25000   0.25363   0.26188   0.26652
     Eigenvalues ---    0.27981   0.28084   0.28463   0.30232   0.31463
     Eigenvalues ---    0.31653   0.32044   0.32237   0.32290   0.32382
     Eigenvalues ---    0.32387   0.32405   0.32514   0.32526   0.32580
     Eigenvalues ---    0.33368   0.33376   0.33611   0.35326   0.43886
     Eigenvalues ---    0.44399   0.49198   0.67020   0.90503   0.91239
     Eigenvalues --- 1000.000001000.000001000.000001000.000001000.00000
     Eigenvalues --- 1000.000001000.000001000.000001000.000001000.00000
     Eigenvalues --- 1000.000001000.000001000.000001000.000001000.00000
     Eigenvalues --- 1000.000001000.000001000.000001000.000001000.00000
     Eigenvalues --- 1000.000001000.000001000.000001000.000001000.00000
     Eigenvalues --- 1000.000001000.000001000.000001000.000001000.00000
     Eigenvalues --- 1000.000001000.000001000.000001000.000001000.00000
     Eigenvalues --- 1000.000001000.000001000.000001000.000001000.00000
     Eigenvalues --- 1000.000001000.000001000.000001000.000001000.00000
     Eigenvalues --- 1000.000001000.000001000.000001000.000001000.00000
     Eigenvalues --- 1000.000001000.000001000.000001000.000001000.00000
     Eigenvalues --- 1000.000001000.000001000.000001000.000001000.00000
     Eigenvalues --- 1000.000001000.000001000.000001000.000001000.00000
     Eigenvalues --- 1000.000001000.000001000.000001000.000001000.00000
     Eigenvalues --- 1000.000001000.000001000.000001000.000001000.00000
     Eigenvalues --- 1000.000001000.000001000.000001000.000001000.00000
     Eigenvalues --- 1000.000001000.000001000.000001000.000001000.00000
     Eigenvalues --- 1000.000001000.000001000.000001000.000001000.00000
     Eigenvalues --- 1000.00000
 RFO step:  Lambda=-2.30801799D-02 EMin= 2.31697686D-03
 Linear search not attempted -- first point.
 Iteration  1 RMS(Cart)=  0.05974756 RMS(Int)=  0.00207128
 Iteration  2 RMS(Cart)=  0.00220909 RMS(Int)=  0.00051722
 Iteration  3 RMS(Cart)=  0.00000660 RMS(Int)=  0.00051720
 Iteration  4 RMS(Cart)=  0.00000001 RMS(Int)=  0.00051720
 Iteration  1 RMS(Cart)=  0.00001958 RMS(Int)=  0.00001492
 Iteration  2 RMS(Cart)=  0.00001046 RMS(Int)=  0.00001647
 Iteration  3 RMS(Cart)=  0.00000617 RMS(Int)=  0.00001841
 Iteration  4 RMS(Cart)=  0.00000410 RMS(Int)=  0.00001985
 Iteration  5 RMS(Cart)=  0.00000304 RMS(Int)=  0.00002090
 Iteration  6 RMS(Cart)=  0.00000243 RMS(Int)=  0.00002171
 Iteration  7 RMS(Cart)=  0.00000202 RMS(Int)=  0.00002235
 Iteration  8 RMS(Cart)=  0.00000171 RMS(Int)=  0.00002288
 Iteration  9 RMS(Cart)=  0.00000146 RMS(Int)=  0.00002333
 Iteration 10 RMS(Cart)=  0.00000124 RMS(Int)=  0.00002371
 Iteration 11 RMS(Cart)=  0.00000106 RMS(Int)=  0.00002404
 Iteration 12 RMS(Cart)=  0.00000091 RMS(Int)=  0.00002432
 Variable       Old X    -DE/DX   Delta X   Delta X   Delta X     New X
                                 (Linear)    (Quad)   (Total)
    R1        2.32367   0.01839   0.00000   0.01966   0.01966   2.34333
    R2        2.32702   0.01672   0.00000   0.01801   0.01801   2.34503
    R3        2.87503  -0.03475   0.00000  -0.10678  -0.10678   2.76825
    R4        2.64288  -0.03315   0.00000  -0.07156  -0.07131   2.57157
    R5        2.80811  -0.02185   0.00000  -0.06295  -0.06272   2.74539
    R6        2.59049  -0.02470   0.00000  -0.04768  -0.04757   2.54291
    R7        2.08410  -0.01031   0.00000  -0.02891  -0.02891   2.05520
    R8        2.82499  -0.01966   0.00000  -0.05441  -0.05450   2.77050
    R9        1.93291  -0.00662   0.00000  -0.01434  -0.01434   1.91858
   R10        2.11837  -0.01185   0.00000  -0.03509  -0.03509   2.08328
   R11        2.92737  -0.01302   0.00000  -0.04439  -0.04440   2.88297
   R12        2.90346  -0.00452   0.00000  -0.00927  -0.00927   2.89419
   R13        2.91137  -0.00464   0.00000  -0.01442  -0.01444   2.89693
   R14        2.09913  -0.00994   0.00000  -0.02853  -0.02853   2.07060
   R15        2.09892  -0.00804   0.00000  -0.02307  -0.02307   2.07585
   R16        2.90431  -0.00182   0.00000  -0.00718  -0.00723   2.89708
   R17        2.10141  -0.01058   0.00000  -0.03049  -0.03049   2.07092
   R18        2.10316  -0.00901   0.00000  -0.02603  -0.02603   2.07713
   R19        2.91766  -0.00910   0.00000  -0.02893  -0.02891   2.88874
   R20        2.10412  -0.01165   0.00000  -0.03373  -0.03373   2.07039
   R21        2.10109  -0.00994   0.00000  -0.02864  -0.02864   2.07245
   R22        2.93531  -0.01058   0.00000  -0.03650  -0.03647   2.89884
   R23        2.10151  -0.01074   0.00000  -0.03095  -0.03095   2.07055
   R24        2.09796  -0.00786   0.00000  -0.02253  -0.02253   2.07544
   R25        2.10763  -0.00923   0.00000  -0.02687  -0.02687   2.08076
   R26        2.76880  -0.00538   0.00000  -0.01122  -0.01157   2.75723
   R27        2.44266  -0.00466   0.00000  -0.00643  -0.00649   2.43616
   R28        2.07991  -0.00640   0.00000  -0.01781  -0.01781   2.06210
    A1        2.16555   0.00834   0.00000   0.03143   0.02808   2.19363
    A2        2.05381  -0.00441   0.00000  -0.01527  -0.01859   2.03521
    A3        2.06361  -0.00386   0.00000  -0.01324  -0.01656   2.04705
    A4        2.02359  -0.00838   0.00000  -0.02812  -0.02862   1.99497
    A5        2.03618  -0.00090   0.00000  -0.00067  -0.00123   2.03494
    A6        2.22221   0.00919   0.00000   0.02670   0.02684   2.24905
    A7        2.19830   0.00701   0.00000   0.02282   0.02322   2.22152
    A8        2.06208  -0.00304   0.00000  -0.00864  -0.00890   2.05318
    A9        2.02178  -0.00393   0.00000  -0.01340  -0.01369   2.00809
   A10        2.25282  -0.00557   0.00000  -0.01895  -0.01893   2.23389
   A11        2.11650  -0.01241   0.00000  -0.07123  -0.07168   2.04482
   A12        1.87565   0.01817   0.00000   0.09803   0.09814   1.97379
   A13        1.83790  -0.00162   0.00000  -0.01712  -0.01691   1.82099
   A14        2.00648  -0.00098   0.00000  -0.01240  -0.01250   1.99398
   A15        1.96787   0.00085   0.00000  -0.00097  -0.00142   1.96645
   A16        1.85204   0.00266   0.00000   0.02416   0.02401   1.87605
   A17        1.84903   0.00092   0.00000   0.02055   0.02032   1.86935
   A18        1.93651  -0.00149   0.00000  -0.00947  -0.00917   1.92734
   A19        1.91021   0.00013   0.00000  -0.00523  -0.00537   1.90484
   A20        1.92245  -0.00071   0.00000  -0.01295  -0.01292   1.90953
   A21        1.92284  -0.00165   0.00000  -0.00690  -0.00689   1.91595
   A22        1.91925  -0.00043   0.00000   0.00553   0.00547   1.92472
   A23        1.90450   0.00308   0.00000   0.02493   0.02494   1.92944
   A24        1.88438  -0.00039   0.00000  -0.00493  -0.00518   1.87920
   A25        1.94049  -0.00089   0.00000   0.00546   0.00535   1.94583
   A26        1.91892  -0.00070   0.00000  -0.00687  -0.00688   1.91204
   A27        1.90498   0.00032   0.00000  -0.00291  -0.00297   1.90201
   A28        1.91610   0.00079   0.00000   0.00721   0.00725   1.92336
   A29        1.89851   0.00172   0.00000   0.01126   0.01129   1.90979
   A30        1.88380  -0.00123   0.00000  -0.01463  -0.01472   1.86908
   A31        1.94468   0.00064   0.00000   0.00532   0.00546   1.95013
   A32        1.90236   0.00062   0.00000   0.00588   0.00583   1.90819
   A33        1.91743   0.00039   0.00000   0.00529   0.00526   1.92269
   A34        1.90660  -0.00114   0.00000  -0.01439  -0.01444   1.89216
   A35        1.91537  -0.00047   0.00000   0.00020   0.00011   1.91548
   A36        1.87603  -0.00007   0.00000  -0.00269  -0.00272   1.87331
   A37        1.94775  -0.00298   0.00000  -0.01863  -0.01866   1.92909
   A38        1.90598   0.00254   0.00000   0.01677   0.01662   1.92260
   A39        1.91071   0.00138   0.00000   0.01366   0.01363   1.92435
   A40        1.90620   0.00018   0.00000  -0.00314  -0.00299   1.90321
   A41        1.91139  -0.00019   0.00000  -0.00436  -0.00429   1.90710
   A42        1.88057  -0.00087   0.00000  -0.00379  -0.00398   1.87659
   A43        1.84642   0.00454   0.00000   0.02314   0.02317   1.86959
   A44        1.93823  -0.00434   0.00000  -0.03084  -0.03127   1.90696
   A45        1.98376   0.00085   0.00000   0.01137   0.01159   1.99535
   A46        1.88054   0.00226   0.00000   0.03068   0.03097   1.91152
   A47        1.89188  -0.00390   0.00000  -0.02876  -0.02880   1.86308
   A48        1.91836   0.00080   0.00000  -0.00325  -0.00312   1.91524
   A49        2.08409  -0.00581   0.00000  -0.01241  -0.01279   2.07130
   A50        2.24753  -0.00498   0.00000  -0.02162  -0.02159   2.22594
   A51        1.98402   0.00461   0.00000   0.02247   0.02204   2.00606
   A52        2.05162   0.00037   0.00000  -0.00067  -0.00110   2.05052
    D1        2.74368  -0.00102   0.00000  -0.04159  -0.04083   2.70285
    D2       -0.34905   0.00033   0.00000   0.00000  -0.00000  -0.34905
    D3       -0.41944   0.00246   0.00000   0.10252   0.10270  -0.31674
    D4        2.77101   0.00381   0.00000   0.14411   0.14354   2.91455
    D5        3.07730   0.00131   0.00000   0.03269   0.03260   3.10991
    D6       -0.01360   0.00034   0.00000   0.01367   0.01346  -0.00015
    D7       -0.11920  -0.00062   0.00000  -0.01520  -0.01553  -0.13473
    D8        3.07307  -0.00159   0.00000  -0.03422  -0.03467   3.03840
    D9       -2.70858  -0.00207   0.00000  -0.05171  -0.05234  -2.76092
   D10        0.42824  -0.00010   0.00000  -0.00659  -0.00701   0.42123
   D11        0.48827   0.00007   0.00000  -0.00278  -0.00256   0.48571
   D12       -2.65810   0.00204   0.00000   0.04233   0.04276  -2.61533
   D13       -0.12164  -0.00063   0.00000   0.01095   0.01116  -0.11048
   D14        2.68800   0.00320   0.00000   0.06046   0.05941   2.74742
   D15        2.97030   0.00033   0.00000   0.02968   0.02997   3.00027
   D16       -0.50324   0.00416   0.00000   0.07919   0.07822  -0.42502
   D17       -2.48575  -0.00071   0.00000  -0.01344  -0.01306  -2.49881
   D18        1.76570  -0.00238   0.00000  -0.02520  -0.02483   1.74087
   D19       -0.47762  -0.00015   0.00000   0.00048   0.00047  -0.47715
   D20        0.95218  -0.00006   0.00000  -0.03467  -0.03524   0.91694
   D21       -1.07956  -0.00174   0.00000  -0.04642  -0.04701  -1.12657
   D22        2.96031   0.00050   0.00000  -0.02075  -0.02171   2.93860
   D23        2.94398   0.00243   0.00000   0.02818   0.02807   2.97205
   D24       -1.22711   0.00153   0.00000   0.02349   0.02339  -1.20372
   D25        0.84986  -0.00042   0.00000   0.00503   0.00500   0.85486
   D26        0.92033   0.00321   0.00000   0.04016   0.04016   0.96049
   D27        3.03243   0.00231   0.00000   0.03546   0.03548   3.06790
   D28       -1.17379   0.00036   0.00000   0.01701   0.01709  -1.15670
   D29       -1.08035   0.00139   0.00000   0.00723   0.00724  -1.07311
   D30        1.03175   0.00049   0.00000   0.00254   0.00256   1.03431
   D31        3.10872  -0.00146   0.00000  -0.01592  -0.01583   3.09289
   D32       -2.90008  -0.00095   0.00000  -0.01375  -0.01352  -2.91360
   D33       -0.86443   0.00212   0.00000   0.02018   0.02003  -0.84440
   D34        1.30938   0.00038   0.00000   0.00000  -0.00001   1.30937
   D35       -0.89866  -0.00192   0.00000  -0.02256  -0.02247  -0.92113
   D36        1.13700   0.00115   0.00000   0.01137   0.01107   1.14807
   D37       -2.97238  -0.00059   0.00000  -0.00881  -0.00896  -2.98135
   D38        1.10391   0.00099   0.00000   0.01262   0.01272   1.11662
   D39        3.13956   0.00406   0.00000   0.04655   0.04627  -3.09736
   D40       -0.96982   0.00232   0.00000   0.02637   0.02623  -0.94359
   D41        0.95667   0.00067   0.00000   0.00000   0.00001   0.95667
   D42        3.08230   0.00060   0.00000   0.00807   0.00803   3.09033
   D43       -1.13768  -0.00112   0.00000  -0.01550  -0.01547  -1.15315
   D44       -1.15737   0.00174   0.00000   0.01587   0.01594  -1.14143
   D45        0.96826   0.00166   0.00000   0.02394   0.02397   0.99223
   D46        3.03147  -0.00005   0.00000   0.00037   0.00047   3.03193
   D47        3.06199   0.00062   0.00000   0.00369   0.00365   3.06564
   D48       -1.09556   0.00054   0.00000   0.01176   0.01168  -1.08389
   D49        0.96764  -0.00117   0.00000  -0.01181  -0.01183   0.95581
   D50       -0.92193  -0.00081   0.00000   0.00000   0.00001  -0.92192
   D51        1.18341  -0.00142   0.00000  -0.01070  -0.01070   1.17270
   D52       -3.04841  -0.00091   0.00000  -0.00745  -0.00748  -3.05589
   D53       -3.04920   0.00013   0.00000   0.00014   0.00016  -3.04904
   D54       -0.94386  -0.00047   0.00000  -0.01056  -0.01056  -0.95442
   D55        1.10750   0.00003   0.00000  -0.00731  -0.00733   1.10017
   D56        1.17625   0.00015   0.00000   0.00706   0.00709   1.18335
   D57       -3.00159  -0.00046   0.00000  -0.00363  -0.00362  -3.00521
   D58       -0.95023   0.00004   0.00000  -0.00038  -0.00039  -0.95062
   D59        0.98815  -0.00083   0.00000  -0.01156  -0.01160   0.97655
   D60        3.09734  -0.00081   0.00000  -0.01624  -0.01639   3.08095
   D61       -1.13075   0.00042   0.00000  -0.00313  -0.00310  -1.13385
   D62       -1.11469  -0.00126   0.00000  -0.01277  -0.01276  -1.12745
   D63        0.99450  -0.00124   0.00000  -0.01745  -0.01755   0.97695
   D64        3.04959  -0.00000   0.00000  -0.00434  -0.00426   3.04533
   D65        3.11583  -0.00023   0.00000  -0.00118  -0.00118   3.11465
   D66       -1.05817  -0.00021   0.00000  -0.00586  -0.00597  -1.06413
   D67        0.99692   0.00102   0.00000   0.00725   0.00732   1.00425
   D68       -1.05296   0.00003   0.00000  -0.00094  -0.00086  -1.05382
   D69       -3.12725   0.00158   0.00000   0.00755   0.00718  -3.12006
   D70        1.08068   0.00152   0.00000   0.01013   0.01005   1.09073
   D71        3.12116  -0.00136   0.00000  -0.00788  -0.00773   3.11343
   D72        1.04687   0.00019   0.00000   0.00061   0.00031   1.04719
   D73       -1.02839   0.00012   0.00000   0.00319   0.00318  -1.02521
   D74        1.06555  -0.00031   0.00000   0.00108   0.00127   1.06682
   D75       -1.00874   0.00124   0.00000   0.00956   0.00931  -0.99943
   D76       -3.08400   0.00118   0.00000   0.01215   0.01218  -3.07182
   D77       -1.17216   0.00399   0.00000   0.00000  -0.00001  -1.17217
   D78        3.06352   0.00041   0.00000  -0.01654  -0.01643   3.04709
   D79        1.01230  -0.00049   0.00000  -0.03490  -0.03517   0.97713
   D80        0.13526   0.00090   0.00000   0.01143   0.01118   0.14644
   D81       -3.00140  -0.00115   0.00000  -0.03523  -0.03520  -3.03660
         Item               Value     Threshold  Converged?
 Maximum Force            0.034746     0.000450     NO 
 RMS     Force            0.006789     0.000300     NO 
 Maximum Displacement     0.244541     0.001800     NO 
 RMS     Displacement     0.060603     0.001200     NO 
 Predicted change in Energy=-1.313758D-02
 GradGradGradGradGradGradGradGradGradGradGradGradGradGradGradGradGradGrad

                          Input orientation:                          
 ---------------------------------------------------------------------
 Center     Atomic      Atomic             Coordinates (Angstroms)
 Number     Number       Type             X           Y           Z
 ---------------------------------------------------------------------
      1          8           0       -3.530235   -1.210832   -0.708914
      2          7           0       -3.127660   -0.254932   -0.029292
      3          8           0       -3.845121    0.594415    0.521876
      4          6           0       -1.680972   -0.025337   -0.011993
      5          6           0       -1.320902    1.258985    0.257600
      6          7           0       -0.072756    1.749081    0.370363
      7          6           0        1.192260    1.008144    0.358044
      8          1           0        1.825885    1.537711    1.088397
      9          6           0        1.919615    1.032600   -0.982783
     10          6           0        3.322672    0.441300   -0.804333
     11          6           0        3.266863   -0.960465   -0.186073
     12          6           0        2.449660   -0.977276    1.105704
     13          6           0        1.037775   -0.431847    0.856204
     14          1           0        0.471559   -0.430717    1.800555
     15          7           0        0.401551   -1.333144   -0.098654
     16          6           0       -0.839845   -1.147135   -0.392382
     17          1           0       -2.116295    1.980117    0.431127
     18          1           0        0.048511    2.746396    0.223986
     19          1           0        1.351815    0.448654   -1.715720
     20          1           0        1.980509    2.064742   -1.353809
     21          1           0        3.832336    0.407236   -1.773890
     22          1           0        3.910019    1.104608   -0.153778
     23          1           0        2.803403   -1.652568   -0.897794
     24          1           0        4.281353   -1.326716    0.012424
     25          1           0        2.374831   -1.999931    1.491858
     26          1           0        2.942608   -0.368439    1.875460
     27          1           0       -1.323436   -1.889658   -1.029213
 ---------------------------------------------------------------------
                    Distance matrix (angstroms):
                    1          2          3          4          5
     1  O    0.000000
     2  N    1.240039   0.000000
     3  O    2.207468   1.240938   0.000000
     4  C    2.304532   1.464896   2.313579   0.000000
     5  C    3.451854   2.374580   2.623581   1.360814   0.000000
     6  N    4.677616   3.675355   3.948031   2.425101   1.345652
     7  C    5.325806   4.517422   5.056997   3.075788   2.527645
     8  H    6.282741   5.385203   5.776769   3.993999   3.266524
     9  C    5.899903   5.295457   5.973959   3.876324   3.477176
    10  C    7.049893   6.533928   7.291059   5.087437   4.833125
    11  C    6.821773   6.435238   7.314312   5.038436   5.115700
    12  C    6.253521   5.737290   6.514241   4.383783   4.465118
    13  C    4.891128   4.262189   5.000767   2.882812   2.963208
    14  H    4.787522   4.041488   4.617320   2.843071   2.906668
    15  N    3.980744   3.690892   4.704760   2.460644   3.132554
    16  C    2.709695   2.482329   3.591733   1.452797   2.538366
    17  H    3.671659   2.496056   2.217486   2.099455   1.087563
    18  H    5.416399   4.377235   4.458714   3.275561   2.022082
    19  H    5.253757   4.837848   5.660055   3.510719   3.419656
    20  H    6.443103   5.764428   6.294284   4.424403   3.761010
    21  H    7.613131   7.205806   8.015542   5.804133   5.604310
    22  H    7.811967   7.168876   7.801218   5.705792   5.249343
    23  H    6.351832   6.155094   7.160116   4.852024   5.178992
    24  H    7.845678   7.486250   8.365994   6.102746   6.175048
    25  H    6.351053   5.969617   6.808766   4.755011   5.079603
    26  H    7.020421   6.363106   6.988028   5.005766   4.841848
    27  H    2.330957   2.631995   3.864634   2.153662   3.401448
                    6          7          8          9         10
     6  N    0.000000
     7  C    1.466085   0.000000
     8  H    2.040854   1.102424   0.000000
     9  C    2.512746   1.525602   2.133942   0.000000
    10  C    3.823498   2.492206   2.650456   1.532988   0.000000
    11  C    4.336395   2.911265   3.153027   2.534193   1.533070
    12  C    3.786335   2.466160   2.591246   2.946579   2.534315
    13  C    2.495149   1.531537   2.134055   2.510801   2.956438
    14  H    2.663315   2.161150   2.493206   3.461955   3.959129
    15  N    3.153578   2.513050   3.417547   2.946683   3.489926
    16  C    3.091646   3.055784   4.062908   3.565731   4.474303
    17  H    2.057455   3.449146   4.021008   4.380125   5.785904
    18  H    1.015268   2.085102   2.316718   2.809700   4.134131
    19  H    2.841172   2.153831   3.045302   1.095713   2.171396
    20  H    2.699687   2.160596   2.503206   1.098493   2.176900
    21  H    4.652754   3.446192   3.673759   2.162275   1.095882
    22  H    4.068485   2.767216   2.464588   2.157347   1.099171
    23  H    4.631601   3.354444   3.883088   2.828149   2.159319
    24  H    5.342931   3.887611   3.923262   3.483478   2.170723
    25  H    4.615574   3.425277   3.602643   3.940472   3.482888
    26  H    3.980154   2.694671   2.345196   3.343498   2.825141
    27  H    4.094318   4.080498   5.113644   4.365675   5.202908
                   11         12         13         14         15
    11  C    0.000000
    12  C    1.528657   0.000000
    13  C    2.516865   1.534001   0.000000
    14  H    3.470021   2.166662   1.101090   0.000000
    15  N    2.890769   2.402472   1.459065   2.103870   0.000000
    16  C    4.116122   3.618557   2.365600   2.653678   1.289163
    17  H    6.164929   5.481713   3.993297   3.792683   4.194987
    18  H    4.926130   4.517596   3.388152   3.571916   4.107478
    19  H    2.827162   3.346487   2.736549   3.729924   2.587026
    20  H    3.488580   3.939947   3.464948   4.295842   3.951474
    21  H    2.170605   3.481484   3.928234   4.977313   4.195905
    22  H    2.163150   2.837813   3.410358   4.242599   4.272589
    23  H    1.095603   2.143632   2.772022   3.769814   2.551381
    24  H    1.096691   2.161590   3.468941   4.302877   3.881397
    25  H    2.166025   1.095690   2.156539   2.485994   2.620719
    26  H    2.169230   1.098273   2.161317   2.472968   3.359279
    27  H    4.758689   4.430188   3.354896   3.654874   2.037456
                   16         17         18         19         20
    16  C    0.000000
    17  H    3.476665   0.000000
    18  H    4.040874   2.305748   0.000000
    19  H    3.016810   4.356848   3.277297   0.000000
    20  H    4.381198   4.469559   2.585866   1.771434   0.000000
    21  H    5.114089   6.536227   4.876526   2.481549   2.520528
    22  H    5.261985   6.117605   4.213006   3.068281   2.466768
    23  H    3.712702   6.258263   5.310244   2.681649   3.834514
    24  H    5.140310   7.213900   5.878090   3.836745   4.320008
    25  H    3.822534   6.093943   5.435704   4.163014   4.977437
    26  H    4.478440   5.761450   4.561289   4.011838   4.156222
    27  H    1.091217   4.211459   4.994571   3.618834   5.163206
                   21         22         23         24         25
    21  H    0.000000
    22  H    1.765539   0.000000
    23  H    2.463542   3.062707   0.000000
    24  H    2.529649   2.465126   1.766073   0.000000
    25  H    4.310903   3.834460   2.452503   2.505349   0.000000
    26  H    3.835498   2.687668   3.059298   2.486249   1.769545
    27  H    5.693175   6.092706   4.135731   5.728487   4.477179
                   26         27
    26  H    0.000000
    27  H    5.380554   0.000000
 Symmetry turned off by external request.
 Stoichiometry    C9H13N3O2
 Framework group  C1[X(C9H13N3O2)]
 Deg. of freedom    75
 Full point group                 C1      NOp   1
 Rotational constants (GHZ):           1.6898165           0.4173571           0.3752075
 Standard basis: 6-31G(d) (6D, 7F)
   236 basis functions,   444 primitive gaussians,   236 cartesian basis functions
    52 alpha electrons       52 beta electrons
       nuclear repulsion energy       931.9838028448 Hartrees.
 NAtoms=   27 NActive=   27 NUniq=   27 SFac= 1.00D+00 NAtFMM=   60 NAOKFM=F Big=F
 Integral buffers will be    131072 words long.
 Raffenetti 1 integral format.
 Two-electron integral symmetry is turned off.
 One-electron integrals computed using PRISM.
 NBasis=   236 RedAO= T EigKep=  1.19D-03  NBF=   236
 NBsUse=   236 1.00D-06 EigRej= -1.00D+00 NBFU=   236
 Initial guess from the checkpoint file:  "/home/alexey/tmp/Gau-1116160.chk"
 B after Tr=     0.052692    0.009919   -0.007320
         Rot=    0.999993    0.000976    0.002714    0.002172 Ang=   0.41 deg.
 ExpMin= 1.61D-01 ExpMax= 5.48D+03 ExpMxC= 8.25D+02 IAcc=3 IRadAn=         5 AccDes= 0.00D+00
 Harris functional with IExCor=  205 and IRadAn=       5 diagonalized for initial guess.
 HarFok:  IExCor=  205 AccDes= 0.00D+00 IRadAn=         5 IDoV= 1 UseB2=F ITyADJ=14
 ICtDFT=  3500011 ScaDFX=  1.000000  1.000000  1.000000  1.000000
 FoFCou: FMM=F IPFlag=           0 FMFlag=      100000 FMFlg1=           0
         NFxFlg=           0 DoJE=T BraDBF=F KetDBF=T FulRan=T
         wScrn=  0.000000 ICntrl=       500 IOpCl=  0 I1Cent=   200000004 NGrid=           0
         NMat0=    1 NMatS0=      1 NMatT0=    0 NMatD0=    1 NMtDS0=    0 NMtDT0=    0
 Symmetry not used in FoFCou.
 Keep R1 ints in memory in canonical form, NReq=397720213.
 Requested convergence on RMS density matrix=1.00D-08 within 128 cycles.
 Requested convergence on MAX density matrix=1.00D-06.
 Requested convergence on             energy=1.00D-06.
 No special actions if energy rises.
 SCF Done:  E(RHF) =  -661.296256308     A.U. after   15 cycles
            NFock= 15  Conv=0.69D-08     -V/T= 2.0024
 ExpMin= 1.61D-01 ExpMax= 5.48D+03 ExpMxC= 8.25D+02 IAcc=3 IRadAn=         5 AccDes= 0.00D+00
 HarFok:  IExCor=  205 AccDes= 0.00D+00 IRadAn=         5 IDoV=-2 UseB2=F ITyADJ=14
 ICtDFT= 12500011 ScaDFX=  1.000000  1.000000  1.000000  1.000000
 Range of M.O.s used for correlation:    15   236
 NBasis=   236 NAE=    52 NBE=    52 NFC=    14 NFV=     0
 NROrb=    222 NOA=    38 NOB=    38 NVA=   184 NVB=   184
 Fully direct method using O(ONN) memory.
 JobTyp=1 Pass  1:  I=  15 to  52 NPSUse=  4 ParTrn=T ParDer=T DoDerP=T.
 Spin components of T(2) and E(2):
     alpha-alpha T2 =       0.9133436642D-01 E2=     -0.2724597870D+00
     alpha-beta  T2 =       0.4918247604D+00 E2=     -0.1488677957D+01
     beta-beta   T2 =       0.9133436642D-01 E2=     -0.2724597870D+00
 ANorm=    0.1294022215D+01
 E2 =    -0.2033597531D+01 EUMP2 =    -0.66332985383836D+03
          IDoAtm=111111111111111111111111111
          Differentiating once with respect to electric field.
                with respect to dipole field.
          Differentiating once with respect to nuclear coordinates.
 Keep R1 ints in memory in canonical form, NReq=397723379.
          There are     1 degrees of freedom in the 1st order CPHF.  IDoFFX=0 NUNeed=     1.
 LinEq1:  Iter=  0 NonCon=     1 RMS=4.56D-03 Max=1.24D-01 NDo=     1
 AX will form     1 AO Fock derivatives at one time.
 LinEq1:  Iter=  1 NonCon=     1 RMS=1.53D-03 Max=2.80D-02 NDo=     1
 LinEq1:  Iter=  2 NonCon=     1 RMS=6.42D-04 Max=1.98D-02 NDo=     1
 LinEq1:  Iter=  3 NonCon=     1 RMS=2.80D-04 Max=7.64D-03 NDo=     1
 LinEq1:  Iter=  4 NonCon=     1 RMS=8.75D-05 Max=1.73D-03 NDo=     1
 LinEq1:  Iter=  5 NonCon=     1 RMS=3.65D-05 Max=1.67D-03 NDo=     1
 LinEq1:  Iter=  6 NonCon=     1 RMS=1.45D-05 Max=5.07D-04 NDo=     1
 LinEq1:  Iter=  7 NonCon=     1 RMS=5.66D-06 Max=7.75D-05 NDo=     1
[...]
    26  H    2.175752   1.098777   2.167344   2.498613   3.362095
    27  H    4.727938   4.420476   3.359708   3.655166   2.032811
                   16         17         18         19         20
    16  C    0.000000
    17  H    3.467585   0.000000
    18  H    4.092740   2.234153   0.000000
    19  H    2.994477   4.327680   3.513354   0.000000
    20  H    4.381366   4.477001   2.887616   1.768519   0.000000
    21  H    5.098587   6.529079   5.090841   2.499344   2.521194
    22  H    5.252518   6.106294   4.318164   3.070320   2.461867
    23  H    3.692362   6.236020   5.421269   2.703671   3.842731
    24  H    5.132768   7.196291   5.938598   3.849280   4.317269
    25  H    3.820204   6.064420   5.367872   4.171489   4.985165
    26  H    4.496560   5.757558   4.484058   4.034907   4.181386
    27  H    1.089809   4.226350   5.086502   3.595909   5.161202
                   21         22         23         24         25
    21  H    0.000000
    22  H    1.758859   0.000000
    23  H    2.469579   3.062336   0.000000
    24  H    2.517234   2.460053   1.764505   0.000000
    25  H    4.312016   3.839239   2.444326   2.519454   0.000000
    26  H    3.846327   2.703774   3.060447   2.492517   1.768049
    27  H    5.662106   6.069052   4.092953   5.697037   4.452957
                   26         27
    26  H    0.000000
    27  H    5.380557   0.000000
 Symmetry turned off by external request.
 Stoichiometry    C9H13N3O2
 Framework group  C1[X(C9H13N3O2)]
 Deg. of freedom    75
 Full point group                 C1      NOp   1
 Rotational constants (GHZ):           1.6815167           0.4153624           0.3756072

 **********************************************************************

            Population analysis using the SCF Density.

 **********************************************************************

 Alpha  occ. eigenvalues --  -20.59407 -20.59231 -15.84814 -15.63905 -15.56160
 Alpha  occ. eigenvalues --  -11.34975 -11.29602 -11.29552 -11.28676 -11.27120
 Alpha  occ. eigenvalues --  -11.23660 -11.23166 -11.22666 -11.22065  -1.57264
 Alpha  occ. eigenvalues --   -1.36884  -1.30815  -1.23052  -1.14709  -1.09822
 Alpha  occ. eigenvalues --   -1.02755  -1.01266  -0.94456  -0.89732  -0.85507
 Alpha  occ. eigenvalues --   -0.82480  -0.78556  -0.77497  -0.75141  -0.72037
 Alpha  occ. eigenvalues --   -0.70053  -0.69171  -0.67879  -0.64847  -0.63769
 Alpha  occ. eigenvalues --   -0.62285  -0.60360  -0.57687  -0.56931  -0.55015
 Alpha  occ. eigenvalues --   -0.54504  -0.50849  -0.50052  -0.48834  -0.48112
 Alpha  occ. eigenvalues --   -0.47466  -0.46333  -0.45918  -0.43749  -0.41713
 Alpha  occ. eigenvalues --   -0.39821  -0.33679
 Alpha virt. eigenvalues --    0.07743   0.11532   0.17395   0.21872   0.23981
 Alpha virt. eigenvalues --    0.25162   0.26903   0.28487   0.29113   0.29497
 Alpha virt. eigenvalues --    0.30775   0.31859   0.32045   0.32803   0.34021
 Alpha virt. eigenvalues --    0.34409   0.35844   0.37385   0.38640   0.40222
 Alpha virt. eigenvalues --    0.41205   0.42595   0.45444   0.46271   0.46894
 Alpha virt. eigenvalues --    0.47177   0.48754   0.54039   0.57745   0.59615
 Alpha virt. eigenvalues --    0.63619   0.69706   0.69972   0.72779   0.74315
 Alpha virt. eigenvalues --    0.74695   0.75811   0.76560   0.78609   0.79778
 Alpha virt. eigenvalues --    0.80456   0.84664   0.85670   0.85948   0.88586
 Alpha virt. eigenvalues --    0.89479   0.91059   0.92075   0.92943   0.94317
 Alpha virt. eigenvalues --    0.95753   0.97863   0.99949   1.01435   1.02559
 Alpha virt. eigenvalues --    1.03260   1.06012   1.06743   1.07967   1.09158
 Alpha virt. eigenvalues --    1.09392   1.11300   1.11878   1.12752   1.13974
 Alpha virt. eigenvalues --    1.14765   1.14905   1.15810   1.17036   1.18845
 Alpha virt. eigenvalues --    1.19016   1.20295   1.21858   1.23380   1.23644
 Alpha virt. eigenvalues --    1.25088   1.25539   1.27769   1.28499   1.29988
 Alpha virt. eigenvalues --    1.30693   1.33601   1.35450   1.37157   1.39322
 Alpha virt. eigenvalues --    1.41432   1.46961   1.47563   1.50556   1.52534
 Alpha virt. eigenvalues --    1.55261   1.57832   1.60533   1.63887   1.65437
 Alpha virt. eigenvalues --    1.67347   1.68415   1.72559   1.73955   1.77302
 Alpha virt. eigenvalues --    1.78962   1.84737   1.87144   1.90777   1.92234
 Alpha virt. eigenvalues --    1.93376   1.95902   1.99862   2.02237   2.02451
 Alpha virt. eigenvalues --    2.03140   2.05754   2.08469   2.09194   2.13537
 Alpha virt. eigenvalues --    2.13774   2.15600   2.19130   2.20048   2.22581
 Alpha virt. eigenvalues --    2.24308   2.24919   2.25559   2.28252   2.29656
 Alpha virt. eigenvalues --    2.31325   2.33699   2.35519   2.35991   2.38938
 Alpha virt. eigenvalues --    2.39719   2.41614   2.43126   2.45528   2.46584
 Alpha virt. eigenvalues --    2.49964   2.51776   2.53113   2.55447   2.61043
 Alpha virt. eigenvalues --    2.62134   2.65148   2.68288   2.69777   2.70461
 Alpha virt. eigenvalues --    2.72121   2.72483   2.74713   2.78164   2.87369
 Alpha virt. eigenvalues --    2.89364   2.89519   2.90755   2.93943   2.95134
 Alpha virt. eigenvalues --    2.99943   3.00813   3.04158   3.05095   3.08735
 Alpha virt. eigenvalues --    3.09297   3.14823   3.21541   3.22376   3.25690
 Alpha virt. eigenvalues --    3.33321   3.37349   3.38955   3.50263   3.65650
 Alpha virt. eigenvalues --    4.11450   4.25562   4.29802   4.37797   4.47297
 Alpha virt. eigenvalues --    4.56158   4.61878   4.62626   4.73697   4.79361
 Alpha virt. eigenvalues --    4.99138   5.00914   5.05144   5.11012
          Condensed to atoms (all electrons):
               1          2          3          4          5          6
     1  O    8.312808   0.304820  -0.080768  -0.083020   0.003051  -0.000019
     2  N    0.304820   5.740614   0.302860   0.247102  -0.047567   0.001236
     3  O   -0.080768   0.302860   8.336933  -0.091816   0.005219   0.000679
     4  C   -0.083020   0.247102  -0.091816   5.240704   0.556500  -0.050421
     5  C    0.003051  -0.047567   0.005219   0.556500   4.701272   0.321865
     6  N   -0.000019   0.001236   0.000679  -0.050421   0.321865   7.192849
     7  C    0.000000  -0.000130   0.000007   0.003520  -0.032538   0.172703
     8  H   -0.000000   0.000002  -0.000000  -0.000246   0.003028  -0.050791
     9  C   -0.000000  -0.000004   0.000000   0.000911   0.000767  -0.061580
    10  C   -0.000000   0.000000  -0.000000  -0.000036  -0.000057   0.003732
    11  C   -0.000000  -0.000000  -0.000000  -0.000035   0.000024  -0.000190
    12  C    0.000000   0.000002  -0.000000  -0.000098  -0.000153   0.003898
    13  C   -0.000009  -0.000062  -0.000008  -0.011455  -0.000134  -0.048700
    14  H    0.000000  -0.000102  -0.000003   0.002743   0.006768  -0.007177
    15  N    0.000514   0.002214  -0.000011  -0.063028  -0.007193   0.001992
    16  C    0.002264  -0.028634   0.002627   0.330318  -0.047947  -0.001893
    17  H    0.000199  -0.005929   0.014583  -0.029050   0.380004  -0.033812
    18  H    0.000001  -0.000055   0.000009   0.001744  -0.030729   0.338066
    19  H    0.000001  -0.000004   0.000000  -0.001138   0.001190  -0.000276
    20  H    0.000000  -0.000000   0.000000  -0.000087   0.000163  -0.000457
    21  H   -0.000000   0.000000   0.000000   0.000001   0.000001  -0.000076
    22  H    0.000000   0.000000  -0.000000  -0.000000  -0.000003  -0.000116
    23  H    0.000000  -0.000000   0.000000   0.000041   0.000001  -0.000031
    24  H    0.000000   0.000000   0.000000   0.000000  -0.000000   0.000006
    25  H    0.000000  -0.000000   0.000000   0.000025   0.000000  -0.000092
    26  H    0.000000  -0.000000   0.000000   0.000006  -0.000002  -0.000057
    27  H    0.007213  -0.000939   0.000055  -0.060935   0.002123  -0.000005
               7          8          9         10         11         12
     1  O    0.000000  -0.000000  -0.000000  -0.000000  -0.000000   0.000000
     2  N   -0.000130   0.000002  -0.000004   0.000000  -0.000000   0.000002
     3  O    0.000007  -0.000000   0.000000  -0.000000  -0.000000  -0.000000
     4  C    0.003520  -0.000246   0.000911  -0.000036  -0.000035  -0.000098
     5  C   -0.032538   0.003028   0.000767  -0.000057   0.000024  -0.000153
     6  N    0.172703  -0.050791  -0.061580   0.003732  -0.000190   0.003898
     7  C    5.015092   0.418394   0.350399  -0.054689  -0.008993  -0.061522
     8  H    0.418394   0.538633  -0.055252   0.000777  -0.000314  -0.002228
     9  C    0.350399  -0.055252   5.158543   0.324622  -0.050444  -0.005304
    10  C   -0.054689   0.000777   0.324622   5.119693   0.336982  -0.060976
    11  C   -0.008993  -0.000314  -0.050444   0.336982   5.120286   0.335970
    12  C   -0.061522  -0.002228  -0.005304  -0.060976   0.335970   5.119134
    13  C    0.339607  -0.037805  -0.060402  -0.000314  -0.050733   0.371922
    14  H   -0.046420  -0.000716   0.004406  -0.000401   0.004187  -0.036181
    15  N   -0.058804   0.003915  -0.014552   0.001620  -0.013161  -0.082444
    16  C   -0.001146  -0.000052  -0.000982  -0.000041   0.000054   0.002476
    17  H    0.001765  -0.000045  -0.000080   0.000001   0.000000   0.000000
    18  H   -0.021300  -0.004412   0.001320  -0.000084   0.000004  -0.000115
    19  H   -0.036772   0.004369   0.390265  -0.032181  -0.002218   0.000692
    20  H   -0.042201  -0.002042   0.399337  -0.035312   0.003932  -0.000413
    21  H    0.004590  -0.000078  -0.036317   0.402435  -0.034917   0.004346
    22  H   -0.004841   0.003567  -0.046894   0.397663  -0.045403  -0.001036
    23  H    0.000590   0.000035  -0.001961  -0.039045   0.399193  -0.037956
    24  H   -0.000131  -0.000101   0.004381  -0.038410   0.402297  -0.038651
    25  H    0.005158  -0.000023  -0.000427   0.004195  -0.033422   0.398197
    26  H   -0.003898   0.001664   0.000968  -0.002235  -0.041434   0.396696
    27  H   -0.000372   0.000008  -0.000053   0.000006   0.000012  -0.000031
              13         14         15         16         17         18
     1  O   -0.000009   0.000000   0.000514   0.002264   0.000199   0.000001
     2  N   -0.000062  -0.000102   0.002214  -0.028634  -0.005929  -0.000055
     3  O   -0.000008  -0.000003  -0.000011   0.002627   0.014583   0.000009
     4  C   -0.011455   0.002743  -0.063028   0.330318  -0.029050   0.001744
     5  C   -0.000134   0.006768  -0.007193  -0.047947   0.380004  -0.030729
     6  N   -0.048700  -0.007177   0.001992  -0.001893  -0.033812   0.338066
     7  C    0.339607  -0.046420  -0.058804  -0.001146   0.001765  -0.021300
     8  H   -0.037805  -0.000716   0.003915  -0.000052  -0.000045  -0.004412
     9  C   -0.060402   0.004406  -0.014552  -0.000982  -0.000080   0.001320
    10  C   -0.000314  -0.000401   0.001620  -0.000041   0.000001  -0.000084
    11  C   -0.050733   0.004187  -0.013161   0.000054   0.000000   0.000004
    12  C    0.371922  -0.036181  -0.082444   0.002476   0.000000  -0.000115
    13  C    5.040234   0.402976   0.245809  -0.069699  -0.000012   0.002992
    14  H    0.402976   0.526107  -0.037184  -0.005413   0.000103  -0.000101
    15  N    0.245809  -0.037184   6.965766   0.582925  -0.000077  -0.000129
    16  C   -0.069699  -0.005413   0.582925   4.714654   0.001782  -0.000172
    17  H   -0.000012   0.000103  -0.000077   0.001782   0.385036  -0.002992
    18  H    0.002992  -0.000101  -0.000129  -0.000172  -0.002992   0.311538
    19  H   -0.007595   0.000107   0.007678   0.002759   0.000017  -0.000146
    20  H    0.004343  -0.000067   0.000128  -0.000039   0.000003   0.000797
    21  H   -0.000428   0.000010  -0.000041   0.000004  -0.000000   0.000001
    22  H    0.000040  -0.000055   0.000021  -0.000002   0.000000   0.000001
    23  H   -0.007579   0.000003   0.008634   0.000112   0.000000   0.000000
    24  H    0.004698  -0.000056   0.000133   0.000007   0.000000  -0.000000
    25  H   -0.035599  -0.002810   0.000468  -0.000028  -0.000000   0.000002
    26  H   -0.047347  -0.001051   0.004912  -0.000059   0.000000  -0.000000
    27  H    0.004855  -0.000189  -0.040468   0.402814  -0.000082   0.000001
              19         20         21         22         23         24
     1  O    0.000001   0.000000  -0.000000   0.000000   0.000000   0.000000
     2  N   -0.000004  -0.000000   0.000000   0.000000  -0.000000   0.000000
     3  O    0.000000   0.000000   0.000000  -0.000000   0.000000   0.000000
     4  C   -0.001138  -0.000087   0.000001  -0.000000   0.000041   0.000000
     5  C    0.001190   0.000163   0.000001  -0.000003   0.000001  -0.000000
     6  N   -0.000276  -0.000457  -0.000076  -0.000116  -0.000031   0.000006
     7  C   -0.036772  -0.042201   0.004590  -0.004841   0.000590  -0.000131
     8  H    0.004369  -0.002042  -0.000078   0.003567   0.000035  -0.000101
     9  C    0.390265   0.399337  -0.036317  -0.046894  -0.001961   0.004381
    10  C   -0.032181  -0.035312   0.402435   0.397663  -0.039045  -0.038410
    11  C   -0.002218   0.003932  -0.034917  -0.045403   0.399193   0.402297
    12  C    0.000692  -0.000413   0.004346  -0.001036  -0.037956  -0.038651
    13  C   -0.007595   0.004343  -0.000428   0.000040  -0.007579   0.004698
    14  H    0.000107  -0.000067   0.000010  -0.000055   0.000003  -0.000056
    15  N    0.007678   0.000128  -0.000041   0.000021   0.008634   0.000133
    16  C    0.002759  -0.000039   0.000004  -0.000002   0.000112   0.000007
    17  H    0.000017   0.000003  -0.000000   0.000000   0.000000   0.000000
    18  H   -0.000146   0.000797   0.000001   0.000001   0.000000  -0.000000
    19  H    0.504888  -0.024655  -0.002785   0.003961   0.001521  -0.000066
    20  H   -0.024655   0.541081  -0.002690  -0.002982  -0.000046  -0.000083
    21  H   -0.002785  -0.002690   0.524132  -0.027425  -0.002900  -0.002242
    22  H    0.003961  -0.002982  -0.027425   0.571443   0.004139  -0.003650
    23  H    0.001521  -0.000046  -0.002900   0.004139   0.499246  -0.025462
    24  H   -0.000066  -0.000083  -0.002242  -0.003650  -0.025462   0.538225
    25  H   -0.000028   0.000013  -0.000087  -0.000080  -0.002313  -0.002301
    26  H    0.000020  -0.000030  -0.000081   0.002379   0.004068  -0.003023
    27  H    0.000075   0.000000  -0.000000   0.000000  -0.000035  -0.000000
              25         26         27
     1  O    0.000000   0.000000   0.007213
     2  N   -0.000000  -0.000000  -0.000939
     3  O    0.000000   0.000000   0.000055
     4  C    0.000025   0.000006  -0.060935
     5  C    0.000000  -0.000002   0.002123
     6  N   -0.000092  -0.000057  -0.000005
     7  C    0.005158  -0.003898  -0.000372
     8  H   -0.000023   0.001664   0.000008
     9  C   -0.000427   0.000968  -0.000053
    10  C    0.004195  -0.002235   0.000006
    11  C   -0.033422  -0.041434   0.000012
    12  C    0.398197   0.396696  -0.000031
    13  C   -0.035599  -0.047347   0.004855
    14  H   -0.002810  -0.001051  -0.000189
    15  N    0.000468   0.004912  -0.040468
    16  C   -0.000028  -0.000059   0.402814
    17  H   -0.000000   0.000000  -0.000082
    18  H    0.000002  -0.000000   0.000001
    19  H   -0.000028   0.000020   0.000075
    20  H    0.000013  -0.000030   0.000000
    21  H   -0.000087  -0.000081  -0.000000
    22  H   -0.000080   0.002379   0.000000
    23  H   -0.002313   0.004068  -0.000035
    24  H   -0.002301  -0.003023  -0.000000
    25  H    0.506746  -0.024102  -0.000012
    26  H   -0.024102   0.562160   0.000001
    27  H   -0.000012   0.000001   0.431554
 Mulliken charges:
               1
     1  O   -0.467055
     2  N    0.484576
     3  O   -0.490366
     4  C    0.007752
     5  C    0.184349
     6  N   -0.781334
     7  C    0.061932
     8  H    0.179712
     9  C   -0.301665
    10  C   -0.327945
    11  C   -0.321676
    12  C   -0.306225
    13  C   -0.039596
    14  H    0.190515
    15  N   -0.509633
    16  C    0.113315
    17  H    0.288587
    18  H    0.403757
    19  H    0.190322
    20  H    0.161306
    21  H    0.174549
    22  H    0.149273
    23  H    0.199746
    24  H    0.164431
    25  H    0.186520
    26  H    0.150448
    27  H    0.254405
 Sum of Mulliken charges =  -0.00000
 Mulliken charges with hydrogens summed into heavy atoms:
               1
     1  O   -0.467055
     2  N    0.484576
     3  O   -0.490366
     4  C    0.007752
     5  C    0.472936
     6  N   -0.377576
     7  C    0.241644
     9  C    0.049963
    10  C   -0.004124
    11  C    0.042501
    12  C    0.030742
    13  C    0.150920
    15  N   -0.509633
    16  C    0.367720
 Electronic spatial extent (au):  <R**2>=           3003.9467
 Charge=              0.0000 electrons
 Dipole moment (field-independent basis, Debye):
    X=              5.2778    Y=              4.6890    Z=              1.2258  Tot=              7.1655
 Quadrupole moment (field-independent basis, Debye-Ang):
   XX=           -105.6063   YY=            -77.6329   ZZ=            -83.2829
   XY=             -1.7249   XZ=              0.1559   YZ=              0.3541
 Traceless Quadrupole moment (field-independent basis, Debye-Ang):
   XX=            -16.7656   YY=             11.2078   ZZ=              5.5578
   XY=             -1.7249   XZ=              0.1559   YZ=              0.3541
 Octapole moment (field-independent basis, Debye-Ang**2):
  XXX=             89.4944  YYY=             34.2357  ZZZ=             -0.4643  XYY=            -10.7178
  XXY=             10.5812  XXZ=              2.4181  XZZ=             -3.8234  YZZ=              0.1704
  YYZ=              8.0460  XYZ=              5.6034
 Hexadecapole moment (field-independent basis, Debye-Ang**3):
 XXXX=          -3369.6293 YYYY=           -570.5607 ZZZZ=           -331.8037 XXXY=            -28.8029
 XXXZ=              1.6925 YYYX=             -3.3320 YYYZ=             14.5985 ZZZX=              0.9267
 ZZZY=             -3.1823 XXYY=           -602.4634 XXZZ=           -548.8792 YYZZ=           -158.8646
 XXYZ=            -25.9089 YYXZ=              0.1869 ZZXY=              1.2394
 N-N= 9.310542384507D+02 E-N=-3.408806370179D+03  KE= 6.596213493336D+02
 Unable to Open any file for archive entry.
 1\1\GINC-LOTUS\FOpt\RMP2-FC\6-31G(d)\C9H13N3O2\ALEXEY\30-Jun-2023\0\\#
 MP2/6-31G* SCF=Tight Opt=(ModRedun, MaxCycle=20 ) NoSymm\\MolName:\\0,
 1\O,-3.5285706233,-1.1771320885,-0.8163964557\N,-3.1202803041,-0.23460
 3262,-0.1111834226\O,-3.8718028783,0.5478124807,0.5031259609\C,-1.6831
 692801,-0.0315900643,-0.0267378747\C,-1.3038641155,1.2522607323,0.2668
 185064\N,-0.0608708512,1.7542731821,0.3487543531\C,1.2049042707,1.0322
 976099,0.3382076257\H,1.8497264131,1.5751397069,1.0459149914\C,1.91279
 95234,1.0184091493,-1.0151761064\C,3.3107189789,0.415141546,-0.8352686
 788\C,3.2605365775,-0.9691169418,-0.1830860983\C,2.4611274778,-0.95549
 7122,1.1216351434\C,1.0519317911,-0.4073375473,0.8685680602\H,0.470500
 7011,-0.3693063422,1.8033746342\N,0.4105040584,-1.3222907435,-0.070554
 5486\C,-0.8366145385,-1.1532897371,-0.3758687004\H,-2.1001206255,1.973
 6515025,0.4303173968\H,-0.006812026,2.7431897017,0.5618910152\H,1.3209
 817388,0.427415481,-1.7223610488\H,1.9797341373,2.0390500019,-1.411975
 8388\H,3.8180162334,0.3590123307,-1.8051854264\H,3.9083892162,1.093077
 9699,-0.2093896445\H,2.7849631757,-1.6787020782,-0.8674539787\H,4.2790
 509761,-1.3295195969,0.0038960554\H,2.3751197077,-1.9699449506,1.52460
 295\H,2.9678006208,-0.342508645,1.8798157826\H,-1.2987003557,-1.924902
 2754,-0.9913146526\\Version=ES64L-G16RevC.02\HF=-661.2982884\MP2=-663.
 3335863\RMSD=4.313e-09\RMSF=7.744e-04\Dipole=1.9306138,1.6620495,0.446
 199\PG=C01 [X(C9H13N3O2)]\\@
 The archive entry for this job was punched.


 IF IT'S NOT TRUE, IT'S WELL INVENTED -- DANTE
 Job cpu time:       0 days  1 hours 19 minutes 48.6 seconds.
 Elapsed time:       0 days  0 hours 23 minutes 43.9 seconds.
 File lengths (MBytes):  RWF=     36 Int=      0 D2E=      0 Chk=      7 Scr=      1
 Normal termination of Gaussian 16 at Fri Jun 30 09:27:47 2023.
