 Entering Gaussian System, Link 0=g16
 Initial command:
 /home/alexey/programs//g16/l1.exe "/home/alexey/tmp/Gau-1107552.inp" -scrdir="/home/alexey/tmp/"
 Entering Link 1 = /home/alexey/programs//g16/l1.exe PID=   1107554.
  
 Copyright (c) 1988-2021, Gaussian, Inc.  All Rights Reserved.
  
 This is part of the Gaussian(R) 16 program.  It is based on
 the Gaussian(R) 09 system (copyright 2009, Gaussian, Inc.),
 the Gaussian(R) 03 system (copyright 2003, Gaussian, Inc.),
 the Gaussian(R) 98 system (copyright 1998, Gaussian, Inc.),
 the Gaussian(R) 94 system (copyright 1995, Gaussian, Inc.),
 the Gaussian 92(TM) system (copyright 1992, Gaussian, Inc.),
 the Gaussian 90(TM) system (copyright 1990, Gaussian, Inc.),
 the Gaussian 88(TM) system (copyright 1988, Gaussian, Inc.),
 the Gaussian 86(TM) system (copyright 1986, Carnegie Mellon
 University), and the Gaussian 82(TM) system (copyright 1983,
 Carnegie Mellon University). Gaussian is a federally registered
 trademark of Gaussian, Inc.
  
 This software contains proprietary and confidential information,
 including trade secrets, belonging to Gaussian, Inc.
  
 This software is provided under written license and may be
 used, copied, transmitted, or stored only in accord with that
 written license.
  
 The following legend is applicable only to US Government
 contracts under FAR:
  
                    RESTRICTED RIGHTS LEGEND
  
 Use, reproduction and disclosure by the US Government is
 subject to restrictions as set forth in subparagraphs (a)
 and (c) of the Commercial Computer Software - Restricted
 Rights clause in FAR 52.227-19.
  
 Gaussian, Inc.
 340 Quinnipiac St., Bldg. 40, Wallingford CT 06492
  
  
 ---------------------------------------------------------------
 Warning -- This program may not be used in any manner that
 competes with the business of Gaussian, Inc. or will provide
 assistance to any competitor of Gaussian, Inc.  The licensee
 of this program is prohibited from giving any competitor of
 Gaussian, Inc. access to this program.  By using this program,
 the user acknowledges that Gaussian, Inc. is engaged in the
 business of creating and licensing software in the field of
 computational chemistry and represents and warrants to the
 licensee that it is not a competitor of Gaussian, Inc. and that
 it will not use this program in any manner prohibited above.
 ---------------------------------------------------------------
  

 Cite this work as:
 Gaussian 16, Revision C.02,
 M. J. Frisch, G. W. Trucks, H. B. Schlegel, G. E. Scuseria, 
 M. A. Robb, J. R. Cheeseman, G. Scalmani, V. Barone, 
 G. A. Petersson, H. Nakatsuji, X. Li, M. Caricato, A. V. Marenich, 
 J. Bloino, B. G. Janesko, R. Gomperts, B. Mennucci, H. P. Hratchian, 
 J. V. Ortiz, A. F. Izmaylov, J. L. Sonnenberg, D. Williams-Young, 
 F. Ding, F. Lipparini, F. Egidi, J. Goings, B. Peng, A. Petrone, 
 T. Henderson, D. Ranasinghe, V. G. Zakrzewski, J. Gao, N. Rega, 
 G. Zheng, W. Liang, M. Hada, M. Ehara, K. Toyota, R. Fukuda, 
 J. Hasegawa, M. Ishida, T. Nakajima, Y. Honda, O. Kitao, H. Nakai, 
 T. Vreven, K. Throssell, J. A. Montgomery, Jr., J. E. Peralta, 
 F. Ogliaro, M. J. Bearpark, J. J. Heyd, E. N. Brothers, K. N. Kudin, 
 V. N. Staroverov, T. A. Keith, R. Kobayashi, J. Normand, 
 K. Raghavachari, A. P. Rendell, J. C. Burant, S. S. Iyengar, 
 J. Tomasi, M. Cossi, J. M. Millam, M. Klene, C. Adamo, R. Cammi, 
 J. W. Ochterski, R. L. Martin, K. Morokuma, O. Farkas, 
 J. B. Foresman, and D. J. Fox, Gaussian, Inc., Wallingford CT, 2019.
 
 ******************************************
 Gaussian 16:  ES64L-G16RevC.02  7-Dec-2021
                30-Jun-2023 
 ******************************************
 %mem=8GB
 %NPROCS=4
 Will use up to    4 processors via shared memory.
 %NoSave
 ---------------------------------------------------------
 #MP2/6-31G* SCF=Tight Opt=(ModRedun, MaxCycle=20 ) NoSymm
 ---------------------------------------------------------
 1/6=20,18=120,19=15,38=1/1,3;
 2/9=110,12=2,15=1,17=6,18=5,40=1/2;
 3/5=1,6=6,7=1,11=9,25=1,30=1,71=1/1,2,3;
 4//1;
 5/5=2,32=2,38=5/2;
 8/6=4,10=2/1;
 9/15=2,16=-3/6;
 10/5=1,31=1/2;
 6/7=2,8=2,9=2,10=2/1;
 7/12=2,30=1/1,2,3,16;
 1/6=20,18=20,19=15/3(2);
 2/9=110,15=1/2;
 99//99;
 2/9=110,15=1/2;
 3/5=1,6=6,7=1,11=9,25=1,30=1,71=1/1,2,3;
 4/5=5,16=3,69=1/1;
 5/5=2,32=2,38=5/2;
 8/6=4,10=2/1;
 9/15=2,16=-3/6;
 10/5=1,31=1/2;
 7/12=2,30=1/1,2,3,16;
 1/6=20,18=20,19=15/3(-8);
 2/9=110,15=1/2;
 6/7=2,8=2,9=2,10=2/1;
 99/9=10/99;
 --------
 MolName:
 --------
 Symbolic Z-matrix:
 Charge =  0 Multiplicity = 1
 8                    0    -3.62996  -1.41372  -0.33016 
 7                    0    -3.25958  -0.28311  -0.01873 
 8                    0    -4.02962   0.61957   0.31147 
 6                    0    -1.75861   0.00589  -0.04306 
 6                    0    -1.37021   1.315     0.26529 
 7                    0    -0.08185   1.77115   0.37359 
 6                    0     1.19701   0.99778   0.35302 
 1                    0     1.85762   1.49806   1.10802 
 6                    0     1.96786   1.04367  -0.98989 
 6                    0     3.37838   0.4565   -0.79192 
 6                    0     3.31221  -0.9574   -0.19314 
 6                    0     2.45782  -0.98591   1.09258 
 6                    0     1.02261  -0.4492    0.83787 
 1                    0     0.46981  -0.48431   1.8059 
 7                    0     0.36999  -1.3208   -0.14185 
 6                    0    -0.86992  -1.11675  -0.44518 
 1                    0    -2.15714   2.05455   0.488 
 1                    0     0.15003   2.75231   0.20089 
 1                    0     1.4215    0.46505  -1.76485 
 1                    0     2.05694   2.09241  -1.34468 
 1                    0     3.91765   0.42876  -1.76402 
 1                    0     3.95287   1.11205  -0.09991 
 1                    0     2.86772  -1.6487   -0.94435 
 1                    0     4.33875  -1.32164   0.02991 
 1                    0     2.39648  -2.03095   1.46788 
 1                    0     2.9491   -0.37289   1.87704 
 1                    0    -1.36747  -1.86337  -1.08276 
 
 The following ModRedundant input section has been read:
 D       1       2       4      16 F                                           
 D       7      13      15      16 F                                           
 D       7       9      10      11 F                                           
 D       9      10      11      12 F                                           
 D       6       7      13      15 F                                           
 

 GradGradGradGradGradGradGradGradGradGradGradGradGradGradGradGradGradGrad
 Berny optimization.
 Initialization pass.
                           ----------------------------
                           !    Initial Parameters    !
                           ! (Angstroms and Degrees)  !
 --------------------------                            --------------------------
 ! Name  Definition              Value          Derivative Info.                !
 --------------------------------------------------------------------------------
 ! R1    R(1,2)                  1.2298         estimate D2E/DX2                !
 ! R2    R(2,3)                  1.2316         estimate D2E/DX2                !
 ! R3    R(2,4)                  1.5287         estimate D2E/DX2                !
 ! R4    R(4,5)                  1.3999         estimate D2E/DX2                !
 ! R5    R(4,16)                 1.4872         estimate D2E/DX2                !
 ! R6    R(5,6)                  1.371          estimate D2E/DX2                !
 ! R7    R(5,17)                 1.1026         estimate D2E/DX2                !
 ! R8    R(6,7)                  1.4947         estimate D2E/DX2                !
 ! R9    R(6,18)                 1.0229         estimate D2E/DX2                !
 ! R10   R(7,8)                  1.121          estimate D2E/DX2                !
 ! R11   R(7,9)                  1.5491         estimate D2E/DX2                !
 ! R12   R(7,13)                 1.536          estimate D2E/DX2                !
 ! R13   R(9,10)                 1.5406         estimate D2E/DX2                !
 ! R14   R(9,19)                 1.1108         estimate D2E/DX2                !
 ! R15   R(9,20)                 1.1107         estimate D2E/DX2                !
 ! R16   R(10,11)                1.5369         estimate D2E/DX2                !
 ! R17   R(10,21)                1.112          estimate D2E/DX2                !
 ! R18   R(10,22)                1.113          estimate D2E/DX2                !
 ! R19   R(11,12)                1.544          estimate D2E/DX2                !
 ! R20   R(11,23)                1.1135         estimate D2E/DX2                !
 ! R21   R(11,24)                1.1118         estimate D2E/DX2                !
 ! R22   R(12,13)                1.5533         estimate D2E/DX2                !
 ! R23   R(12,25)                1.1121         estimate D2E/DX2                !
 ! R24   R(12,26)                1.1102         estimate D2E/DX2                !
 ! R25   R(13,14)                1.1153         estimate D2E/DX2                !
 ! R26   R(13,15)                1.4647         estimate D2E/DX2                !
 ! R27   R(15,16)                1.2927         estimate D2E/DX2                !
 ! R28   R(16,27)                1.1007         estimate D2E/DX2                !
 ! A1    A(1,2,3)              123.6009         estimate D2E/DX2                !
 ! A2    A(1,2,4)              117.7402         estimate D2E/DX2                !
 ! A3    A(3,2,4)              118.6588         estimate D2E/DX2                !
 ! A4    A(2,4,5)              116.4676         estimate D2E/DX2                !
 ! A5    A(2,4,16)             116.6349         estimate D2E/DX2                !
 ! A6    A(5,4,16)             126.8467         estimate D2E/DX2                !
 ! A7    A(4,5,6)              126.1043         estimate D2E/DX2                !
 ! A8    A(4,5,17)             118.2745         estimate D2E/DX2                !
 ! A9    A(6,5,17)             115.566          estimate D2E/DX2                !
 ! A10   A(5,6,7)              129.1091         estimate D2E/DX2                !
 ! A11   A(5,6,18)             121.2541         estimate D2E/DX2                !
 ! A12   A(7,6,18)             107.4596         estimate D2E/DX2                !
 ! A13   A(6,7,8)              105.3092         estimate D2E/DX2                !
 ! A14   A(6,7,9)              114.9842         estimate D2E/DX2                !
 ! A15   A(6,7,13)             112.7025         estimate D2E/DX2                !
 ! A16   A(8,7,9)              106.1043         estimate D2E/DX2                !
 ! A17   A(8,7,13)             105.9456         estimate D2E/DX2                !
 ! A18   A(9,7,13)             110.9806         estimate D2E/DX2                !
 ! A19   A(7,9,10)             109.445          estimate D2E/DX2                !
 ! A20   A(7,9,19)             110.1581         estimate D2E/DX2                !
 ! A21   A(7,9,20)             110.169          estimate D2E/DX2                !
 ! A22   A(10,9,19)            109.9649         estimate D2E/DX2                !
 ! A23   A(10,9,20)            109.1159         estimate D2E/DX2                !
 ! A24   A(19,9,20)            107.9652         estimate D2E/DX2                !
 ! A25   A(9,10,11)            111.1782         estimate D2E/DX2                !
 ! A26   A(9,10,21)            109.9483         estimate D2E/DX2                !
 ! A27   A(9,10,22)            109.1476         estimate D2E/DX2                !
 ! A28   A(11,10,21)           109.7865         estimate D2E/DX2                !
 ! A29   A(11,10,22)           108.7754         estimate D2E/DX2                !
 ! A30   A(21,10,22)           107.9338         estimate D2E/DX2                !
 ! A31   A(10,11,12)           111.4229         estimate D2E/DX2                !
 ! A32   A(10,11,23)           108.9965         estimate D2E/DX2                !
 ! A33   A(10,11,24)           109.8641         estimate D2E/DX2                !
 ! A34   A(12,11,23)           109.2352         estimate D2E/DX2                !
 ! A35   A(12,11,24)           109.7432         estimate D2E/DX2                !
 ! A36   A(23,11,24)           107.489          estimate D2E/DX2                !
 ! A37   A(11,12,13)           111.6149         estimate D2E/DX2                !
 ! A38   A(11,12,25)           109.2021         estimate D2E/DX2                !
 ! A39   A(11,12,26)           109.4713         estimate D2E/DX2                !
 ! A40   A(13,12,25)           109.2125         estimate D2E/DX2                !
 ! A41   A(13,12,26)           109.5087         estimate D2E/DX2                !
 ! A42   A(25,12,26)           107.7483         estimate D2E/DX2                !
 ! A43   A(7,13,12)            105.8046         estimate D2E/DX2                !
 ! A44   A(7,13,14)            111.0948         estimate D2E/DX2                !
 ! A45   A(7,13,15)            113.5799         estimate D2E/DX2                !
 ! A46   A(12,13,14)           107.7439         estimate D2E/DX2                !
 ! A47   A(12,13,15)           108.4062         estimate D2E/DX2                !
 ! A48   A(14,13,15)           109.9364         estimate D2E/DX2                !
 ! A49   A(13,15,16)           119.3661         estimate D2E/DX2                !
 ! A50   A(4,16,15)            128.9669         estimate D2E/DX2                !
 ! A51   A(4,16,27)            113.4874         estimate D2E/DX2                !
 ! A52   A(15,16,27)           117.5443         estimate D2E/DX2                !
 ! D1    D(1,2,4,5)            177.5861         estimate D2E/DX2                !
 ! D2    D(1,2,4,16)             0.001          Frozen                          !
 ! D3    D(3,2,4,5)             -2.5551         estimate D2E/DX2                !
 ! D4    D(3,2,4,16)           179.8598         estimate D2E/DX2                !
 ! D5    D(2,4,5,6)            176.1885         estimate D2E/DX2                !
 ! D6    D(2,4,5,17)            -0.9809         estimate D2E/DX2                !
 ! D7    D(16,4,5,6)            -6.5091         estimate D2E/DX2                !
 ! D8    D(16,4,5,17)          176.3214         estimate D2E/DX2                !
 ! D9    D(2,4,16,15)         -154.3015         estimate D2E/DX2                !
 ! D10   D(2,4,16,27)           25.2465         estimate D2E/DX2                !
 ! D11   D(5,4,16,15)           28.4001         estimate D2E/DX2                !
 ! D12   D(5,4,16,27)         -152.0519         estimate D2E/DX2                !
 ! D13   D(4,5,6,7)             -7.7403         estimate D2E/DX2                !
 ! D14   D(4,5,6,18)           153.2907         estimate D2E/DX2                !
 ! D15   D(17,5,6,7)           169.4963         estimate D2E/DX2                !
 ! D16   D(17,5,6,18)          -29.4727         estimate D2E/DX2                !
 ! D17   D(5,6,7,8)           -141.8927         estimate D2E/DX2                !
 ! D18   D(5,6,7,9)            101.6944         estimate D2E/DX2                !
 ! D19   D(5,6,7,13)           -26.8511         estimate D2E/DX2                !
 ! D20   D(18,6,7,8)            55.0434         estimate D2E/DX2                !
 ! D21   D(18,6,7,9)           -61.3696         estimate D2E/DX2                !
 ! D22   D(18,6,7,13)          170.085          estimate D2E/DX2                !
 ! D23   D(6,7,9,10)           168.712          estimate D2E/DX2                !
 ! D24   D(6,7,9,19)           -70.2688         estimate D2E/DX2                !
 ! D25   D(6,7,9,20)            48.7351         estimate D2E/DX2                !
 ! D26   D(8,7,9,10)            52.7537         estimate D2E/DX2                !
 ! D27   D(8,7,9,19)           173.7729         estimate D2E/DX2                !
 ! D28   D(8,7,9,20)           -67.2232         estimate D2E/DX2                !
 ! D29   D(13,7,9,10)          -61.8894         estimate D2E/DX2                !
 ! D30   D(13,7,9,19)           59.1298         estimate D2E/DX2                !
 ! D31   D(13,7,9,20)          178.1337         estimate D2E/DX2                !
 ! D32   D(6,7,13,12)         -166.1878         estimate D2E/DX2                !
 ! D33   D(6,7,13,14)          -49.5288         estimate D2E/DX2                !
 ! D34   D(6,7,13,15)           75.0221         Frozen                          !
 ! D35   D(8,7,13,12)          -51.5306         estimate D2E/DX2                !
 ! D36   D(8,7,13,14)           65.1284         estimate D2E/DX2                !
 ! D37   D(8,7,13,15)         -170.3206         estimate D2E/DX2                !
 ! D38   D(9,7,13,12)           63.2117         estimate D2E/DX2                !
 ! D39   D(9,7,13,14)          179.8707         estimate D2E/DX2                !
 ! D40   D(9,7,13,15)          -55.5784         estimate D2E/DX2                !
 ! D41   D(7,9,10,11)           54.8121         Frozen                          !
 ! D42   D(7,9,10,21)          176.6035         estimate D2E/DX2                !
 ! D43   D(7,9,10,22)          -65.1819         estimate D2E/DX2                !
 ! D44   D(19,9,10,11)         -66.3241         estimate D2E/DX2                !
 ! D45   D(19,9,10,21)          55.4673         estimate D2E/DX2                !
 ! D46   D(19,9,10,22)         173.6819         estimate D2E/DX2                !
 ! D47   D(20,9,10,11)         175.4323         estimate D2E/DX2                !
 ! D48   D(20,9,10,21)         -62.7763         estimate D2E/DX2                !
 ! D49   D(20,9,10,22)          55.4383         estimate D2E/DX2                !
 ! D50   D(9,10,11,12)         -52.8221         Frozen                          !
 ! D51   D(9,10,11,23)          67.7987         estimate D2E/DX2                !
 ! D52   D(9,10,11,24)        -174.6647         estimate D2E/DX2                !
 ! D53   D(21,10,11,12)       -174.7077         estimate D2E/DX2                !
 ! D54   D(21,10,11,23)        -54.0869         estimate D2E/DX2                !
 ! D55   D(21,10,11,24)         63.4497         estimate D2E/DX2                !
 ! D56   D(22,10,11,12)         67.3924         estimate D2E/DX2                !
 ! D57   D(22,10,11,23)       -171.9868         estimate D2E/DX2                !
 ! D58   D(22,10,11,24)        -54.4502         estimate D2E/DX2                !
 ! D59   D(10,11,12,13)         56.5909         estimate D2E/DX2                !
 ! D60   D(10,11,12,25)        177.4423         estimate D2E/DX2                !
 ! D61   D(10,11,12,26)        -64.8143         estimate D2E/DX2                !
 ! D62   D(23,11,12,13)        -63.8897         estimate D2E/DX2                !
 ! D63   D(23,11,12,25)         56.9617         estimate D2E/DX2                !
 ! D64   D(23,11,12,26)        174.7051         estimate D2E/DX2                !
 ! D65   D(24,11,12,13)        178.5035         estimate D2E/DX2                !
 ! D66   D(24,11,12,25)        -60.6451         estimate D2E/DX2                !
 ! D67   D(24,11,12,26)         57.0983         estimate D2E/DX2                !
 ! D68   D(11,12,13,7)         -60.2846         estimate D2E/DX2                !
 ! D69   D(11,12,13,14)       -179.1864         estimate D2E/DX2                !
 ! D70   D(11,12,13,15)         61.8801         estimate D2E/DX2                !
 ! D71   D(25,12,13,7)         178.87           estimate D2E/DX2                !
 ! D72   D(25,12,13,14)         59.9682         estimate D2E/DX2                !
 ! D73   D(25,12,13,15)        -58.9652         estimate D2E/DX2                !
 ! D74   D(26,12,13,7)          61.0989         estimate D2E/DX2                !
 ! D75   D(26,12,13,14)        -57.8028         estimate D2E/DX2                !
 ! D76   D(26,12,13,15)       -176.7363         estimate D2E/DX2                !
 ! D77   D(7,13,15,16)         -67.1601         Frozen                          !
 ! D78   D(12,13,15,16)        175.5534         estimate D2E/DX2                !
 ! D79   D(14,13,15,16)         58.0131         estimate D2E/DX2                !
 ! D80   D(13,15,16,4)           7.2491         estimate D2E/DX2                !
 ! D81   D(13,15,16,27)       -172.2834         estimate D2E/DX2                !
 --------------------------------------------------------------------------------
 Trust Radius=3.00D-01 FncErr=1.00D-07 GrdErr=1.00D-07 EigMax=2.50D+02 EigMin=1.00D-04
 Number of steps in this run=     20 maximum allowed number of steps=    162.
 GradGradGradGradGradGradGradGradGradGradGradGradGradGradGradGradGradGrad

                          Input orientation:                          
 ---------------------------------------------------------------------
 Center     Atomic      Atomic             Coordinates (Angstroms)
 Number     Number       Type             X           Y           Z
 ---------------------------------------------------------------------
      1          8           0       -3.629960   -1.413720   -0.330160
      2          7           0       -3.259580   -0.283110   -0.018730
      3          8           0       -4.029620    0.619570    0.311470
      4          6           0       -1.758610    0.005890   -0.043060
      5          6           0       -1.370210    1.315000    0.265290
      6          7           0       -0.081850    1.771150    0.373590
      7          6           0        1.197010    0.997780    0.353020
      8          1           0        1.857620    1.498060    1.108020
      9          6           0        1.967860    1.043670   -0.989890
     10          6           0        3.378380    0.456500   -0.791920
     11          6           0        3.312210   -0.957400   -0.193140
     12          6           0        2.457820   -0.985910    1.092580
     13          6           0        1.022610   -0.449200    0.837870
     14          1           0        0.469810   -0.484310    1.805900
     15          7           0        0.369990   -1.320800   -0.141850
     16          6           0       -0.869920   -1.116750   -0.445180
     17          1           0       -2.157140    2.054550    0.488000
     18          1           0        0.150030    2.752310    0.200890
     19          1           0        1.421500    0.465050   -1.764850
     20          1           0        2.056940    2.092410   -1.344680
     21          1           0        3.917650    0.428760   -1.764020
     22          1           0        3.952870    1.112050   -0.099910
     23          1           0        2.867720   -1.648700   -0.944350
     24          1           0        4.338750   -1.321640    0.029910
     25          1           0        2.396480   -2.030950    1.467880
     26          1           0        2.949100   -0.372890    1.877040
     27          1           0       -1.367470   -1.863370   -1.082760
 ---------------------------------------------------------------------
                    Distance matrix (angstroms):
                    1          2          3          4          5
     1  O    0.000000
     2  N    1.229817   0.000000
     3  O    2.169259   1.231594   0.000000
     4  C    2.366362   1.528733   2.379029   0.000000
     5  C    3.592623   2.490852   2.749221   1.399894   0.000000
     6  N    4.819517   3.804191   4.112771   2.470074   1.371012
     7  C    5.438907   4.651889   5.240461   3.142676   2.588232
     8  H    6.376548   5.534245   6.005483   4.077827   3.341046
     9  C    6.148951   5.479929   6.151680   3.982468   3.576564
    10  C    7.268272   6.723642   7.491497   5.210807   4.940022
    11  C    6.958500   6.608594   7.526216   5.163687   5.224846
    12  C    6.266440   5.866652   6.728639   4.477904   4.542291
    13  C    4.892954   4.370183   5.190799   2.952682   3.027513
    14  H    4.715365   4.156694   4.867930   2.936802   2.999445
    15  N    4.005458   3.777001   4.829814   2.510140   3.184572
    16  C    2.778352   2.566572   3.683888   1.487209   2.582337
    17  H    3.855837   2.633781   2.365695   2.153569   1.102630
    18  H    5.650323   4.570279   4.693643   3.353392   2.093117
    19  H    5.577218   5.051850   5.835211   3.645338   3.554930
    20  H    6.757443   5.972154   6.477523   4.539405   3.865453
    21  H    7.900450   7.420608   8.216031   5.946465   5.732799
    22  H    7.995739   7.346598   8.008241   5.817888   5.339451
    23  H    6.530872   6.345503   7.368543   4.995290   5.311007
    24  H    7.977372   7.669128   8.595184   6.240630   6.292813
    25  H    6.319169   6.103767   7.046794   4.867898   5.179726
    26  H    7.017057   6.492281   7.220701   5.098313   4.909496
    27  H    2.426407   2.685044   3.898193   2.174419   3.452431
                    6          7          8          9         10
     6  N    0.000000
     7  C    1.494660   0.000000
     8  H    2.091772   1.121031   0.000000
     9  C    2.567025   1.549104   2.149384   0.000000
    10  C    3.880710   2.522349   2.647136   1.540626   0.000000
    11  C    4.391561   2.931738   3.136580   2.538970   1.536889
    12  C    3.816838   2.464065   2.555501   2.948887   2.545450
    13  C    2.522963   1.535984   2.135894   2.542217   3.004357
    14  H    2.728175   2.199152   2.518500   3.520699   4.011679
    15  N    3.167016   2.510911   3.423622   2.977092   3.554124
    16  C    3.103451   3.062770   4.085234   3.607924   4.543501
    17  H    2.097673   3.519276   4.100293   4.496850   5.902029
    18  H    1.022873   2.048826   2.304754   2.764401   4.083951
    19  H    2.922137   2.195352   3.083941   1.110799   2.185416
    20  H    2.762260   2.195422   2.531545   1.110706   2.174385
    21  H    4.729417   3.493927   3.692660   2.186109   1.112007
    22  H    4.115529   2.795169   2.449116   2.176466   1.112952
    23  H    4.704498   3.387964   3.890324   2.839133   2.171607
    24  H    5.406031   3.918500   3.907561   3.500829   2.181627
    25  H    4.668571   3.443087   3.588005   3.959500   3.501176
    26  H    4.005487   2.696515   2.298516   3.344961   2.827634
    27  H    4.121105   4.101731   5.147809   4.425374   5.290508
                   11         12         13         14         15
    11  C    0.000000
    12  C    1.543979   0.000000
    13  C    2.561936   1.553307   0.000000
    14  H    3.507023   2.170855   1.115304   0.000000
    15  N    2.965021   2.448469   1.464736   2.122124   0.000000
    16  C    4.192747   3.668198   2.381913   2.694850   1.292680
    17  H    6.280890   5.559476   4.062263   3.883753   4.263342
    18  H    4.890459   4.482778   3.378876   3.626848   4.093419
    19  H    2.840497   3.368108   2.787314   3.815397   2.632311
    20  H    3.493292   3.946770   3.506158   4.368595   3.992819
    21  H    2.180748   3.506074   3.990226   5.046348   4.275311
    22  H    2.168354   2.838775   3.450124   4.279274   4.330998
    23  H    1.113456   2.180916   2.831879   3.830098   2.643895
    24  H    1.111848   2.186294   3.522887   4.338659   3.972475
    25  H    2.179463   1.112080   2.187776   2.493674   2.683692
    26  H    2.181547   1.110192   2.190219   2.482812   3.409730
    27  H    4.848877   4.487191   3.376563   3.690767   2.049015
                   16         17         18         19         20
    16  C    0.000000
    17  H    3.547521   0.000000
    18  H    4.053064   2.427413   0.000000
    19  H    3.081270   4.517578   3.272969   0.000000
    20  H    4.435574   4.595500   2.541763   1.796838   0.000000
    21  H    5.200843   6.679660   4.843007   2.496414   2.530972
    22  H    5.324102   6.210166   4.152412   3.098139   2.470852
    23  H    3.808162   6.404288   5.297764   2.689370   3.848835
    24  H    5.234304   7.335195   5.845655   3.863130   4.330345
    25  H    3.894217   6.195719   5.434278   4.198946   5.002787
    26  H    4.531109   5.821991   4.517870   4.037210   4.153689
    27  H    1.100684   4.294294   5.025442   3.696639   5.238643
                   21         22         23         24         25
    21  H    0.000000
    22  H    1.799274   0.000000
    23  H    2.467803   3.084213   0.000000
    24  H    2.541537   2.467510   1.794458   0.000000
    25  H    4.336970   3.841714   2.487375   2.518589   0.000000
    26  H    3.852019   2.668508   3.097508   2.498628   1.794983
    27  H    5.800902   6.174556   4.242885   5.838874   4.549854
                   26         27
    26  H    0.000000
    27  H    5.441941   0.000000
 Symmetry turned off by external request.
 Stoichiometry    C9H13N3O2
 Framework group  C1[X(C9H13N3O2)]
 Deg. of freedom    75
 Full point group                 C1      NOp   1
 Rotational constants (GHZ):           1.6766214           0.3991224           0.3555195
 Standard basis: 6-31G(d) (6D, 7F)
   236 basis functions,   444 primitive gaussians,   236 cartesian basis functions
    52 alpha electrons       52 beta electrons
       nuclear repulsion energy       917.3490278516 Hartrees.
 NAtoms=   27 NActive=   27 NUniq=   27 SFac= 1.00D+00 NAtFMM=   60 NAOKFM=F Big=F
 Integral buffers will be    131072 words long.
 Raffenetti 1 integral format.
 Two-electron integral symmetry is turned off.
 One-electron integrals computed using PRISM.
 NBasis=   236 RedAO= T EigKep=  1.24D-03  NBF=   236
 NBsUse=   236 1.00D-06 EigRej= -1.00D+00 NBFU=   236
 ExpMin= 1.61D-01 ExpMax= 5.48D+03 ExpMxC= 8.25D+02 IAcc=3 IRadAn=         5 AccDes= 0.00D+00
 Harris functional with IExCor=  205 and IRadAn=       5 diagonalized for initial guess.
 HarFok:  IExCor=  205 AccDes= 0.00D+00 IRadAn=         5 IDoV= 1 UseB2=F ITyADJ=14
 ICtDFT=  3500011 ScaDFX=  1.000000  1.000000  1.000000  1.000000
 FoFCou: FMM=F IPFlag=           0 FMFlag=      100000 FMFlg1=           0
         NFxFlg=           0 DoJE=T BraDBF=F KetDBF=T FulRan=T
         wScrn=  0.000000 ICntrl=       500 IOpCl=  0 I1Cent=   200000004 NGrid=           0
         NMat0=    1 NMatS0=      1 NMatT0=    0 NMatD0=    1 NMtDS0=    0 NMtDT0=    0
 Symmetry not used in FoFCou.
 Keep R1 ints in memory in canonical form, NReq=397720213.
 Requested convergence on RMS density matrix=1.00D-08 within 128 cycles.
 Requested convergence on MAX density matrix=1.00D-06.
 Requested convergence on             energy=1.00D-06.
 No special actions if energy rises.
 SCF Done:  E(RHF) =  -661.281041640     A.U. after   16 cycles
            NFock= 16  Conv=0.53D-08     -V/T= 2.0037
 ExpMin= 1.61D-01 ExpMax= 5.48D+03 ExpMxC= 8.25D+02 IAcc=3 IRadAn=         5 AccDes= 0.00D+00
 HarFok:  IExCor=  205 AccDes= 0.00D+00 IRadAn=         5 IDoV=-2 UseB2=F ITyADJ=14
 ICtDFT= 12500011 ScaDFX=  1.000000  1.000000  1.000000  1.000000
 Range of M.O.s used for correlation:    15   236
 NBasis=   236 NAE=    52 NBE=    52 NFC=    14 NFV=     0
 NROrb=    222 NOA=    38 NOB=    38 NVA=   184 NVB=   184
 Fully direct method using O(ONN) memory.
 JobTyp=1 Pass  1:  I=  15 to  52 NPSUse=  4 ParTrn=T ParDer=T DoDerP=T.
 Spin components of T(2) and E(2):
     alpha-alpha T2 =       0.9198486026D-01 E2=     -0.2717719623D+00
     alpha-beta  T2 =       0.4996771346D+00 E2=     -0.1493752377D+01
     beta-beta   T2 =       0.9198486026D-01 E2=     -0.2717719623D+00
 ANorm=    0.1297554182D+01
 E2 =    -0.2037296302D+01 EUMP2 =    -0.66331833794178D+03
          IDoAtm=111111111111111111111111111
          Differentiating once with respect to electric field.
                with respect to dipole field.
          Differentiating once with respect to nuclear coordinates.
 Keep R1 ints in memory in canonical form, NReq=397723379.
          There are     1 degrees of freedom in the 1st order CPHF.  IDoFFX=0 NUNeed=     1.
 LinEq1:  Iter=  0 NonCon=     1 RMS=4.62D-03 Max=1.25D-01 NDo=     1
 AX will form     1 AO Fock derivatives at one time.
 LinEq1:  Iter=  1 NonCon=     1 RMS=1.57D-03 Max=3.15D-02 NDo=     1
 LinEq1:  Iter=  2 NonCon=     1 RMS=6.41D-04 Max=1.98D-02 NDo=     1
 LinEq1:  Iter=  3 NonCon=     1 RMS=2.94D-04 Max=9.12D-03 NDo=     1
 LinEq1:  Iter=  4 NonCon=     1 RMS=9.02D-05 Max=2.09D-03 NDo=     1
 LinEq1:  Iter=  5 NonCon=     1 RMS=3.75D-05 Max=1.90D-03 NDo=     1
 LinEq1:  Iter=  6 NonCon=     1 RMS=1.55D-05 Max=5.91D-04 NDo=     1
 LinEq1:  Iter=  7 NonCon=     1 RMS=5.99D-06 Max=1.07D-04 NDo=     1
 LinEq1:  Iter=  8 NonCon=     1 RMS=2.40D-06 Max=6.18D-05 NDo=     1
 LinEq1:  Iter=  9 NonCon=     1 RMS=9.06D-07 Max=2.60D-05 NDo=     1
 LinEq1:  Iter= 10 NonCon=     1 RMS=4.36D-07 Max=1.42D-05 NDo=     1
 LinEq1:  Iter= 11 NonCon=     1 RMS=1.52D-07 Max=5.79D-06 NDo=     1
 LinEq1:  Iter= 12 NonCon=     1 RMS=5.29D-08 Max=8.34D-07 NDo=     1
 LinEq1:  Iter= 13 NonCon=     1 RMS=1.65D-08 Max=3.15D-07 NDo=     1
 LinEq1:  Iter= 14 NonCon=     1 RMS=5.04D-09 Max=1.12D-07 NDo=     1
 LinEq1:  Iter= 15 NonCon=     1 RMS=1.82D-09 Max=3.76D-08 NDo=     1
 LinEq1:  Iter= 16 NonCon=     1 RMS=7.14D-10 Max=1.27D-08 NDo=     1
 LinEq1:  Iter= 17 NonCon=     1 RMS=2.44D-10 Max=3.69D-09 NDo=     1
 LinEq1:  Iter= 18 NonCon=     1 RMS=8.52D-11 Max=1.12D-09 NDo=     1
 LinEq1:  Iter= 19 NonCon=     0 RMS=2.79D-11 Max=3.88D-10 NDo=     1
 Linear equations converged to 1.000D-10 1.000D-09 after    19 iterations.
 End of Minotr F.D. properties file   721 does not exist.
 End of Minotr F.D. properties file   722 does not exist.
 End of Minotr F.D. properties file   788 does not exist.

 **********************************************************************

            Population analysis using the SCF Density.

 **********************************************************************

 Alpha  occ. eigenvalues --  -20.59789 -20.59412 -15.85313 -15.63366 -15.56839
 Alpha  occ. eigenvalues --  -11.35886 -11.30428 -11.30115 -11.30086 -11.27684
 Alpha  occ. eigenvalues --  -11.24634 -11.23882 -11.23401 -11.22854  -1.58486
 Alpha  occ. eigenvalues --   -1.37980  -1.28594  -1.22726  -1.13270  -1.08359
 Alpha  occ. eigenvalues --   -1.01812  -1.00668  -0.93581  -0.88963  -0.84939
 Alpha  occ. eigenvalues --   -0.81528  -0.78020  -0.76952  -0.74315  -0.71140
 Alpha  occ. eigenvalues --   -0.70219  -0.69897  -0.67439  -0.64338  -0.63266
 Alpha  occ. eigenvalues --   -0.61640  -0.60367  -0.57424  -0.56469  -0.54882
 Alpha  occ. eigenvalues --   -0.53587  -0.50749  -0.49268  -0.48425  -0.47873
 Alpha  occ. eigenvalues --   -0.47677  -0.46180  -0.45680  -0.44035  -0.42086
 Alpha  occ. eigenvalues --   -0.39955  -0.33785
 Alpha virt. eigenvalues --    0.07367   0.11835   0.18145   0.21409   0.23346
 Alpha virt. eigenvalues --    0.24199   0.26274   0.27750   0.28557   0.28873
 Alpha virt. eigenvalues --    0.30060   0.31172   0.31844   0.32276   0.33352
 Alpha virt. eigenvalues --    0.33785   0.34172   0.35446   0.37562   0.38575
 Alpha virt. eigenvalues --    0.40600   0.41843   0.44537   0.45286   0.45685
 Alpha virt. eigenvalues --    0.45949   0.49788   0.53223   0.57593   0.59069
 Alpha virt. eigenvalues --    0.63265   0.69155   0.69253   0.72207   0.73978
 Alpha virt. eigenvalues --    0.74919   0.75699   0.75859   0.77783   0.79314
 Alpha virt. eigenvalues --    0.80324   0.83698   0.85029   0.85393   0.87956
 Alpha virt. eigenvalues --    0.89065   0.90133   0.90824   0.91927   0.93877
 Alpha virt. eigenvalues --    0.95270   0.97182   0.98934   1.00340   1.01973
 Alpha virt. eigenvalues --    1.02689   1.05109   1.06440   1.06995   1.08719
 Alpha virt. eigenvalues --    1.09396   1.10466   1.11407   1.11964   1.13260
 Alpha virt. eigenvalues --    1.13804   1.14180   1.15468   1.16393   1.17335
 Alpha virt. eigenvalues --    1.18109   1.20063   1.21202   1.22410   1.22873
 Alpha virt. eigenvalues --    1.23422   1.25060   1.25768   1.26330   1.27684
 Alpha virt. eigenvalues --    1.29380   1.31482   1.33052   1.36021   1.39549
 Alpha virt. eigenvalues --    1.43012   1.46216   1.47577   1.49933   1.52143
 Alpha virt. eigenvalues --    1.54618   1.57494   1.59157   1.60833   1.67243
 Alpha virt. eigenvalues --    1.68418   1.69825   1.72810   1.73095   1.76910
 Alpha virt. eigenvalues --    1.77666   1.80666   1.84387   1.89154   1.92866
 Alpha virt. eigenvalues --    1.94379   1.95832   1.98377   1.98970   2.01211
 Alpha virt. eigenvalues --    2.02290   2.03239   2.06104   2.08771   2.11554
 Alpha virt. eigenvalues --    2.13021   2.13611   2.17755   2.18970   2.19422
 Alpha virt. eigenvalues --    2.20831   2.22348   2.24008   2.25173   2.26448
 Alpha virt. eigenvalues --    2.29129   2.32232   2.33663   2.35724   2.35819
 Alpha virt. eigenvalues --    2.38390   2.39984   2.41763   2.43539   2.46354
 Alpha virt. eigenvalues --    2.48587   2.50136   2.50443   2.56525   2.57417
 Alpha virt. eigenvalues --    2.60771   2.62715   2.66018   2.68439   2.68716
 Alpha virt. eigenvalues --    2.69695   2.70213   2.74730   2.76895   2.81254
 Alpha virt. eigenvalues --    2.84999   2.86592   2.89626   2.91798   2.94643
 Alpha virt. eigenvalues --    2.97895   2.98678   3.02399   3.03351   3.05715
 Alpha virt. eigenvalues --    3.06949   3.12631   3.19323   3.22731   3.27088
 Alpha virt. eigenvalues --    3.31180   3.33773   3.37573   3.43383   3.59843
 Alpha virt. eigenvalues --    4.10240   4.23708   4.32059   4.37282   4.43578
 Alpha virt. eigenvalues --    4.52731   4.59636   4.60199   4.70862   4.77863
 Alpha virt. eigenvalues --    4.96312   4.99232   5.02775   5.09927
          Condensed to atoms (all electrons):
               1          2          3          4          5          6
     1  O    8.302747   0.312453  -0.090275  -0.078921   0.003515  -0.000012
     2  N    0.312453   5.676325   0.311298   0.267000  -0.046199   0.000842
     3  O   -0.090275   0.311298   8.329879  -0.087851   0.007829   0.000461
     4  C   -0.078921   0.267000  -0.087851   5.245527   0.567163  -0.047789
     5  C    0.003515  -0.046199   0.007829   0.567163   4.671481   0.307859
     6  N   -0.000012   0.000842   0.000461  -0.047789   0.307859   7.189547
     7  C    0.000002  -0.000094   0.000003   0.004162  -0.029535   0.198401
     8  H   -0.000000   0.000002  -0.000000  -0.000188   0.002323  -0.050054
     9  C   -0.000000  -0.000003   0.000000   0.000488   0.001629  -0.056079
    10  C   -0.000000   0.000000  -0.000000  -0.000019  -0.000061   0.003329
    11  C   -0.000000  -0.000000  -0.000000  -0.000015   0.000015  -0.000154
    12  C   -0.000000   0.000002  -0.000000  -0.000099  -0.000123   0.003595
    13  C   -0.000016  -0.000027  -0.000004  -0.010659   0.000524  -0.044343
    14  H   -0.000001  -0.000058  -0.000000   0.003032   0.004903  -0.005606
    15  N    0.000246   0.001550  -0.000009  -0.061134  -0.003936   0.001882
    16  C    0.002945  -0.027258   0.002108   0.318514  -0.041947  -0.001374
    17  H    0.000136  -0.004237   0.012208  -0.027290   0.377271  -0.034070
    18  H    0.000000  -0.000034   0.000007   0.000875  -0.024205   0.328299
    19  H    0.000000  -0.000000   0.000000  -0.000754   0.000674   0.000641
    20  H    0.000000  -0.000000   0.000000  -0.000027   0.000034  -0.001725
    21  H   -0.000000  -0.000000   0.000000   0.000000   0.000001  -0.000059
    22  H   -0.000000   0.000000  -0.000000  -0.000000  -0.000002  -0.000098
    23  H    0.000000  -0.000000   0.000000   0.000025  -0.000000  -0.000024
    24  H    0.000000   0.000000   0.000000   0.000000  -0.000000   0.000004
    25  H    0.000000  -0.000000   0.000000   0.000019  -0.000001  -0.000071
    26  H    0.000000  -0.000000   0.000000   0.000006  -0.000001  -0.000067
    27  H    0.005849  -0.000358   0.000027  -0.064510   0.002032   0.000038
               7          8          9         10         11         12
     1  O    0.000002  -0.000000  -0.000000  -0.000000  -0.000000  -0.000000
     2  N   -0.000094   0.000002  -0.000003   0.000000  -0.000000   0.000002
     3  O    0.000003  -0.000000   0.000000  -0.000000  -0.000000  -0.000000
     4  C    0.004162  -0.000188   0.000488  -0.000019  -0.000015  -0.000099
     5  C   -0.029535   0.002323   0.001629  -0.000061   0.000015  -0.000123
     6  N    0.198401  -0.050054  -0.056079   0.003329  -0.000154   0.003595
     7  C    5.003226   0.416757   0.340708  -0.049306  -0.007715  -0.064173
     8  H    0.416757   0.547514  -0.060613   0.001483  -0.000335  -0.002818
     9  C    0.340708  -0.060613   5.181359   0.317910  -0.053038  -0.006244
    10  C   -0.049306   0.001483   0.317910   5.126697   0.332761  -0.060134
    11  C   -0.007715  -0.000335  -0.053038   0.332761   5.123922   0.330657
    12  C   -0.064173  -0.002818  -0.006244  -0.060134   0.330657   5.136949
    13  C    0.332505  -0.040438  -0.050352  -0.001737  -0.047871   0.368242
    14  H   -0.040183  -0.000940   0.003863  -0.000391   0.003956  -0.040715
    15  N   -0.058376   0.004055  -0.012896   0.001458  -0.007726  -0.074181
    16  C   -0.002265   0.000019  -0.000882  -0.000024   0.000003   0.002487
    17  H    0.001420  -0.000016  -0.000067   0.000001   0.000000   0.000001
    18  H   -0.028356  -0.002657   0.000837  -0.000121   0.000011  -0.000135
    19  H   -0.034984   0.004099   0.385939  -0.032541  -0.002266   0.000633
    20  H   -0.041666  -0.001856   0.397232  -0.037372   0.004140  -0.000361
    21  H    0.004042  -0.000080  -0.035833   0.400151  -0.035839   0.004210
    22  H   -0.004214   0.003511  -0.045697   0.395978  -0.045622  -0.001228
    23  H    0.000430   0.000033  -0.002005  -0.040090   0.396695  -0.036627
    24  H   -0.000141  -0.000098   0.004396  -0.038483   0.400294  -0.037869
    25  H    0.004982  -0.000005  -0.000369   0.004098  -0.033931   0.395426
    26  H   -0.004447   0.001606   0.001040  -0.002402  -0.042323   0.394699
    27  H   -0.000399   0.000009  -0.000059   0.000005   0.000005  -0.000018
              13         14         15         16         17         18
     1  O   -0.000016  -0.000001   0.000246   0.002945   0.000136   0.000000
     2  N   -0.000027  -0.000058   0.001550  -0.027258  -0.004237  -0.000034
     3  O   -0.000004  -0.000000  -0.000009   0.002108   0.012208   0.000007
     4  C   -0.010659   0.003032  -0.061134   0.318514  -0.027290   0.000875
     5  C    0.000524   0.004903  -0.003936  -0.041947   0.377271  -0.024205
     6  N   -0.044343  -0.005606   0.001882  -0.001374  -0.034070   0.328299
     7  C    0.332505  -0.040183  -0.058376  -0.002265   0.001420  -0.028356
     8  H   -0.040438  -0.000940   0.004055   0.000019  -0.000016  -0.002657
     9  C   -0.050352   0.003863  -0.012896  -0.000882  -0.000067   0.000837
    10  C   -0.001737  -0.000391   0.001458  -0.000024   0.000001  -0.000121
    11  C   -0.047871   0.003956  -0.007726   0.000003   0.000000   0.000011
    12  C    0.368242  -0.040715  -0.074181   0.002487   0.000001  -0.000135
    13  C    5.024695   0.402149   0.239444  -0.069378  -0.000040   0.003669
    14  H    0.402149   0.519319  -0.035727  -0.004951   0.000066   0.000008
    15  N    0.239444  -0.035727   6.936468   0.587609  -0.000062  -0.000117
    16  C   -0.069378  -0.004951   0.587609   4.703933   0.001623  -0.000224
    17  H   -0.000040   0.000066  -0.000062   0.001623   0.385979  -0.001829
    18  H    0.003669   0.000008  -0.000117  -0.000224  -0.001829   0.324228
    19  H   -0.006280   0.000065   0.006952   0.002527   0.000011  -0.000127
    20  H    0.003861  -0.000049   0.000079  -0.000031  -0.000001   0.002870
    21  H   -0.000376   0.000009  -0.000029   0.000002  -0.000000  -0.000000
    22  H    0.000318  -0.000044   0.000002  -0.000001   0.000000   0.000002
    23  H   -0.005863   0.000008   0.006770   0.000062   0.000000   0.000000
    24  H    0.004141  -0.000058   0.000044   0.000005   0.000000  -0.000000
    25  H   -0.034467  -0.002657   0.000761  -0.000063  -0.000000   0.000002
    26  H   -0.044823  -0.000912   0.004190  -0.000055   0.000000  -0.000001
    27  H    0.004840  -0.000177  -0.040283   0.402085  -0.000060   0.000002
              19         20         21         22         23         24
     1  O    0.000000   0.000000  -0.000000  -0.000000   0.000000   0.000000
     2  N   -0.000000  -0.000000  -0.000000   0.000000  -0.000000   0.000000
     3  O    0.000000   0.000000   0.000000  -0.000000   0.000000   0.000000
     4  C   -0.000754  -0.000027   0.000000  -0.000000   0.000025   0.000000
     5  C    0.000674   0.000034   0.000001  -0.000002  -0.000000  -0.000000
     6  N    0.000641  -0.001725  -0.000059  -0.000098  -0.000024   0.000004
     7  C   -0.034984  -0.041666   0.004042  -0.004214   0.000430  -0.000141
     8  H    0.004099  -0.001856  -0.000080   0.003511   0.000033  -0.000098
     9  C    0.385939   0.397232  -0.035833  -0.045697  -0.002005   0.004396
    10  C   -0.032541  -0.037372   0.400151   0.395978  -0.040090  -0.038483
    11  C   -0.002266   0.004140  -0.035839  -0.045622   0.396695   0.400294
    12  C    0.000633  -0.000361   0.004210  -0.001228  -0.036627  -0.037869
    13  C   -0.006280   0.003861  -0.000376   0.000318  -0.005863   0.004141
    14  H    0.000065  -0.000049   0.000009  -0.000044   0.000008  -0.000058
    15  N    0.006952   0.000079  -0.000029   0.000002   0.006770   0.000044
    16  C    0.002527  -0.000031   0.000002  -0.000001   0.000062   0.000005
    17  H    0.000011  -0.000001  -0.000000   0.000000   0.000000   0.000000
    18  H   -0.000127   0.002870  -0.000000   0.000002   0.000000  -0.000000
    19  H    0.506700  -0.024035  -0.002593   0.003756   0.001641  -0.000069
    20  H   -0.024035   0.550300  -0.002614  -0.002968  -0.000049  -0.000090
    21  H   -0.002593  -0.002614   0.526054  -0.024695  -0.002813  -0.002059
    22  H    0.003756  -0.002968  -0.024695   0.568822   0.004061  -0.003596
    23  H    0.001641  -0.000049  -0.002813   0.004061   0.509605  -0.024989
    24  H   -0.000069  -0.000090  -0.002059  -0.003596  -0.024989   0.541039
    25  H   -0.000027   0.000011  -0.000086  -0.000082  -0.002094  -0.002380
    26  H    0.000023  -0.000035  -0.000074   0.002466   0.003821  -0.002768
    27  H    0.000074  -0.000000  -0.000000   0.000000  -0.000022  -0.000000
              25         26         27
     1  O    0.000000   0.000000   0.005849
     2  N   -0.000000  -0.000000  -0.000358
     3  O    0.000000   0.000000   0.000027
     4  C    0.000019   0.000006  -0.064510
     5  C   -0.000001  -0.000001   0.002032
     6  N   -0.000071  -0.000067   0.000038
     7  C    0.004982  -0.004447  -0.000399
     8  H   -0.000005   0.001606   0.000009
     9  C   -0.000369   0.001040  -0.000059
    10  C    0.004098  -0.002402   0.000005
    11  C   -0.033931  -0.042323   0.000005
    12  C    0.395426   0.394699  -0.000018
    13  C   -0.034467  -0.044823   0.004840
    14  H   -0.002657  -0.000912  -0.000177
    15  N    0.000761   0.004190  -0.040283
    16  C   -0.000063  -0.000055   0.402085
    17  H   -0.000000   0.000000  -0.000060
    18  H    0.000002  -0.000001   0.000002
    19  H   -0.000027   0.000023   0.000074
    20  H    0.000011  -0.000035  -0.000000
    21  H   -0.000086  -0.000074  -0.000000
    22  H   -0.000082   0.002466   0.000000
    23  H   -0.002094   0.003821  -0.000022
    24  H   -0.002380  -0.002768  -0.000000
    25  H    0.510508  -0.023103  -0.000010
    26  H   -0.023103   0.560951   0.000001
    27  H   -0.000010   0.000001   0.447854
 Mulliken charges:
               1
     1  O   -0.458668
     2  N    0.508799
     3  O   -0.485680
     4  C   -0.027554
     5  C    0.198758
     6  N   -0.793375
     7  C    0.059216
     8  H    0.178689
     9  C   -0.311263
    10  C   -0.321190
    11  C   -0.315624
    12  C   -0.312174
    13  C   -0.027714
    14  H    0.195093
    15  N   -0.497032
    16  C    0.124532
    17  H    0.288958
    18  H    0.396995
    19  H    0.189945
    20  H    0.154354
    21  H    0.172680
    22  H    0.149331
    23  H    0.191424
    24  H    0.162678
    25  H    0.183536
    26  H    0.152209
    27  H    0.243077
 Sum of Mulliken charges =  -0.00000
 Mulliken charges with hydrogens summed into heavy atoms:
               1
     1  O   -0.458668
     2  N    0.508799
     3  O   -0.485680
     4  C   -0.027554
     5  C    0.487716
     6  N   -0.396380
     7  C    0.237904
     9  C    0.033036
    10  C    0.000822
    11  C    0.038478
    12  C    0.023571
    13  C    0.167378
    15  N   -0.497032
    16  C    0.367609
 Electronic spatial extent (au):  <R**2>=           3127.6096
 Charge=             -0.0000 electrons
 Dipole moment (field-independent basis, Debye):
    X=              5.3644    Y=              4.5255    Z=              0.4247  Tot=              7.0311
 Quadrupole moment (field-independent basis, Debye-Ang):
   XX=           -105.5000   YY=            -79.9276   ZZ=            -82.5884
   XY=             -2.0172   XZ=              1.2822   YZ=             -0.6506
 Traceless Quadrupole moment (field-independent basis, Debye-Ang):
   XX=            -16.1614   YY=              9.4111   ZZ=              6.7503
   XY=             -2.0172   XZ=              1.2822   YZ=             -0.6506
 Octapole moment (field-independent basis, Debye-Ang**2):
  XXX=            101.6125  YYY=             36.5641  ZZZ=             -5.4330  XYY=             -2.4937
  XXY=             12.6622  XXZ=             -2.4561  XZZ=             -6.9842  YZZ=             -2.7777
  YYZ=              0.9273  XYZ=              1.0543
 Hexadecapole moment (field-independent basis, Debye-Ang**3):
 XXXX=          -3562.6730 YYYY=           -613.7138 ZZZZ=           -304.1307 XXXY=            -46.7547
 XXXZ=             37.9404 YYYX=            -20.9379 YYYZ=              6.0127 ZZZX=             23.6983
 ZZZY=              4.5970 XXYY=           -652.6100 XXZZ=           -549.5098 YYZZ=           -164.7078
 XXYZ=             -8.0216 YYXZ=              9.5482 ZZXY=              1.6116
 N-N= 9.173490278516D+02 E-N=-3.380707056997D+03  KE= 6.588522059372D+02
 Calling FoFJK, ICntrl=  10002127 FMM=F ISym2X=0 I1Cent= 0 IOpClX= 0 NMat=1 NMatS=1 NMatT=0.
 -------------------------------------------------------------------
 Center     Atomic                   Forces (Hartrees/Bohr)
 Number     Number              X              Y              Z
 -------------------------------------------------------------------
      1        8           0.001992197   -0.018309598   -0.006152745
      2        7           0.039411830    0.013024133    0.000561297
      3        8          -0.004710821    0.015654817    0.004729086
      4        6          -0.003079070    0.008292250    0.009014650
      5        6           0.003188347   -0.016429766   -0.004768862
      6        7           0.014434425   -0.010448932   -0.006512189
      7        6          -0.004557912    0.005239299    0.003029716
      8        1          -0.010035942   -0.001734175   -0.007683565
      9        6          -0.003997090    0.000171422   -0.002162553
     10        6           0.002842883   -0.000870120    0.001016554
     11        6          -0.001064380   -0.004632765   -0.002403063
     12        6           0.000840585   -0.008719069   -0.002796972
     13        6           0.008963707   -0.001989561    0.004750759
     14        1           0.000918268    0.004450028   -0.009854424
     15        7           0.000271955    0.001258355    0.001629821
     16        6          -0.021069354    0.007486148    0.002394160
     17        1           0.007052241   -0.006067768   -0.006022160
     18        1          -0.017579945   -0.001677218    0.006115588
     19        1           0.003090943    0.005918999    0.007682006
     20        1          -0.003254376   -0.007325397    0.002629007
     21        1          -0.004394109    0.002452129    0.009589940
     22        1          -0.003966462   -0.004011892   -0.007398179
     23        1           0.003960783    0.006175845    0.009280447
     24        1          -0.009371643    0.002616747   -0.002173845
     25        1          -0.000765790    0.010578904   -0.002459940
     26        1          -0.004759216   -0.004830868   -0.004361409
     27        1           0.005637946    0.003728053    0.002326875
 -------------------------------------------------------------------
 Cartesian Forces:  Max     0.039411830 RMS     0.008340903

 GradGradGradGradGradGradGradGradGradGradGradGradGradGradGradGradGradGrad
 Berny optimization.
 FormGI is forming the generalized inverse of G from B-inverse, IUseBI=4.
 Internal  Forces:  Max     0.038000838 RMS     0.006900531
 Search for a local minimum.
 Step number   1 out of a maximum of   20
 All quantities printed in internal units (Hartrees-Bohrs-Radians)
 Mixed Optimization -- RFO/linear search
 Second derivative matrix not updated -- first step.
 ITU=  0
     Eigenvalues ---    0.00230   0.00770   0.01041   0.01144   0.01196
     Eigenvalues ---    0.01483   0.01530   0.01600   0.01970   0.02016
     Eigenvalues ---    0.02085   0.02689   0.03663   0.04506   0.04694
     Eigenvalues ---    0.04838   0.05081   0.05138   0.05304   0.05893
     Eigenvalues ---    0.06265   0.07216   0.07701   0.07725   0.07872
     Eigenvalues ---    0.07993   0.08050   0.08057   0.10459   0.11739
     Eigenvalues ---    0.12268   0.13491   0.15260   0.15741   0.15991
     Eigenvalues ---    0.16000   0.20084   0.21944   0.23136   0.24978
     Eigenvalues ---    0.25000   0.25000   0.25372   0.26201   0.26651
     Eigenvalues ---    0.27979   0.28084   0.28473   0.29541   0.31459
     Eigenvalues ---    0.31625   0.32045   0.32237   0.32289   0.32381
     Eigenvalues ---    0.32388   0.32405   0.32516   0.32525   0.32580
     Eigenvalues ---    0.33296   0.33393   0.33607   0.35367   0.43883
     Eigenvalues ---    0.44195   0.49139   0.66978   0.90425   0.91163
     Eigenvalues --- 1000.000001000.000001000.000001000.000001000.00000
     Eigenvalues --- 1000.000001000.000001000.000001000.000001000.00000
     Eigenvalues --- 1000.000001000.000001000.000001000.000001000.00000
     Eigenvalues --- 1000.000001000.000001000.000001000.000001000.00000
     Eigenvalues --- 1000.000001000.000001000.000001000.000001000.00000
     Eigenvalues --- 1000.000001000.000001000.000001000.000001000.00000
     Eigenvalues --- 1000.000001000.000001000.000001000.000001000.00000
     Eigenvalues --- 1000.000001000.000001000.000001000.000001000.00000
     Eigenvalues --- 1000.000001000.000001000.000001000.000001000.00000
     Eigenvalues --- 1000.000001000.000001000.000001000.000001000.00000
     Eigenvalues --- 1000.000001000.000001000.000001000.000001000.00000
     Eigenvalues --- 1000.000001000.000001000.000001000.000001000.00000
     Eigenvalues --- 1000.000001000.000001000.000001000.000001000.00000
     Eigenvalues --- 1000.000001000.000001000.000001000.000001000.00000
     Eigenvalues --- 1000.000001000.000001000.000001000.000001000.00000
     Eigenvalues --- 1000.000001000.000001000.000001000.000001000.00000
     Eigenvalues --- 1000.000001000.000001000.000001000.000001000.00000
     Eigenvalues --- 1000.000001000.000001000.000001000.000001000.00000
     Eigenvalues --- 1000.00000
 RFO step:  Lambda=-2.38690462D-02 EMin= 2.30021792D-03
 Linear search not attempted -- first point.
 Iteration  1 RMS(Cart)=  0.05661811 RMS(Int)=  0.00109182
 Iteration  2 RMS(Cart)=  0.00117598 RMS(Int)=  0.00023596
 Iteration  3 RMS(Cart)=  0.00000080 RMS(Int)=  0.00023596
 Iteration  1 RMS(Cart)=  0.00003390 RMS(Int)=  0.00002562
 Iteration  2 RMS(Cart)=  0.00001611 RMS(Int)=  0.00002851
 Iteration  3 RMS(Cart)=  0.00000816 RMS(Int)=  0.00003156
 Iteration  4 RMS(Cart)=  0.00000461 RMS(Int)=  0.00003337
 Iteration  5 RMS(Cart)=  0.00000301 RMS(Int)=  0.00003443
 Iteration  6 RMS(Cart)=  0.00000224 RMS(Int)=  0.00003509
 Iteration  7 RMS(Cart)=  0.00000180 RMS(Int)=  0.00003554
 Iteration  8 RMS(Cart)=  0.00000151 RMS(Int)=  0.00003587
 Iteration  9 RMS(Cart)=  0.00000128 RMS(Int)=  0.00003613
 Iteration 10 RMS(Cart)=  0.00000109 RMS(Int)=  0.00003634
 Iteration 11 RMS(Cart)=  0.00000093 RMS(Int)=  0.00003651
 Variable       Old X    -DE/DX   Delta X   Delta X   Delta X     New X
                                 (Linear)    (Quad)   (Total)
    R1        2.32402   0.01779   0.00000   0.01902   0.01902   2.34303
    R2        2.32738   0.01569   0.00000   0.01690   0.01690   2.34428
    R3        2.88889  -0.03800   0.00000  -0.11902  -0.11902   2.76986
    R4        2.64542  -0.03474   0.00000  -0.07514  -0.07488   2.57053
    R5        2.81042  -0.02194   0.00000  -0.06297  -0.06273   2.74769
    R6        2.59084  -0.02479   0.00000  -0.04805  -0.04796   2.54288
    R7        2.08367  -0.01032   0.00000  -0.02884  -0.02884   2.05483
    R8        2.82450  -0.01942   0.00000  -0.05388  -0.05398   2.77052
    R9        1.93295  -0.00663   0.00000  -0.01432  -0.01432   1.91863
   R10        2.11844  -0.01186   0.00000  -0.03505  -0.03505   2.08339
   R11        2.92738  -0.01302   0.00000  -0.04432  -0.04434   2.88304
   R12        2.90259  -0.00451   0.00000  -0.00895  -0.00898   2.89361
   R13        2.91136  -0.00463   0.00000  -0.01434  -0.01436   2.89700
   R14        2.09910  -0.00996   0.00000  -0.02855  -0.02855   2.07056
   R15        2.09893  -0.00802   0.00000  -0.02296  -0.02296   2.07596
   R16        2.90430  -0.00181   0.00000  -0.00714  -0.00718   2.89712
   R17        2.10139  -0.01058   0.00000  -0.03041  -0.03041   2.07098
   R18        2.10317  -0.00901   0.00000  -0.02598  -0.02598   2.07719
   R19        2.91770  -0.00907   0.00000  -0.02875  -0.02873   2.88897
   R20        2.10413  -0.01168   0.00000  -0.03372  -0.03372   2.07040
   R21        2.10109  -0.00995   0.00000  -0.02859  -0.02859   2.07250
   R22        2.93532  -0.01057   0.00000  -0.03639  -0.03637   2.89895
   R23        2.10153  -0.01073   0.00000  -0.03086  -0.03086   2.07067
   R24        2.09796  -0.00786   0.00000  -0.02247  -0.02247   2.07549
   R25        2.10762  -0.00915   0.00000  -0.02657  -0.02657   2.08105
   R26        2.76795  -0.00519   0.00000  -0.01076  -0.01110   2.75685
   R27        2.44281  -0.00541   0.00000  -0.00735  -0.00739   2.43542
   R28        2.07999  -0.00643   0.00000  -0.01785  -0.01785   2.06214
    A1        2.15724   0.01113   0.00000   0.04066   0.04050   2.19774
    A2        2.05495  -0.00692   0.00000  -0.02524  -0.02540   2.02955
    A3        2.07099  -0.00421   0.00000  -0.01534  -0.01550   2.05548
    A4        2.03274  -0.00834   0.00000  -0.02816  -0.02861   2.00413
    A5        2.03566  -0.00225   0.00000  -0.00587  -0.00636   2.02930
    A6        2.21389   0.01052   0.00000   0.03238   0.03255   2.24644
    A7        2.20094   0.00612   0.00000   0.01894   0.01928   2.22022
    A8        2.06428  -0.00335   0.00000  -0.01084  -0.01108   2.05320
    A9        2.01701  -0.00273   0.00000  -0.00731  -0.00757   2.00943
   A10        2.25338  -0.00540   0.00000  -0.01862  -0.01867   2.23471
   A11        2.11628  -0.01260   0.00000  -0.07199  -0.07235   2.04393
   A12        1.87552   0.01820   0.00000   0.09790   0.09805   1.97357
   A13        1.83799  -0.00156   0.00000  -0.01748  -0.01728   1.82071
   A14        2.00685  -0.00111   0.00000  -0.01265  -0.01267   1.99418
   A15        1.96703   0.00095   0.00000   0.00134   0.00086   1.96789
   A16        1.85187   0.00266   0.00000   0.02388   0.02371   1.87558
   A17        1.84910   0.00083   0.00000   0.01847   0.01829   1.86739
   A18        1.93698  -0.00145   0.00000  -0.00925  -0.00893   1.92805
   A19        1.91017   0.00011   0.00000  -0.00488  -0.00502   1.90515
   A20        1.92262  -0.00073   0.00000  -0.01289  -0.01286   1.90976
   A21        1.92281  -0.00164   0.00000  -0.00702  -0.00701   1.91580
   A22        1.91925  -0.00040   0.00000   0.00567   0.00562   1.92487
   A23        1.90443   0.00307   0.00000   0.02447   0.02448   1.92891
   A24        1.88435  -0.00039   0.00000  -0.00491  -0.00517   1.87918
   A25        1.94043  -0.00088   0.00000   0.00556   0.00544   1.94587
   A26        1.91896  -0.00071   0.00000  -0.00686  -0.00687   1.91209
   A27        1.90498   0.00032   0.00000  -0.00294  -0.00299   1.90199
   A28        1.91614   0.00080   0.00000   0.00712   0.00716   1.92330
   A29        1.89849   0.00171   0.00000   0.01114   0.01117   1.90965
   A30        1.88380  -0.00122   0.00000  -0.01450  -0.01458   1.86922
   A31        1.94470   0.00064   0.00000   0.00512   0.00525   1.94994
   A32        1.90235   0.00062   0.00000   0.00583   0.00578   1.90813
   A33        1.91749   0.00038   0.00000   0.00526   0.00523   1.92272
   A34        1.90651  -0.00112   0.00000  -0.01410  -0.01415   1.89236
   A35        1.91538  -0.00048   0.00000   0.00012   0.00004   1.91542
   A36        1.87604  -0.00007   0.00000  -0.00261  -0.00264   1.87340
   A37        1.94805  -0.00298   0.00000  -0.01814  -0.01817   1.92988
   A38        1.90594   0.00254   0.00000   0.01684   0.01669   1.92263
   A39        1.91063   0.00139   0.00000   0.01325   0.01323   1.92386
   A40        1.90612   0.00019   0.00000  -0.00293  -0.00278   1.90334
   A41        1.91129  -0.00020   0.00000  -0.00465  -0.00459   1.90670
   A42        1.88056  -0.00087   0.00000  -0.00388  -0.00407   1.87650
   A43        1.84664   0.00454   0.00000   0.02341   0.02344   1.87008
   A44        1.93897  -0.00433   0.00000  -0.03120  -0.03161   1.90736
   A45        1.98234   0.00077   0.00000   0.01089   0.01107   1.99341
   A46        1.88049   0.00223   0.00000   0.03011   0.03041   1.91090
   A47        1.89205  -0.00381   0.00000  -0.02812  -0.02815   1.86389
   A48        1.91875   0.00082   0.00000  -0.00277  -0.00264   1.91611
   A49        2.08333  -0.00607   0.00000  -0.01370  -0.01407   2.06926
   A50        2.25090  -0.00525   0.00000  -0.02218  -0.02215   2.22874
   A51        1.98073   0.00545   0.00000   0.02653   0.02610   2.00682
   A52        2.05153  -0.00019   0.00000  -0.00406  -0.00450   2.04704
    D1        3.09946  -0.00114   0.00000  -0.03833  -0.03754   3.06192
    D2        0.00002   0.00015   0.00000   0.00000  -0.00000   0.00002
    D3       -0.04459  -0.00031   0.00000  -0.00646  -0.00607  -0.05066
    D4        3.13915   0.00098   0.00000   0.03187   0.03148  -3.11256
    D5        3.07507   0.00074   0.00000   0.02107   0.02105   3.09612
    D6       -0.01712  -0.00024   0.00000   0.00111   0.00104  -0.01609
    D7       -0.11361  -0.00112   0.00000  -0.02304  -0.02347  -0.13708
    D8        3.07739  -0.00210   0.00000  -0.04299  -0.04349   3.03390
    D9       -2.69307  -0.00211   0.00000  -0.04849  -0.04917  -2.74224
   D10        0.44063   0.00019   0.00000  -0.00287  -0.00326   0.43737
   D11        0.49567  -0.00010   0.00000  -0.00380  -0.00359   0.49208
   D12       -2.65381   0.00219   0.00000   0.04183   0.04231  -2.61150
   D13       -0.13509  -0.00025   0.00000   0.02124   0.02143  -0.11367
   D14        2.67543   0.00368   0.00000   0.06839   0.06740   2.74283
   D15        2.95827   0.00069   0.00000   0.04061   0.04090   2.99917
   D16       -0.51440   0.00461   0.00000   0.08776   0.08688  -0.42752
   D17       -2.47649  -0.00072   0.00000  -0.01737  -0.01698  -2.49348
   D18        1.77490  -0.00236   0.00000  -0.02840  -0.02806   1.74684
   D19       -0.46864  -0.00017   0.00000  -0.00498  -0.00498  -0.47361
   D20        0.96069  -0.00012   0.00000  -0.03646  -0.03697   0.92372
   D21       -1.07110  -0.00177   0.00000  -0.04749  -0.04805  -1.11915
   D22        2.96854   0.00042   0.00000  -0.02407  -0.02496   2.94358
   D23        2.94458   0.00238   0.00000   0.02569   0.02559   2.97017
   D24       -1.22642   0.00150   0.00000   0.02142   0.02134  -1.20509
   D25        0.85059  -0.00045   0.00000   0.00294   0.00294   0.85352
   D26        0.92073   0.00316   0.00000   0.03842   0.03842   0.95915
   D27        3.03291   0.00228   0.00000   0.03416   0.03417   3.06708
   D28       -1.17327   0.00033   0.00000   0.01568   0.01577  -1.15750
   D29       -1.08017   0.00142   0.00000   0.00797   0.00796  -1.07222
   D30        1.03201   0.00054   0.00000   0.00371   0.00371   1.03571
   D31        3.10902  -0.00142   0.00000  -0.01477  -0.01470   3.09432
   D32       -2.90052  -0.00102   0.00000  -0.01310  -0.01287  -2.91340
   D33       -0.86444   0.00201   0.00000   0.02014   0.01999  -0.84445
   D34        1.30938   0.00026   0.00000   0.00000  -0.00001   1.30938
   D35       -0.89938  -0.00192   0.00000  -0.02241  -0.02231  -0.92169
   D36        1.13671   0.00112   0.00000   0.01083   0.01055   1.14726
   D37       -2.97266  -0.00064   0.00000  -0.00931  -0.00945  -2.98210
   D38        1.10325   0.00097   0.00000   0.01141   0.01151   1.11476
   D39        3.13934   0.00401   0.00000   0.04465   0.04437  -3.09948
   D40       -0.97003   0.00225   0.00000   0.02451   0.02437  -0.94565
   D41        0.95665   0.00065   0.00000   0.00000   0.00001   0.95666
   D42        3.08231   0.00059   0.00000   0.00803   0.00799   3.09030
   D43       -1.13764  -0.00113   0.00000  -0.01539  -0.01536  -1.15300
   D44       -1.15757   0.00173   0.00000   0.01549   0.01556  -1.14201
   D45        0.96809   0.00167   0.00000   0.02352   0.02354   0.99163
   D46        3.03132  -0.00005   0.00000   0.00010   0.00019   3.03152
   D47        3.06187   0.00060   0.00000   0.00348   0.00344   3.06532
   D48       -1.09565   0.00054   0.00000   0.01151   0.01143  -1.08423
   D49        0.96758  -0.00118   0.00000  -0.01191  -0.01192   0.95566
   D50       -0.92192  -0.00082   0.00000   0.00000   0.00001  -0.92191
   D51        1.18331  -0.00141   0.00000  -0.01050  -0.01051   1.17280
   D52       -3.04847  -0.00090   0.00000  -0.00719  -0.00723  -3.05570
   D53       -3.04922   0.00012   0.00000   0.00012   0.00014  -3.04909
   D54       -0.94399  -0.00047   0.00000  -0.01038  -0.01038  -0.95437
   D55        1.10741   0.00003   0.00000  -0.00707  -0.00709   1.10031
   D56        1.17622   0.00013   0.00000   0.00700   0.00704   1.18326
   D57       -3.00174  -0.00045   0.00000  -0.00349  -0.00348  -3.00521
   D58       -0.95034   0.00005   0.00000  -0.00019  -0.00020  -0.95053
   D59        0.98770  -0.00082   0.00000  -0.01174  -0.01179   0.97591
   D60        3.09695  -0.00079   0.00000  -0.01580  -0.01595   3.08101
   D61       -1.13122   0.00044   0.00000  -0.00300  -0.00297  -1.13420
   D62       -1.11509  -0.00126   0.00000  -0.01296  -0.01295  -1.12804
   D63        0.99417  -0.00123   0.00000  -0.01701  -0.01711   0.97706
   D64        3.04918   0.00000   0.00000  -0.00422  -0.00414   3.04504
   D65        3.11547  -0.00024   0.00000  -0.00159  -0.00159   3.11388
   D66       -1.05846  -0.00021   0.00000  -0.00565  -0.00575  -1.06421
   D67        0.99655   0.00102   0.00000   0.00715   0.00722   1.00378
   D68       -1.05216   0.00006   0.00000  -0.00025  -0.00016  -1.05232
   D69       -3.12739   0.00161   0.00000   0.00877   0.00841  -3.11898
   D70        1.08001   0.00149   0.00000   0.01074   0.01064   1.09065
   D71        3.12187  -0.00134   0.00000  -0.00773  -0.00757   3.11430
   D72        1.04664   0.00021   0.00000   0.00129   0.00100   1.04765
   D73       -1.02914   0.00008   0.00000   0.00326   0.00323  -1.02591
   D74        1.06638  -0.00029   0.00000   0.00137   0.00157   1.06795
   D75       -1.00885   0.00126   0.00000   0.01039   0.01014  -0.99871
   D76       -3.08463   0.00114   0.00000   0.01236   0.01237  -3.07226
   D77       -1.17216   0.00380   0.00000   0.00000  -0.00001  -1.17217
   D78        3.06399   0.00022   0.00000  -0.01703  -0.01691   3.04707
   D79        1.01252  -0.00070   0.00000  -0.03534  -0.03560   0.97692
   D80        0.12652   0.00179   0.00000   0.01731   0.01703   0.14355
   D81       -3.00691  -0.00060   0.00000  -0.03000  -0.02990  -3.03681
         Item               Value     Threshold  Converged?
 Maximum Force            0.038001     0.000450     NO 
 RMS     Force            0.006978     0.000300     NO 
 Maximum Displacement     0.292923     0.001800     NO 
 RMS     Displacement     0.056872     0.001200     NO 
 Predicted change in Energy=-1.331675D-02
 GradGradGradGradGradGradGradGradGradGradGradGradGradGradGradGradGradGrad

                          Input orientation:                          
 ---------------------------------------------------------------------
 Center     Atomic      Atomic             Coordinates (Angstroms)
 Number     Number       Type             X           Y           Z
 ---------------------------------------------------------------------
      1          8           0       -3.495372   -1.385552   -0.372315
      2          7           0       -3.129568   -0.251353   -0.030144
      3          8           0       -3.874612    0.693271    0.272397
      4          6           0       -1.683841   -0.009990   -0.023793
      5          6           0       -1.319566    1.269215    0.261275
      6          7           0       -0.069143    1.751866    0.380535
      7          6           0        1.192702    1.005610    0.363836
      8          1           0        1.825106    1.522695    1.104214
      9          6           0        1.926901    1.045548   -0.972924
     10          6           0        3.327537    0.448084   -0.795656
     11          6           0        3.265078   -0.961565   -0.196197
     12          6           0        2.441588   -0.992892    1.091453
     13          6           0        1.032385   -0.439612    0.843734
     14          1           0        0.463177   -0.448768    1.786420
     15          7           0        0.396375   -1.324954   -0.125774
     16          6           0       -0.842947   -1.128217   -0.419550
     17          1           0       -2.112415    1.991411    0.440695
     18          1           0        0.056782    2.749741    0.241936
     19          1           0        1.361123    0.473336   -1.716572
     20          1           0        1.992913    2.082447   -1.329720
     21          1           0        3.841772    0.425355   -1.763164
     22          1           0        3.913497    1.101095   -0.133484
     23          1           0        2.803252   -1.642949   -0.919240
     24          1           0        4.277646   -1.333114    0.002432
     25          1           0        2.362123   -2.020311    1.463964
     26          1           0        2.933101   -0.395665    1.871201
     27          1           0       -1.325603   -1.860730   -1.068602
 ---------------------------------------------------------------------
                    Distance matrix (angstroms):
                    1          2          3          4          5
     1  O    0.000000
     2  N    1.239880   0.000000
     3  O    2.209295   1.240539   0.000000
     4  C    2.301148   1.465749   2.319867   0.000000
     5  C    3.490467   2.381839   2.619178   1.360267   0.000000
     6  N    4.706295   3.680725   3.951444   2.423812   1.345634
     7  C    5.313908   4.518539   5.077754   3.075094   2.528141
     8  H    6.240635   5.383568   5.819505   3.991771   3.265541
     9  C    5.972606   5.304588   5.944113   3.879751   3.480347
    10  C    7.077678   6.539833   7.285039   5.091121   4.836002
    11  C    6.776021   6.436106   7.343925   5.042521   5.119044
    12  C    6.127340   5.731111   6.588504   4.385093   4.466834
    13  C    4.782694   4.256871   5.068379   2.883585   2.964965
    14  H    4.605195   4.030719   4.734230   2.842373   2.907870
    15  N    3.900019   3.687009   4.740580   2.463093   3.134321
    16  C    2.665298   2.479750   3.603832   1.454014   2.537393
    17  H    3.738641   2.507245   2.195183   2.098817   1.087368
    18  H    5.485960   4.385592   4.436874   3.273606   2.021550
    19  H    5.371037   4.851341   5.605113   3.517231   3.425112
    20  H    6.562386   5.777138   6.238945   4.427444   3.763658
    21  H    7.684240   7.215322   7.984853   5.809247   5.608018
    22  H    7.818683   7.172486   7.809334   5.707604   5.250623
    23  H    6.327562   6.158358   7.174384   4.858229   5.183815
    24  H    7.782223   7.485859   8.404667   6.106609   6.178017
    25  H    6.171312   5.959885   6.905086   4.756536   5.081562
    26  H    6.880299   6.355462   7.077211   5.005587   4.842403
    27  H    2.327769   2.631117   3.849500   2.155272   3.400759
                    6          7          8          9         10
     6  N    0.000000
     7  C    1.466094   0.000000
     8  H    2.040689   1.102484   0.000000
     9  C    2.512952   1.525638   2.133667   0.000000
    10  C    3.823703   2.492544   2.649829   1.533026   0.000000
    11  C    4.337321   2.911727   3.152164   2.534270   1.533089
    12  C    3.787199   2.466405   2.590057   2.946489   2.534265
    13  C    2.496096   1.531232   2.132348   2.511196   2.956912
    14  H    2.665083   2.161288   2.491370   3.462578   3.959295
    15  N    3.152757   2.511052   3.415150   2.946091   3.490575
    16  C    3.087682   3.051357   4.058041   3.564202   4.474272
    17  H    2.058145   3.449857   4.020450   4.382813   5.788221
    18  H    1.015294   2.084986   2.318649   2.806688   4.131834
    19  H    2.842209   2.154014   3.045204   1.095693   2.171522
    20  H    2.699320   2.160566   2.503101   1.098553   2.176600
    21  H    4.652993   3.446506   3.673277   2.162372   1.095914
    22  H    4.068064   2.767521   2.463945   2.157385   1.099202
    23  H    4.633016   3.354850   3.882325   2.828231   2.159298
    24  H    5.343654   3.888074   3.922311   3.483584   2.170788
    25  H    4.616729   3.425495   3.601486   3.940473   3.482941
    26  H    3.980885   2.695312   2.344361   3.343439   2.824822
    27  H    4.090175   4.075493   5.108391   4.362841   5.201618
                   11         12         13         14         15
    11  C    0.000000
    12  C    1.528777   0.000000
    13  C    2.517699   1.534059   0.000000
    14  H    3.470501   2.166370   1.101244   0.000000
    15  N    2.892485   2.403082   1.458864   2.104436   0.000000
    16  C    4.117466   3.617957   2.363669   2.652153   1.288770
    17  H    6.167911   5.483475   3.995257   3.794618   4.196807
    18  H    4.925334   4.518438   3.389091   3.575060   4.105323
    19  H    2.827636   3.346974   2.738012   3.731961   2.587513
    20  H    3.488450   3.939683   3.465155   4.296216   3.950797
    21  H    2.170602   3.481492   3.928963   4.977806   4.197070
    22  H    2.163087   2.837564   3.410212   4.241794   4.272695
    23  H    1.095609   2.143890   2.773458   3.771288   2.554166
    24  H    1.096721   2.161672   3.469561   4.302889   3.883396
    25  H    2.166196   1.095750   2.156733   2.485904   2.622013
    26  H    2.169005   1.098304   2.161098   2.471949   3.359534
    27  H    4.758564   4.428398   3.352120   3.653015   2.034990
                   16         17         18         19         20
    16  C    0.000000
    17  H    3.476154   0.000000
    18  H    4.035546   2.306510   0.000000
    19  H    3.017476   4.361630   3.274000   0.000000
    20  H    4.379368   4.471730   2.581469   1.771454   0.000000
    21  H    5.115220   6.539257   4.873330   2.481551   2.520339
    22  H    5.260744   6.118330   4.211084   3.068365   2.466308
    23  H    3.716101   6.262729   5.309157   2.682189   3.834543
    24  H    5.142035   7.216469   5.877309   3.837231   4.319802
    25  H    3.823078   6.096104   5.437034   4.163662   4.977309
    26  H    4.476909   5.762093   4.563036   4.012280   4.155826
    27  H    1.091238   4.211418   4.988480   3.617489   5.160365
                   21         22         23         24         25
    21  H    0.000000
    22  H    1.765681   0.000000
    23  H    2.463456   3.062652   0.000000
    24  H    2.529729   2.465046   1.766158   0.000000
    25  H    4.311033   3.834290   2.452888   2.505502   0.000000
    26  H    3.835149   2.687048   3.059272   2.485741   1.769557
    27  H    5.693010   6.090568   4.137291   5.729039   4.476458
                   26         27
    26  H    0.000000
    27  H    5.378235   0.000000
 Symmetry turned off by external request.
 Stoichiometry    C9H13N3O2
 Framework group  C1[X(C9H13N3O2)]
 Deg. of freedom    75
 Full point group                 C1      NOp   1
 Rotational constants (GHZ):           1.6889571           0.4204762           0.3726496
 Standard basis: 6-31G(d) (6D, 7F)
   236 basis functions,   444 primitive gaussians,   236 cartesian basis functions
    52 alpha electrons       52 beta electrons
       nuclear repulsion energy       932.0941393941 Hartrees.
 NAtoms=   27 NActive=   27 NUniq=   27 SFac= 1.00D+00 NAtFMM=   60 NAOKFM=F Big=F
 Integral buffers will be    131072 words long.
 Raffenetti 1 integral format.
 Two-electron integral symmetry is turned off.
 One-electron integrals computed using PRISM.
 NBasis=   236 RedAO= T EigKep=  9.95D-04  NBF=   236
 NBsUse=   236 1.00D-06 EigRej= -1.00D+00 NBFU=   236
 Initial guess from the checkpoint file:  "/home/alexey/tmp/Gau-1107554.chk"
 B after Tr=     0.055646    0.007047   -0.002836
         Rot=    0.999998   -0.000404    0.001453    0.001505 Ang=  -0.24 deg.
 ExpMin= 1.61D-01 ExpMax= 5.48D+03 ExpMxC= 8.25D+02 IAcc=3 IRadAn=         5 AccDes= 0.00D+00
 Harris functional with IExCor=  205 and IRadAn=       5 diagonalized for initial guess.
 HarFok:  IExCor=  205 AccDes= 0.00D+00 IRadAn=         5 IDoV= 1 UseB2=F ITyADJ=14
 ICtDFT=  3500011 ScaDFX=  1.000000  1.000000  1.000000  1.000000
 FoFCou: FMM=F IPFlag=           0 FMFlag=      100000 FMFlg1=           0
         NFxFlg=           0 DoJE=T BraDBF=F KetDBF=T FulRan=T
         wScrn=  0.000000 ICntrl=       500 IOpCl=  0 I1Cent=   200000004 NGrid=           0
         NMat0=    1 NMatS0=      1 NMatT0=    0 NMatD0=    1 NMtDS0=    0 NMtDT0=    0
 Symmetry not used in FoFCou.
 Keep R1 ints in memory in canonical form, NReq=397720213.
 Requested convergence on RMS density matrix=1.00D-08 within 128 cycles.
 Requested convergence on MAX density matrix=1.00D-06.
 Requested convergence on             energy=1.00D-06.
 No special actions if energy rises.
 SCF Done:  E(RHF) =  -661.298225643     A.U. after   15 cycles
            NFock= 15  Conv=0.37D-08     -V/T= 2.0024
 ExpMin= 1.61D-01 ExpMax= 5.48D+03 ExpMxC= 8.25D+02 IAcc=3 IRadAn=         5 AccDes= 0.00D+00
 HarFok:  IExCor=  205 AccDes= 0.00D+00 IRadAn=         5 IDoV=-2 UseB2=F ITyADJ=14
 ICtDFT= 12500011 ScaDFX=  1.000000  1.000000  1.000000  1.000000
 Range of M.O.s used for correlation:    15   236
 NBasis=   236 NAE=    52 NBE=    52 NFC=    14 NFV=     0
 NROrb=    222 NOA=    38 NOB=    38 NVA=   184 NVB=   184
 Fully direct method using O(ONN) memory.
 JobTyp=1 Pass  1:  I=  15 to  52 NPSUse=  4 ParTrn=T ParDer=T DoDerP=T.
 Spin components of T(2) and E(2):
     alpha-alpha T2 =       0.9125064024D-01 E2=     -0.2723384916D+00
     alpha-beta  T2 =       0.4912231777D+00 E2=     -0.1487984700D+01
     beta-beta   T2 =       0.9125064024D-01 E2=     -0.2723384916D+00
 ANorm=    0.1293725032D+01
 E2 =    -0.2032661683D+01 EUMP2 =    -0.66333088732620D+03
          IDoAtm=111111111111111111111111111
          Differentiating once with respect to electric field.
                with respect to dipole field.
          Differentiating once with respect to nuclear coordinates.
 Keep R1 ints in memory in canonical form, NReq=397723379.
          There are     1 degrees of freedom in the 1st order CPHF.  IDoFFX=0 NUNeed=     1.
 LinEq1:  Iter=  0 NonCon=     1 RMS=4.57D-03 Max=1.20D-01 NDo=     1
 AX will form     1 AO Fock derivatives at one time.
 LinEq1:  Iter=  1 NonCon=     1 RMS=1.54D-03 Max=2.88D-02 NDo=     1
 LinEq1:  Iter=  2 NonCon=     1 RMS=6.41D-04 Max=2.00D-02 NDo=     1
 LinEq1:  Iter=  3 NonCon=     1 RMS=2.80D-04 Max=8.21D-03 NDo=     1
 LinEq1:  Iter=  4 NonCon=     1 RMS=8.71D-05 Max=1.90D-03 NDo=     1
 LinEq1:  Iter=  5 NonCon=     1 RMS=3.64D-05 Max=1.79D-03 NDo=     1
 LinEq1:  Iter=  6 NonCon=     1 RMS=1.42D-05 Max=5.28D-04 NDo=     1
 LinEq1:  Iter=  7 NonCon=     1 RMS=5.42D-06 Max=9.51D-05 NDo=     1
 LinEq1:  Iter=  8 NonCon=     1 RMS=2.16D-06 Max=5.43D-05 NDo=     1
 LinEq1:  Iter=  9 NonCon=     1 RMS=7.86D-07 Max=2.39D-05 NDo=     1
[...]
    26  H    2.175743   1.098795   2.166966   2.497242   3.362641
    27  H    4.723839   4.418897   3.357372   3.657473   2.029867
                   16         17         18         19         20
    16  C    0.000000
    17  H    3.464055   0.000000
    18  H    4.087396   2.234798   0.000000
    19  H    2.990697   4.311669   3.508860   0.000000
    20  H    4.375530   4.458041   2.879428   1.768557   0.000000
    21  H    5.096502   6.517053   5.084976   2.499109   2.521049
    22  H    5.249206   6.102168   4.313442   3.070216   2.461454
    23  H    3.694621   6.235809   5.419979   2.704074   3.842852
    24  H    5.133839   7.199553   5.936775   3.849546   4.317109
    25  H    3.821822   6.080769   5.370576   4.171477   4.985030
    26  H    4.495929   5.773853   4.487144   4.036025   4.182312
    27  H    1.089365   4.217625   5.077782   3.583225   5.148071
                   21         22         23         24         25
    21  H    0.000000
    22  H    1.758860   0.000000
    23  H    2.469418   3.062276   0.000000
    24  H    2.517328   2.459936   1.764571   0.000000
    25  H    4.311996   3.839583   2.444055   2.519692   0.000000
    26  H    3.846785   2.704506   3.060419   2.491808   1.767984
    27  H    5.652578   6.060563   4.089882   5.694443   4.454586
                   26         27
    26  H    0.000000
    27  H    5.378909   0.000000
 Symmetry turned off by external request.
 Stoichiometry    C9H13N3O2
 Framework group  C1[X(C9H13N3O2)]
 Deg. of freedom    75
 Full point group                 C1      NOp   1
 Rotational constants (GHZ):           1.6821726           0.4180702           0.3726143

 **********************************************************************

            Population analysis using the SCF Density.

 **********************************************************************

 Alpha  occ. eigenvalues --  -20.59232 -20.58918 -15.84757 -15.64119 -15.56124
 Alpha  occ. eigenvalues --  -11.35013 -11.29615 -11.29533 -11.28648 -11.27132
 Alpha  occ. eigenvalues --  -11.23725 -11.23206 -11.22691 -11.22089  -1.57144
 Alpha  occ. eigenvalues --   -1.36726  -1.30968  -1.23056  -1.14699  -1.09811
 Alpha  occ. eigenvalues --   -1.02801  -1.01307  -0.94459  -0.89697  -0.85566
 Alpha  occ. eigenvalues --   -0.82441  -0.78610  -0.77411  -0.75188  -0.72030
 Alpha  occ. eigenvalues --   -0.69622  -0.69597  -0.67883  -0.64857  -0.63792
 Alpha  occ. eigenvalues --   -0.62346  -0.60296  -0.57703  -0.56995  -0.55060
 Alpha  occ. eigenvalues --   -0.54569  -0.50794  -0.50062  -0.48670  -0.48115
 Alpha  occ. eigenvalues --   -0.47350  -0.46201  -0.46007  -0.43707  -0.41698
 Alpha  occ. eigenvalues --   -0.39838  -0.33816
 Alpha virt. eigenvalues --    0.07514   0.11752   0.17327   0.21873   0.24120
 Alpha virt. eigenvalues --    0.25589   0.27090   0.28640   0.29058   0.29605
 Alpha virt. eigenvalues --    0.30777   0.31834   0.32052   0.32781   0.33974
 Alpha virt. eigenvalues --    0.34396   0.35847   0.37314   0.38586   0.40269
 Alpha virt. eigenvalues --    0.41326   0.42516   0.45164   0.46175   0.46645
 Alpha virt. eigenvalues --    0.47069   0.49026   0.54064   0.57615   0.59542
 Alpha virt. eigenvalues --    0.63909   0.69581   0.69935   0.72836   0.74254
 Alpha virt. eigenvalues --    0.74813   0.75787   0.76639   0.78638   0.79528
 Alpha virt. eigenvalues --    0.81163   0.84719   0.85714   0.85832   0.88517
 Alpha virt. eigenvalues --    0.89441   0.91025   0.92152   0.92889   0.94497
 Alpha virt. eigenvalues --    0.95726   0.98014   0.99710   1.01586   1.02619
 Alpha virt. eigenvalues --    1.03021   1.05892   1.06963   1.07921   1.09103
 Alpha virt. eigenvalues --    1.10067   1.11452   1.11857   1.12554   1.13932
 Alpha virt. eigenvalues --    1.14788   1.14974   1.15859   1.16964   1.18767
 Alpha virt. eigenvalues --    1.19177   1.21342   1.22572   1.23984   1.24234
 Alpha virt. eigenvalues --    1.25299   1.25682   1.27079   1.27820   1.29600
 Alpha virt. eigenvalues --    1.29879   1.33059   1.36061   1.37157   1.40524
 Alpha virt. eigenvalues --    1.41724   1.46950   1.49316   1.51760   1.54523
 Alpha virt. eigenvalues --    1.56095   1.58991   1.59715   1.63071   1.65403
 Alpha virt. eigenvalues --    1.68073   1.68601   1.72979   1.74936   1.77276
 Alpha virt. eigenvalues --    1.81163   1.84716   1.87959   1.90823   1.93880
 Alpha virt. eigenvalues --    1.95746   1.96791   2.00235   2.01446   2.02779
 Alpha virt. eigenvalues --    2.04246   2.05444   2.08473   2.09596   2.12226
 Alpha virt. eigenvalues --    2.13215   2.15402   2.18891   2.20000   2.22638
 Alpha virt. eigenvalues --    2.23102   2.24516   2.25522   2.28237   2.29584
 Alpha virt. eigenvalues --    2.31770   2.33758   2.34937   2.36207   2.38660
 Alpha virt. eigenvalues --    2.40497   2.42243   2.43758   2.45595   2.46845
 Alpha virt. eigenvalues --    2.50640   2.51677   2.52997   2.55528   2.61310
 Alpha virt. eigenvalues --    2.62191   2.65101   2.67808   2.70124   2.70486
 Alpha virt. eigenvalues --    2.72305   2.72587   2.76393   2.78413   2.84968
 Alpha virt. eigenvalues --    2.88496   2.89114   2.92408   2.93354   2.95701
 Alpha virt. eigenvalues --    2.99497   3.01277   3.04583   3.05543   3.07876
 Alpha virt. eigenvalues --    3.09384   3.14936   3.21523   3.24951   3.27225
 Alpha virt. eigenvalues --    3.33636   3.37889   3.38923   3.51985   3.65814
 Alpha virt. eigenvalues --    4.13672   4.28170   4.34674   4.39208   4.46630
 Alpha virt. eigenvalues --    4.56376   4.61784   4.62454   4.73511   4.79968
 Alpha virt. eigenvalues --    4.99368   5.00896   5.04994   5.11164
          Condensed to atoms (all electrons):
               1          2          3          4          5          6
     1  O    8.317113   0.307693  -0.082917  -0.085058   0.004395  -0.000015
     2  N    0.307693   5.719260   0.301823   0.263130  -0.052104   0.000989
     3  O   -0.082917   0.301823   8.352328  -0.092758   0.003390   0.000786
     4  C   -0.085058   0.263130  -0.092758   5.227784   0.558045  -0.048013
     5  C    0.004395  -0.052104   0.003390   0.558045   4.711572   0.318413
     6  N   -0.000015   0.000989   0.000786  -0.048013   0.318413   7.195464
     7  C    0.000003  -0.000137   0.000003   0.004371  -0.030546   0.169637
     8  H   -0.000000   0.000002  -0.000000  -0.000263   0.003074  -0.050777
     9  C   -0.000000  -0.000004  -0.000000   0.000878   0.000639  -0.061546
    10  C   -0.000000   0.000000   0.000000  -0.000038  -0.000052   0.003744
    11  C   -0.000000  -0.000000  -0.000000  -0.000029   0.000024  -0.000189
    12  C   -0.000000   0.000002  -0.000000  -0.000121  -0.000172   0.003876
    13  C   -0.000020  -0.000046  -0.000005  -0.011544  -0.000488  -0.047876
    14  H   -0.000002  -0.000108  -0.000000   0.002696   0.006272  -0.007046
    15  N    0.000456   0.002253  -0.000013  -0.063014  -0.006636   0.001614
    16  C    0.000972  -0.028565   0.002685   0.330822  -0.050913  -0.001895
    17  H    0.000229  -0.007176   0.017353  -0.024119   0.375316  -0.034235
    18  H    0.000001  -0.000050   0.000011   0.001526  -0.031413   0.338590
    19  H    0.000001  -0.000004   0.000000  -0.001201   0.001237  -0.000335
    20  H    0.000000  -0.000000   0.000000  -0.000081   0.000156  -0.000460
    21  H   -0.000000   0.000000   0.000000   0.000001   0.000001  -0.000077
    22  H   -0.000000   0.000000  -0.000000  -0.000000  -0.000003  -0.000117
    23  H    0.000000  -0.000000   0.000000   0.000041   0.000000  -0.000031
    24  H    0.000000   0.000000   0.000000   0.000000  -0.000000   0.000006
    25  H    0.000000  -0.000000   0.000000   0.000024   0.000000  -0.000091
    26  H    0.000000  -0.000000   0.000000   0.000006  -0.000002  -0.000059
    27  H    0.006653  -0.001053   0.000033  -0.061485   0.002157   0.000008
               7          8          9         10         11         12
     1  O    0.000003  -0.000000  -0.000000  -0.000000  -0.000000  -0.000000
     2  N   -0.000137   0.000002  -0.000004   0.000000  -0.000000   0.000002
     3  O    0.000003  -0.000000  -0.000000   0.000000  -0.000000  -0.000000
     4  C    0.004371  -0.000263   0.000878  -0.000038  -0.000029  -0.000121
     5  C   -0.030546   0.003074   0.000639  -0.000052   0.000024  -0.000172
     6  N    0.169637  -0.050777  -0.061546   0.003744  -0.000189   0.003876
     7  C    5.016763   0.418484   0.350454  -0.054675  -0.009036  -0.061197
     8  H    0.418484   0.538202  -0.055166   0.000797  -0.000326  -0.002211
     9  C    0.350454  -0.055166   5.158555   0.324709  -0.050412  -0.005363
    10  C   -0.054675   0.000797   0.324709   5.119365   0.337017  -0.060965
    11  C   -0.009036  -0.000326  -0.050412   0.337017   5.119965   0.335964
    12  C   -0.061197  -0.002211  -0.005363  -0.060965   0.335964   5.118631
    13  C    0.339056  -0.037943  -0.060162  -0.000313  -0.050671   0.372080
    14  H   -0.046530  -0.000742   0.004420  -0.000405   0.004195  -0.036298
    15  N   -0.058132   0.003912  -0.014684   0.001570  -0.013072  -0.082142
    16  C   -0.001648  -0.000003  -0.001215  -0.000030   0.000033   0.002544
    17  H    0.001632  -0.000042  -0.000074   0.000001   0.000000   0.000000
    18  H   -0.021195  -0.004435   0.001306  -0.000083   0.000004  -0.000114
    19  H   -0.036815   0.004364   0.390189  -0.032059  -0.002213   0.000692
    20  H   -0.042396  -0.002077   0.399456  -0.035308   0.003932  -0.000415
    21  H    0.004597  -0.000077  -0.036349   0.402438  -0.034896   0.004347
    22  H   -0.004841   0.003560  -0.046946   0.397740  -0.045403  -0.001019
    23  H    0.000581   0.000035  -0.001958  -0.039021   0.399175  -0.037873
    24  H   -0.000130  -0.000102   0.004387  -0.038434   0.402329  -0.038686
    25  H    0.005157  -0.000025  -0.000423   0.004191  -0.033405   0.398255
    26  H   -0.003901   0.001681   0.000968  -0.002230  -0.041471   0.396748
    27  H   -0.000397   0.000009  -0.000057   0.000007   0.000012  -0.000034
              13         14         15         16         17         18
     1  O   -0.000020  -0.000002   0.000456   0.000972   0.000229   0.000001
     2  N   -0.000046  -0.000108   0.002253  -0.028565  -0.007176  -0.000050
     3  O   -0.000005  -0.000000  -0.000013   0.002685   0.017353   0.000011
     4  C   -0.011544   0.002696  -0.063014   0.330822  -0.024119   0.001526
     5  C   -0.000488   0.006272  -0.006636  -0.050913   0.375316  -0.031413
     6  N   -0.047876  -0.007046   0.001614  -0.001895  -0.034235   0.338590
     7  C    0.339056  -0.046530  -0.058132  -0.001648   0.001632  -0.021195
     8  H   -0.037943  -0.000742   0.003912  -0.000003  -0.000042  -0.004435
     9  C   -0.060162   0.004420  -0.014684  -0.001215  -0.000074   0.001306
    10  C   -0.000313  -0.000405   0.001570  -0.000030   0.000001  -0.000083
    11  C   -0.050671   0.004195  -0.013072   0.000033   0.000000   0.000004
    12  C    0.372080  -0.036298  -0.082142   0.002544   0.000000  -0.000114
    13  C    5.040198   0.402956   0.244408  -0.070453  -0.000006   0.002987
    14  H    0.402956   0.526693  -0.037295  -0.004707   0.000097  -0.000107
    15  N    0.244408  -0.037295   6.966063   0.584346  -0.000083  -0.000131
    16  C   -0.070453  -0.004707   0.584346   4.712032   0.001948  -0.000195
    17  H   -0.000006   0.000097  -0.000083   0.001948   0.376990  -0.002843
    18  H    0.002987  -0.000107  -0.000131  -0.000195  -0.002843   0.310706
    19  H   -0.007561   0.000106   0.007703   0.002966   0.000017  -0.000148
    20  H    0.004339  -0.000066   0.000127  -0.000037   0.000003   0.000822
    21  H   -0.000431   0.000010  -0.000041   0.000004  -0.000000   0.000001
    22  H    0.000042  -0.000055   0.000019  -0.000002   0.000000   0.000001
    23  H   -0.007540   0.000003   0.008609   0.000107   0.000000   0.000000
    24  H    0.004699  -0.000056   0.000136   0.000007   0.000000  -0.000000
    25  H   -0.035572  -0.002815   0.000417  -0.000024  -0.000000   0.000002
    26  H   -0.047420  -0.001050   0.004906  -0.000060   0.000000  -0.000000
    27  H    0.004972  -0.000179  -0.040693   0.403099  -0.000079   0.000001
              19         20         21         22         23         24
     1  O    0.000001   0.000000  -0.000000  -0.000000   0.000000   0.000000
     2  N   -0.000004  -0.000000   0.000000   0.000000  -0.000000   0.000000
     3  O    0.000000   0.000000   0.000000  -0.000000   0.000000   0.000000
     4  C   -0.001201  -0.000081   0.000001  -0.000000   0.000041   0.000000
     5  C    0.001237   0.000156   0.000001  -0.000003   0.000000  -0.000000
     6  N   -0.000335  -0.000460  -0.000077  -0.000117  -0.000031   0.000006
     7  C   -0.036815  -0.042396   0.004597  -0.004841   0.000581  -0.000130
     8  H    0.004364  -0.002077  -0.000077   0.003560   0.000035  -0.000102
     9  C    0.390189   0.399456  -0.036349  -0.046946  -0.001958   0.004387
    10  C   -0.032059  -0.035308   0.402438   0.397740  -0.039021  -0.038434
    11  C   -0.002213   0.003932  -0.034896  -0.045403   0.399175   0.402329
    12  C    0.000692  -0.000415   0.004347  -0.001019  -0.037873  -0.038686
    13  C   -0.007561   0.004339  -0.000431   0.000042  -0.007540   0.004699
    14  H    0.000106  -0.000066   0.000010  -0.000055   0.000003  -0.000056
    15  N    0.007703   0.000127  -0.000041   0.000019   0.008609   0.000136
    16  C    0.002966  -0.000037   0.000004  -0.000002   0.000107   0.000007
    17  H    0.000017   0.000003  -0.000000   0.000000   0.000000   0.000000
    18  H   -0.000148   0.000822   0.000001   0.000001   0.000000  -0.000000
    19  H    0.504788  -0.024732  -0.002788   0.003958   0.001514  -0.000066
    20  H   -0.024732   0.541330  -0.002690  -0.002990  -0.000045  -0.000083
    21  H   -0.002788  -0.002690   0.524001  -0.027402  -0.002898  -0.002241
    22  H    0.003958  -0.002990  -0.027402   0.571308   0.004137  -0.003655
    23  H    0.001514  -0.000045  -0.002898   0.004137   0.498960  -0.025448
    24  H   -0.000066  -0.000083  -0.002241  -0.003655  -0.025448   0.538129
    25  H   -0.000029   0.000012  -0.000087  -0.000080  -0.002318  -0.002293
    26  H    0.000019  -0.000030  -0.000081   0.002379   0.004067  -0.003033
    27  H    0.000080   0.000000  -0.000000   0.000000  -0.000036  -0.000000
              25         26         27
     1  O    0.000000   0.000000   0.006653
     2  N   -0.000000  -0.000000  -0.001053
     3  O    0.000000   0.000000   0.000033
     4  C    0.000024   0.000006  -0.061485
     5  C    0.000000  -0.000002   0.002157
     6  N   -0.000091  -0.000059   0.000008
     7  C    0.005157  -0.003901  -0.000397
     8  H   -0.000025   0.001681   0.000009
     9  C   -0.000423   0.000968  -0.000057
    10  C    0.004191  -0.002230   0.000007
    11  C   -0.033405  -0.041471   0.000012
    12  C    0.398255   0.396748  -0.000034
    13  C   -0.035572  -0.047420   0.004972
    14  H   -0.002815  -0.001050  -0.000179
    15  N    0.000417   0.004906  -0.040693
    16  C   -0.000024  -0.000060   0.403099
    17  H   -0.000000   0.000000  -0.000079
    18  H    0.000002  -0.000000   0.000001
    19  H   -0.000029   0.000019   0.000080
    20  H    0.000012  -0.000030   0.000000
    21  H   -0.000087  -0.000081  -0.000000
    22  H   -0.000080   0.002379   0.000000
    23  H   -0.002318   0.004067  -0.000036
    24  H   -0.002293  -0.003033  -0.000000
    25  H    0.506290  -0.024084  -0.000012
    26  H   -0.024084   0.562244   0.000001
    27  H   -0.000012   0.000001   0.434912
 Mulliken charges:
               1
     1  O   -0.469503
     2  N    0.494096
     3  O   -0.502720
     4  C   -0.001600
     5  C    0.187638
     6  N   -0.780366
     7  C    0.060839
     8  H    0.180068
     9  C   -0.301602
    10  C   -0.327964
    11  C   -0.321527
    12  C   -0.306531
    13  C   -0.037686
    14  H    0.190009
    15  N   -0.510603
    16  C    0.118182
    17  H    0.295072
    18  H    0.404756
    19  H    0.190318
    20  H    0.161235
    21  H    0.174658
    22  H    0.149370
    23  H    0.199940
    24  H    0.164534
    25  H    0.186908
    26  H    0.150401
    27  H    0.252081
 Sum of Mulliken charges =  -0.00000
 Mulliken charges with hydrogens summed into heavy atoms:
               1
     1  O   -0.469503
     2  N    0.494096
     3  O   -0.502720
     4  C   -0.001600
     5  C    0.482710
     6  N   -0.375611
     7  C    0.240907
     9  C    0.049950
    10  C   -0.003936
    11  C    0.042947
    12  C    0.030778
    13  C    0.152324
    15  N   -0.510603
    16  C    0.370263
 Electronic spatial extent (au):  <R**2>=           3006.8224
 Charge=             -0.0000 electrons
 Dipole moment (field-independent basis, Debye):
    X=              5.4125    Y=              4.7803    Z=              1.2390  Tot=              7.3268
 Quadrupole moment (field-independent basis, Debye-Ang):
   XX=           -106.1799   YY=            -78.8391   ZZ=            -81.8872
   XY=             -1.7534   XZ=              0.0396   YZ=              1.2188
 Traceless Quadrupole moment (field-independent basis, Debye-Ang):
   XX=            -17.2111   YY=             10.1296   ZZ=              7.0815
   XY=             -1.7534   XZ=              0.0396   YZ=              1.2188
 Octapole moment (field-independent basis, Debye-Ang**2):
  XXX=             92.7098  YYY=             35.8897  ZZZ=             -1.4301  XYY=             -5.8790
  XXY=              9.7188  XXZ=              3.7412  XZZ=             -8.4767  YZZ=             -0.2687
  YYZ=              7.9742  XYZ=              2.4168
 Hexadecapole moment (field-independent basis, Debye-Ang**3):
 XXXX=          -3385.9865 YYYY=           -593.3389 ZZZZ=           -309.6551 XXXY=            -22.3221
 XXXZ=             -6.3776 YYYX=             -7.6335 YYYZ=             20.2601 ZZZX=              2.6975
 ZZZY=              2.9701 XXYY=           -622.7276 XXZZ=           -529.5606 YYZZ=           -157.7309
 XXYZ=            -13.1639 YYXZ=              1.2650 ZZXY=              3.7096
 N-N= 9.311509426326D+02 E-N=-3.409017141835D+03  KE= 6.596285596230D+02
 Unable to Open any file for archive entry.
 1\1\GINC-LOTUS\FOpt\RMP2-FC\6-31G(d)\C9H13N3O2\ALEXEY\30-Jun-2023\0\\#
 MP2/6-31G* SCF=Tight Opt=(ModRedun, MaxCycle=20 ) NoSymm\\MolName:\\0,
 1\O,-3.5138500433,-1.3465136137,-0.5117170491\N,-3.1232937917,-0.23256
 13641,-0.1124969149\O,-3.8948528863,0.6929556315,0.206153155\C,-1.6869
 728187,-0.0270764218,-0.011607237\C,-1.3020469148,1.257967224,0.272131
 0021\N,-0.0581697018,1.7506157326,0.3737892504\C,1.2057153104,1.026127
 0437,0.3523645039\H,1.8521366793,1.5596900476,1.0656233326\C,1.9112470
 545,1.0297833991,-1.0023870551\C,3.3094011659,0.424165959,-0.832593266
 9\C,3.2603639387,-0.9684203529,-0.1982668586\C,2.4631611128,-0.9717728
 494,1.1078936682\C,1.0539226475,-0.4193280424,0.8658911111\H,0.4756192
 485,-0.3928390153,1.8031149363\N,0.4091926939,-1.3180103616,-0.0864340
 248\C,-0.8378387828,-1.1409401713,-0.3860602697\H,-2.0969026181,1.9835
 663711,0.4213398207\H,-0.0003538662,2.7383146144,0.5921034351\H,1.3183
 071645,0.4482811139,-1.716353769\H,1.9778316505,2.0556098124,-1.385723
 5309\H,3.8149603224,0.380602207,-1.8040508748\H,3.9081174413,1.0940322
 43,-0.199081246\H,2.7838082975,-1.6690617909,-0.8910175227\H,4.2792222
 274,-1.3309573347,-0.0174432851\H,2.3770978331,-1.9915317752,1.4972886
 336\H,2.9717621349,-0.3696038151,1.873443706\H,-1.2975954995,-1.899094
 4908,-1.0189436504\\Version=ES64L-G16RevC.02\HF=-661.3002891\MP2=-663.
 3345559\RMSD=3.691e-09\RMSF=1.883e-04\Dipole=1.9764141,1.6874353,0.455
 8152\PG=C01 [X(C9H13N3O2)]\\@
 The archive entry for this job was punched.


 THE LENGTH OF A MEETING IS PROPORTIONAL TO THE
 SQUARE OF THE PARTICIPANTS.
 Job cpu time:       0 days  1 hours 40 minutes  5.5 seconds.
 Elapsed time:       0 days  0 hours 29 minutes 54.7 seconds.
 File lengths (MBytes):  RWF=     36 Int=      0 D2E=      0 Chk=      7 Scr=      1
 Normal termination of Gaussian 16 at Fri Jun 30 08:38:46 2023.
