 Entering Gaussian System, Link 0=g16
 Initial command:
 /home/alexey/programs//g16/l1.exe "/home/alexey/tmp/Gau-1043001.inp" -scrdir="/home/alexey/tmp/"
 Entering Link 1 = /home/alexey/programs//g16/l1.exe PID=   1043003.
  
 Copyright (c) 1988-2021, Gaussian, Inc.  All Rights Reserved.
  
 This is part of the Gaussian(R) 16 program.  It is based on
 the Gaussian(R) 09 system (copyright 2009, Gaussian, Inc.),
 the Gaussian(R) 03 system (copyright 2003, Gaussian, Inc.),
 the Gaussian(R) 98 system (copyright 1998, Gaussian, Inc.),
 the Gaussian(R) 94 system (copyright 1995, Gaussian, Inc.),
 the Gaussian 92(TM) system (copyright 1992, Gaussian, Inc.),
 the Gaussian 90(TM) system (copyright 1990, Gaussian, Inc.),
 the Gaussian 88(TM) system (copyright 1988, Gaussian, Inc.),
 the Gaussian 86(TM) system (copyright 1986, Carnegie Mellon
 University), and the Gaussian 82(TM) system (copyright 1983,
 Carnegie Mellon University). Gaussian is a federally registered
 trademark of Gaussian, Inc.
  
 This software contains proprietary and confidential information,
 including trade secrets, belonging to Gaussian, Inc.
  
 This software is provided under written license and may be
 used, copied, transmitted, or stored only in accord with that
 written license.
  
 The following legend is applicable only to US Government
 contracts under FAR:
  
                    RESTRICTED RIGHTS LEGEND
  
 Use, reproduction and disclosure by the US Government is
 subject to restrictions as set forth in subparagraphs (a)
 and (c) of the Commercial Computer Software - Restricted
 Rights clause in FAR 52.227-19.
  
 Gaussian, Inc.
 340 Quinnipiac St., Bldg. 40, Wallingford CT 06492
  
  
 ---------------------------------------------------------------
 Warning -- This program may not be used in any manner that
 competes with the business of Gaussian, Inc. or will provide
 assistance to any competitor of Gaussian, Inc.  The licensee
 of this program is prohibited from giving any competitor of
 Gaussian, Inc. access to this program.  By using this program,
 the user acknowledges that Gaussian, Inc. is engaged in the
 business of creating and licensing software in the field of
 computational chemistry and represents and warrants to the
 licensee that it is not a competitor of Gaussian, Inc. and that
 it will not use this program in any manner prohibited above.
 ---------------------------------------------------------------
  

 Cite this work as:
 Gaussian 16, Revision C.02,
 M. J. Frisch, G. W. Trucks, H. B. Schlegel, G. E. Scuseria, 
 M. A. Robb, J. R. Cheeseman, G. Scalmani, V. Barone, 
 G. A. Petersson, H. Nakatsuji, X. Li, M. Caricato, A. V. Marenich, 
 J. Bloino, B. G. Janesko, R. Gomperts, B. Mennucci, H. P. Hratchian, 
 J. V. Ortiz, A. F. Izmaylov, J. L. Sonnenberg, D. Williams-Young, 
 F. Ding, F. Lipparini, F. Egidi, J. Goings, B. Peng, A. Petrone, 
 T. Henderson, D. Ranasinghe, V. G. Zakrzewski, J. Gao, N. Rega, 
 G. Zheng, W. Liang, M. Hada, M. Ehara, K. Toyota, R. Fukuda, 
 J. Hasegawa, M. Ishida, T. Nakajima, Y. Honda, O. Kitao, H. Nakai, 
 T. Vreven, K. Throssell, J. A. Montgomery, Jr., J. E. Peralta, 
 F. Ogliaro, M. J. Bearpark, J. J. Heyd, E. N. Brothers, K. N. Kudin, 
 V. N. Staroverov, T. A. Keith, R. Kobayashi, J. Normand, 
 K. Raghavachari, A. P. Rendell, J. C. Burant, S. S. Iyengar, 
 J. Tomasi, M. Cossi, J. M. Millam, M. Klene, C. Adamo, R. Cammi, 
 J. W. Ochterski, R. L. Martin, K. Morokuma, O. Farkas, 
 J. B. Foresman, and D. J. Fox, Gaussian, Inc., Wallingford CT, 2019.
 
 ******************************************
 Gaussian 16:  ES64L-G16RevC.02  7-Dec-2021
                30-Jun-2023 
 ******************************************
 %mem=8GB
 %NPROCS=4
 Will use up to    4 processors via shared memory.
 %NoSave
 ---------------------------------------------------------
 #MP2/6-31G* SCF=Tight Opt=(ModRedun, MaxCycle=20 ) NoSymm
 ---------------------------------------------------------
 1/6=20,18=120,19=15,38=1/1,3;
 2/9=110,12=2,15=1,17=6,18=5,40=1/2;
 3/5=1,6=6,7=1,11=9,25=1,30=1,71=1/1,2,3;
 4//1;
 5/5=2,32=2,38=5/2;
 8/6=4,10=2/1;
 9/15=2,16=-3/6;
 10/5=1,31=1/2;
 6/7=2,8=2,9=2,10=2/1;
 7/12=2,30=1/1,2,3,16;
 1/6=20,18=20,19=15/3(2);
 2/9=110,15=1/2;
 99//99;
 2/9=110,15=1/2;
 3/5=1,6=6,7=1,11=9,25=1,30=1,71=1/1,2,3;
 4/5=5,16=3,69=1/1;
 5/5=2,32=2,38=5/2;
 8/6=4,10=2/1;
 9/15=2,16=-3/6;
 10/5=1,31=1/2;
 7/12=2,30=1/1,2,3,16;
 1/6=20,18=20,19=15/3(-8);
 2/9=110,15=1/2;
 6/7=2,8=2,9=2,10=2/1;
 99/9=10/99;
 --------
 MolName:
 --------
 Symbolic Z-matrix:
 Charge =  0 Multiplicity = 1
 8                    0    -3.61775  -1.4467   -0.18266 
 7                    0    -3.25788  -0.28193  -0.02064 
 8                    0    -4.03774   0.65772   0.1396 
 6                    0    -1.7578    0.0065   -0.0409 
 6                    0    -1.36971   1.31384   0.27431 
 7                    0    -0.08142   1.7689    0.38703 
 6                    0     1.19752   0.99589   0.35935 
 1                    0     1.86009   1.49271   1.11491 
 6                    0     1.96463   1.04831  -0.98547 
 6                    0     3.37588   0.46065  -0.79412 
 6                    0     3.31178  -0.95605  -0.20177 
 6                    0     2.46094  -0.99082   1.08615 
 6                    0     1.02487  -0.45351   0.83763 
 1                    0     0.47449  -0.49331   1.80684 
 7                    0     0.36994  -1.32115  -0.14413 
 6                    0    -0.87086  -1.11681  -0.44341 
 1                    0    -2.15702   2.0524    0.49905 
 1                    0     0.15048   2.75094   0.21941 
 1                    0     1.4163    0.47312  -1.76159 
 1                    0     2.0524    2.09872  -1.33561 
 1                    0     3.91247   0.43761  -1.76782 
 1                    0     3.95207   1.11314  -0.10064 
 1                    0     2.86547  -1.644    -0.95497 
 1                    0     4.33904  -1.32098   0.01678 
 1                    0     2.40098  -2.03761   1.45678 
 1                    0     2.95408  -0.38124   1.87209 
 1                    0    -1.37227  -1.86334  -1.07819 
 
 The following ModRedundant input section has been read:
 D       1       2       4      16 F                                           
 D       7      13      15      16 F                                           
 D       7       9      10      11 F                                           
 D       9      10      11      12 F                                           
 D       6       7      13      15 F                                           
 

 GradGradGradGradGradGradGradGradGradGradGradGradGradGradGradGradGradGrad
 Berny optimization.
 Initialization pass.
                           ----------------------------
                           !    Initial Parameters    !
                           ! (Angstroms and Degrees)  !
 --------------------------                            --------------------------
 ! Name  Definition              Value          Derivative Info.                !
 --------------------------------------------------------------------------------
 ! R1    R(1,2)                  1.2298         estimate D2E/DX2                !
 ! R2    R(2,3)                  1.2316         estimate D2E/DX2                !
 ! R3    R(2,4)                  1.5277         estimate D2E/DX2                !
 ! R4    R(4,5)                  1.3997         estimate D2E/DX2                !
 ! R5    R(4,16)                 1.4868         estimate D2E/DX2                !
 ! R6    R(5,6)                  1.3709         estimate D2E/DX2                !
 ! R7    R(5,17)                 1.1026         estimate D2E/DX2                !
 ! R8    R(6,7)                  1.4947         estimate D2E/DX2                !
 ! R9    R(6,18)                 1.0229         estimate D2E/DX2                !
 ! R10   R(7,8)                  1.121          estimate D2E/DX2                !
 ! R11   R(7,9)                  1.5491         estimate D2E/DX2                !
 ! R12   R(7,13)                 1.536          estimate D2E/DX2                !
 ! R13   R(9,10)                 1.5406         estimate D2E/DX2                !
 ! R14   R(9,19)                 1.1108         estimate D2E/DX2                !
 ! R15   R(9,20)                 1.1107         estimate D2E/DX2                !
 ! R16   R(10,11)                1.5369         estimate D2E/DX2                !
 ! R17   R(10,21)                1.112          estimate D2E/DX2                !
 ! R18   R(10,22)                1.1129         estimate D2E/DX2                !
 ! R19   R(11,12)                1.544          estimate D2E/DX2                !
 ! R20   R(11,23)                1.1135         estimate D2E/DX2                !
 ! R21   R(11,24)                1.1118         estimate D2E/DX2                !
 ! R22   R(12,13)                1.5533         estimate D2E/DX2                !
 ! R23   R(12,25)                1.1121         estimate D2E/DX2                !
 ! R24   R(12,26)                1.1102         estimate D2E/DX2                !
 ! R25   R(13,14)                1.1153         estimate D2E/DX2                !
 ! R26   R(13,15)                1.4648         estimate D2E/DX2                !
 ! R27   R(15,16)                1.2926         estimate D2E/DX2                !
 ! R28   R(16,27)                1.1008         estimate D2E/DX2                !
 ! A1    A(1,2,3)              123.6732         estimate D2E/DX2                !
 ! A2    A(1,2,4)              117.6714         estimate D2E/DX2                !
 ! A3    A(3,2,4)              118.6495         estimate D2E/DX2                !
 ! A4    A(2,4,5)              116.4629         estimate D2E/DX2                !
 ! A5    A(2,4,16)             116.5331         estimate D2E/DX2                !
 ! A6    A(5,4,16)             126.9595         estimate D2E/DX2                !
 ! A7    A(4,5,6)              126.0935         estimate D2E/DX2                !
 ! A8    A(4,5,17)             118.2643         estimate D2E/DX2                !
 ! A9    A(6,5,17)             115.5871         estimate D2E/DX2                !
 ! A10   A(5,6,7)              129.1163         estimate D2E/DX2                !
 ! A11   A(5,6,18)             121.2151         estimate D2E/DX2                !
 ! A12   A(7,6,18)             107.428          estimate D2E/DX2                !
 ! A13   A(6,7,8)              105.3104         estimate D2E/DX2                !
 ! A14   A(6,7,9)              114.9799         estimate D2E/DX2                !
 ! A15   A(6,7,13)             112.7105         estimate D2E/DX2                !
 ! A16   A(8,7,9)              106.1069         estimate D2E/DX2                !
 ! A17   A(8,7,13)             105.9478         estimate D2E/DX2                !
 ! A18   A(9,7,13)             110.9717         estimate D2E/DX2                !
 ! A19   A(7,9,10)             109.4433         estimate D2E/DX2                !
 ! A20   A(7,9,19)             110.157          estimate D2E/DX2                !
 ! A21   A(7,9,20)             110.1697         estimate D2E/DX2                !
 ! A22   A(10,9,19)            109.9648         estimate D2E/DX2                !
 ! A23   A(10,9,20)            109.1171         estimate D2E/DX2                !
 ! A24   A(19,9,20)            107.9661         estimate D2E/DX2                !
 ! A25   A(9,10,11)            111.1784         estimate D2E/DX2                !
 ! A26   A(9,10,21)            109.9479         estimate D2E/DX2                !
 ! A27   A(9,10,22)            109.1473         estimate D2E/DX2                !
 ! A28   A(11,10,21)           109.7863         estimate D2E/DX2                !
 ! A29   A(11,10,22)           108.7754         estimate D2E/DX2                !
 ! A30   A(21,10,22)           107.9346         estimate D2E/DX2                !
 ! A31   A(10,11,12)           111.4226         estimate D2E/DX2                !
 ! A32   A(10,11,23)           108.9979         estimate D2E/DX2                !
 ! A33   A(10,11,24)           109.8634         estimate D2E/DX2                !
 ! A34   A(12,11,23)           109.2364         estimate D2E/DX2                !
 ! A35   A(12,11,24)           109.7422         estimate D2E/DX2                !
 ! A36   A(23,11,24)           107.4886         estimate D2E/DX2                !
 ! A37   A(11,12,13)           111.6063         estimate D2E/DX2                !
 ! A38   A(11,12,25)           109.2028         estimate D2E/DX2                !
 ! A39   A(11,12,26)           109.4744         estimate D2E/DX2                !
 ! A40   A(13,12,25)           109.2129         estimate D2E/DX2                !
 ! A41   A(13,12,26)           109.5121         estimate D2E/DX2                !
 ! A42   A(25,12,26)           107.7496         estimate D2E/DX2                !
 ! A43   A(7,13,12)            105.8018         estimate D2E/DX2                !
 ! A44   A(7,13,14)            111.084          estimate D2E/DX2                !
 ! A45   A(7,13,15)            113.609          estimate D2E/DX2                !
 ! A46   A(12,13,14)           107.7496         estimate D2E/DX2                !
 ! A47   A(12,13,15)           108.4037         estimate D2E/DX2                !
 ! A48   A(14,13,15)           109.9178         estimate D2E/DX2                !
 ! A49   A(13,15,16)           119.3886         estimate D2E/DX2                !
 ! A50   A(4,16,15)            129.0047         estimate D2E/DX2                !
 ! A51   A(4,16,27)            113.3773         estimate D2E/DX2                !
 ! A52   A(15,16,27)           117.6167         estimate D2E/DX2                !
 ! D1    D(1,2,4,5)           -173.9966         estimate D2E/DX2                !
 ! D2    D(1,2,4,16)             8.2588         Frozen                          !
 ! D3    D(3,2,4,5)              6.855          estimate D2E/DX2                !
 ! D4    D(3,2,4,16)          -170.8897         estimate D2E/DX2                !
 ! D5    D(2,4,5,6)            176.1892         estimate D2E/DX2                !
 ! D6    D(2,4,5,17)            -0.9825         estimate D2E/DX2                !
 ! D7    D(16,4,5,6)            -6.3362         estimate D2E/DX2                !
 ! D8    D(16,4,5,17)          176.4921         estimate D2E/DX2                !
 ! D9    D(2,4,16,15)         -154.6839         estimate D2E/DX2                !
 ! D10   D(2,4,16,27)           24.8947         estimate D2E/DX2                !
 ! D11   D(5,4,16,15)           27.843          estimate D2E/DX2                !
 ! D12   D(5,4,16,27)         -152.5784         estimate D2E/DX2                !
 ! D13   D(4,5,6,7)             -7.4562         estimate D2E/DX2                !
 ! D14   D(4,5,6,18)           153.3009         estimate D2E/DX2                !
 ! D15   D(17,5,6,7)           169.7818         estimate D2E/DX2                !
 ! D16   D(17,5,6,18)          -29.4611         estimate D2E/DX2                !
 ! D17   D(5,6,7,8)           -142.2056         estimate D2E/DX2                !
 ! D18   D(5,6,7,9)            101.3797         estimate D2E/DX2                !
 ! D19   D(5,6,7,13)           -27.1566         estimate D2E/DX2                !
 ! D20   D(18,6,7,8)            54.9772         estimate D2E/DX2                !
 ! D21   D(18,6,7,9)           -61.4375         estimate D2E/DX2                !
 ! D22   D(18,6,7,13)          170.0262         estimate D2E/DX2                !
 ! D23   D(6,7,9,10)           168.7058         estimate D2E/DX2                !
 ! D24   D(6,7,9,19)           -70.2769         estimate D2E/DX2                !
 ! D25   D(6,7,9,20)            48.7279         estimate D2E/DX2                !
 ! D26   D(8,7,9,10)            52.7466         estimate D2E/DX2                !
 ! D27   D(8,7,9,19)           173.7639         estimate D2E/DX2                !
 ! D28   D(8,7,9,20)           -67.2312         estimate D2E/DX2                !
 ! D29   D(13,7,9,10)          -61.8962         estimate D2E/DX2                !
 ! D30   D(13,7,9,19)           59.1211         estimate D2E/DX2                !
 ! D31   D(13,7,9,20)          178.126          estimate D2E/DX2                !
 ! D32   D(6,7,13,12)         -166.1763         estimate D2E/DX2                !
 ! D33   D(6,7,13,14)          -49.5176         estimate D2E/DX2                !
 ! D34   D(6,7,13,15)           75.0223         Frozen                          !
 ! D35   D(8,7,13,12)          -51.5122         estimate D2E/DX2                !
 ! D36   D(8,7,13,14)           65.1465         estimate D2E/DX2                !
 ! D37   D(8,7,13,15)         -170.3136         estimate D2E/DX2                !
 ! D38   D(9,7,13,12)           63.23           estimate D2E/DX2                !
 ! D39   D(9,7,13,14)          179.8887         estimate D2E/DX2                !
 ! D40   D(9,7,13,15)          -55.5714         estimate D2E/DX2                !
 ! D41   D(7,9,10,11)           54.8119         Frozen                          !
 ! D42   D(7,9,10,21)          176.6028         estimate D2E/DX2                !
 ! D43   D(7,9,10,22)          -65.182          estimate D2E/DX2                !
 ! D44   D(19,9,10,11)         -66.3219         estimate D2E/DX2                !
 ! D45   D(19,9,10,21)          55.469          estimate D2E/DX2                !
 ! D46   D(19,9,10,22)         173.6842         estimate D2E/DX2                !
 ! D47   D(20,9,10,11)         175.4327         estimate D2E/DX2                !
 ! D48   D(20,9,10,21)         -62.7764         estimate D2E/DX2                !
 ! D49   D(20,9,10,22)          55.4388         estimate D2E/DX2                !
 ! D50   D(9,10,11,12)         -52.8223         Frozen                          !
 ! D51   D(9,10,11,23)          67.8008         estimate D2E/DX2                !
 ! D52   D(9,10,11,24)        -174.6628         estimate D2E/DX2                !
 ! D53   D(21,10,11,12)       -174.7072         estimate D2E/DX2                !
 ! D54   D(21,10,11,23)        -54.0841         estimate D2E/DX2                !
 ! D55   D(21,10,11,24)         63.4523         estimate D2E/DX2                !
 ! D56   D(22,10,11,12)         67.392          estimate D2E/DX2                !
 ! D57   D(22,10,11,23)       -171.9849         estimate D2E/DX2                !
 ! D58   D(22,10,11,24)        -54.4485         estimate D2E/DX2                !
 ! D59   D(10,11,12,13)         56.5985         estimate D2E/DX2                !
 ! D60   D(10,11,12,25)        177.4454         estimate D2E/DX2                !
 ! D61   D(10,11,12,26)        -64.8075         estimate D2E/DX2                !
 ! D62   D(23,11,12,13)        -63.8844         estimate D2E/DX2                !
 ! D63   D(23,11,12,25)         56.9624         estimate D2E/DX2                !
 ! D64   D(23,11,12,26)        174.7095         estimate D2E/DX2                !
 ! D65   D(24,11,12,13)        178.5092         estimate D2E/DX2                !
 ! D66   D(24,11,12,25)        -60.6439         estimate D2E/DX2                !
 ! D67   D(24,11,12,26)         57.1032         estimate D2E/DX2                !
 ! D68   D(11,12,13,7)         -60.3027         estimate D2E/DX2                !
 ! D69   D(11,12,13,14)       -179.1934         estimate D2E/DX2                !
 ! D70   D(11,12,13,15)         61.8935         estimate D2E/DX2                !
 ! D71   D(25,12,13,7)         178.8563         estimate D2E/DX2                !
 ! D72   D(25,12,13,14)         59.9656         estimate D2E/DX2                !
 ! D73   D(25,12,13,15)        -58.9475         estimate D2E/DX2                !
 ! D74   D(26,12,13,7)          61.0815         estimate D2E/DX2                !
 ! D75   D(26,12,13,14)        -57.8092         estimate D2E/DX2                !
 ! D76   D(26,12,13,15)       -176.7223         estimate D2E/DX2                !
 ! D77   D(7,13,15,16)         -67.16           Frozen                          !
 ! D78   D(12,13,15,16)        175.5413         estimate D2E/DX2                !
 ! D79   D(14,13,15,16)         58.0061         estimate D2E/DX2                !
 ! D80   D(13,15,16,4)           7.6204         estimate D2E/DX2                !
 ! D81   D(13,15,16,27)       -171.943          estimate D2E/DX2                !
 --------------------------------------------------------------------------------
 Trust Radius=3.00D-01 FncErr=1.00D-07 GrdErr=1.00D-07 EigMax=2.50D+02 EigMin=1.00D-04
 Number of steps in this run=     20 maximum allowed number of steps=    162.
 GradGradGradGradGradGradGradGradGradGradGradGradGradGradGradGradGradGrad

                          Input orientation:                          
 ---------------------------------------------------------------------
 Center     Atomic      Atomic             Coordinates (Angstroms)
 Number     Number       Type             X           Y           Z
 ---------------------------------------------------------------------
      1          8           0       -3.617750   -1.446700   -0.182660
      2          7           0       -3.257880   -0.281930   -0.020640
      3          8           0       -4.037740    0.657720    0.139600
      4          6           0       -1.757800    0.006500   -0.040900
      5          6           0       -1.369710    1.313840    0.274310
      6          7           0       -0.081420    1.768900    0.387030
      7          6           0        1.197520    0.995890    0.359350
      8          1           0        1.860090    1.492710    1.114910
      9          6           0        1.964630    1.048310   -0.985470
     10          6           0        3.375880    0.460650   -0.794120
     11          6           0        3.311780   -0.956050   -0.201770
     12          6           0        2.460940   -0.990820    1.086150
     13          6           0        1.024870   -0.453510    0.837630
     14          1           0        0.474490   -0.493310    1.806840
     15          7           0        0.369940   -1.321150   -0.144130
     16          6           0       -0.870860   -1.116810   -0.443410
     17          1           0       -2.157020    2.052400    0.499050
     18          1           0        0.150480    2.750940    0.219410
     19          1           0        1.416300    0.473120   -1.761590
     20          1           0        2.052400    2.098720   -1.335610
     21          1           0        3.912470    0.437610   -1.767820
     22          1           0        3.952070    1.113140   -0.100640
     23          1           0        2.865470   -1.644000   -0.954970
     24          1           0        4.339040   -1.320980    0.016780
     25          1           0        2.400980   -2.037610    1.456780
     26          1           0        2.954080   -0.381240    1.872090
     27          1           0       -1.372270   -1.863340   -1.078190
 ---------------------------------------------------------------------
                    Distance matrix (angstroms):
                    1          2          3          4          5
     1  O    0.000000
     2  N    1.229815   0.000000
     3  O    2.169983   1.231585   0.000000
     4  C    2.364593   1.527692   2.377981   0.000000
     5  C    3.589302   2.489711   2.750822   1.399682   0.000000
     6  N    4.813550   3.802893   4.116845   2.469702   1.370940
     7  C    5.426495   4.650570   5.250771   3.142134   2.588241
     8  H    6.350634   5.534658   6.035962   4.078461   3.342187
     9  C    6.167053   5.474947   6.119378   3.979204   3.574266
    10  C    7.274801   6.719856   7.474786   5.208480   4.938633
    11  C    6.946905   6.606639   7.532346   5.162657   5.224500
    12  C    6.226410   5.867914   6.771003   4.479136   4.543613
    13  C    4.856062   4.371272   5.229923   2.954095   3.029005
    14  H    4.649031   4.161124   4.946188   2.940590   3.002584
    15  N    3.989852   3.775752   4.839842   2.510097   3.185066
    16  C    2.778889   2.563908   3.676681   1.486776   2.583028
    17  H    3.852553   2.632692   2.368849   2.153283   1.102650
    18  H    5.655210   4.568681   4.682855   3.352797   2.092665
    19  H    5.614302   5.044697   5.778854   3.640525   3.551556
    20  H    6.786007   5.966214   6.429816   4.535558   3.862475
    21  H    7.922599   7.415140   8.178786   5.943069   5.730576
    22  H    7.991351   7.344113   8.006384   5.816428   5.338746
    23  H    6.532039   6.342210   7.358689   4.993426   5.310056
    24  H    7.960282   7.667739   8.608181   6.239951   6.292728
    25  H    6.265944   6.106380   7.103301   4.869998   5.181559
    26  H    6.967507   6.494670   7.277809   5.100165   4.911350
    27  H    2.453109   2.678581   3.865681   2.172764   3.453076
                    6          7          8          9         10
     6  N    0.000000
     7  C    1.494657   0.000000
     8  H    2.091782   1.121026   0.000000
     9  C    2.566968   1.549112   2.149422   0.000000
    10  C    3.880664   2.522346   2.647105   1.540645   0.000000
    11  C    4.391565   2.931727   3.136475   2.538988   1.536888
    12  C    3.816860   2.464038   2.555341   2.948895   2.545446
    13  C    2.523098   1.536008   2.135942   2.542107   3.004254
    14  H    2.728093   2.199026   2.518517   3.520526   4.011620
    15  N    3.167691   2.511385   3.423965   2.977454   3.554289
    16  C    3.104862   3.063678   4.086079   3.608542   4.543807
    17  H    2.097865   3.519754   4.102403   4.494440   5.900758
    18  H    1.022877   2.048433   2.303873   2.764385   4.083611
    19  H    2.922119   2.195345   3.083953   1.110798   2.185431
    20  H    2.762147   2.195437   2.531655   1.110704   2.174416
    21  H    4.729362   3.493921   3.692646   2.186117   1.112003
    22  H    4.115445   2.795154   2.449085   2.176475   1.112948
    23  H    4.704573   3.387995   3.890262   2.839186   2.171622
    24  H    5.406007   3.918468   3.907420   3.500837   2.181614
    25  H    4.668639   3.443079   3.587840   3.959531   3.501183
    26  H    4.005342   2.696363   2.298222   3.344888   2.827608
    27  H    4.123873   4.104332   5.149846   4.429583   5.294011
                   11         12         13         14         15
    11  C    0.000000
    12  C    1.543980   0.000000
    13  C    2.561807   1.553307   0.000000
    14  H    3.506973   2.170920   1.115289   0.000000
    15  N    2.964969   2.448466   1.464782   2.121917   0.000000
    16  C    4.192697   3.668286   2.382189   2.694874   1.292636
    17  H    6.280899   5.561603   4.064314   3.887904   4.263807
    18  H    4.890091   4.482213   3.378647   3.626303   4.094172
    19  H    2.840495   3.368088   2.787078   3.815060   2.632575
    20  H    3.493315   3.946781   3.506090   4.368456   3.993220
    21  H    2.180741   3.506066   3.990075   5.046237   4.275409
    22  H    2.168351   2.838765   3.450108   4.279337   4.331202
    23  H    1.113453   2.180931   2.831694   3.829944   2.643740
    24  H    1.111846   2.186279   3.522786   4.338675   3.972360
    25  H    2.179476   1.112084   2.187784   2.493746   2.683533
    26  H    2.181571   1.110170   2.190247   2.482979   3.409744
    27  H    4.850939   4.487667   3.377020   3.689296   2.049813
                   16         17         18         19         20
    16  C    0.000000
    17  H    3.547722   0.000000
    18  H    4.054868   2.427079   0.000000
    19  H    3.081652   4.513672   3.273397   0.000000
    20  H    4.436339   4.592095   2.541806   1.796847   0.000000
    21  H    5.201012   6.677197   4.842845   2.496430   2.530998
    22  H    5.324549   6.209897   4.151735   3.098146   2.470883
    23  H    3.807858   6.403355   5.297720   2.689410   3.848886
    24  H    5.234168   7.335603   5.845137   3.863134   4.330361
    25  H    3.894038   6.198451   5.433787   4.198960   5.002817
    26  H    4.531310   5.825048   4.516866   4.037119   4.153621
    27  H    1.100756   4.293779   5.029325   3.701649   5.243334
                   21         22         23         24         25
    21  H    0.000000
    22  H    1.799277   0.000000
    23  H    2.467799   3.084218   0.000000
    24  H    2.541535   2.467483   1.794449   0.000000
    25  H    4.336976   3.841701   2.487412   2.518578   0.000000
    26  H    3.852009   2.668486   3.097528   2.498680   1.794983
    27  H    5.805036   6.177672   4.245201   5.840563   4.549050
                   26         27
    26  H    0.000000
    27  H    5.442249   0.000000
 Symmetry turned off by external request.
 Stoichiometry    C9H13N3O2
 Framework group  C1[X(C9H13N3O2)]
 Deg. of freedom    75
 Full point group                 C1      NOp   1
 Rotational constants (GHZ):           1.6760823           0.4000950           0.3551063
 Standard basis: 6-31G(d) (6D, 7F)
   236 basis functions,   444 primitive gaussians,   236 cartesian basis functions
    52 alpha electrons       52 beta electrons
       nuclear repulsion energy       917.4396623367 Hartrees.
 NAtoms=   27 NActive=   27 NUniq=   27 SFac= 1.00D+00 NAtFMM=   60 NAOKFM=F Big=F
 Integral buffers will be    131072 words long.
 Raffenetti 1 integral format.
 Two-electron integral symmetry is turned off.
 One-electron integrals computed using PRISM.
 NBasis=   236 RedAO= T EigKep=  1.27D-03  NBF=   236
 NBsUse=   236 1.00D-06 EigRej= -1.00D+00 NBFU=   236
 ExpMin= 1.61D-01 ExpMax= 5.48D+03 ExpMxC= 8.25D+02 IAcc=3 IRadAn=         5 AccDes= 0.00D+00
 Harris functional with IExCor=  205 and IRadAn=       5 diagonalized for initial guess.
 HarFok:  IExCor=  205 AccDes= 0.00D+00 IRadAn=         5 IDoV= 1 UseB2=F ITyADJ=14
 ICtDFT=  3500011 ScaDFX=  1.000000  1.000000  1.000000  1.000000
 FoFCou: FMM=F IPFlag=           0 FMFlag=      100000 FMFlg1=           0
         NFxFlg=           0 DoJE=T BraDBF=F KetDBF=T FulRan=T
         wScrn=  0.000000 ICntrl=       500 IOpCl=  0 I1Cent=   200000004 NGrid=           0
         NMat0=    1 NMatS0=      1 NMatT0=    0 NMatD0=    1 NMtDS0=    0 NMtDT0=    0
 Symmetry not used in FoFCou.
 Keep R1 ints in memory in canonical form, NReq=397720213.
 Requested convergence on RMS density matrix=1.00D-08 within 128 cycles.
 Requested convergence on MAX density matrix=1.00D-06.
 Requested convergence on             energy=1.00D-06.
 No special actions if energy rises.
 SCF Done:  E(RHF) =  -661.280970197     A.U. after   16 cycles
            NFock= 16  Conv=0.80D-08     -V/T= 2.0037
 ExpMin= 1.61D-01 ExpMax= 5.48D+03 ExpMxC= 8.25D+02 IAcc=3 IRadAn=         5 AccDes= 0.00D+00
 HarFok:  IExCor=  205 AccDes= 0.00D+00 IRadAn=         5 IDoV=-2 UseB2=F ITyADJ=14
 ICtDFT= 12500011 ScaDFX=  1.000000  1.000000  1.000000  1.000000
 Range of M.O.s used for correlation:    15   236
 NBasis=   236 NAE=    52 NBE=    52 NFC=    14 NFV=     0
 NROrb=    222 NOA=    38 NOB=    38 NVA=   184 NVB=   184
 Fully direct method using O(ONN) memory.
 JobTyp=1 Pass  1:  I=  15 to  52 NPSUse=  4 ParTrn=T ParDer=T DoDerP=T.
 Spin components of T(2) and E(2):
     alpha-alpha T2 =       0.9197179981D-01 E2=     -0.2717598584D+00
     alpha-beta  T2 =       0.4996961301D+00 E2=     -0.1493763798D+01
     beta-beta   T2 =       0.9197179981D-01 E2=     -0.2717598584D+00
 ANorm=    0.1297551436D+01
 E2 =    -0.2037283515D+01 EUMP2 =    -0.66331825371173D+03
          IDoAtm=111111111111111111111111111
          Differentiating once with respect to electric field.
                with respect to dipole field.
          Differentiating once with respect to nuclear coordinates.
 Keep R1 ints in memory in canonical form, NReq=397723379.
          There are     1 degrees of freedom in the 1st order CPHF.  IDoFFX=0 NUNeed=     1.
 LinEq1:  Iter=  0 NonCon=     1 RMS=4.61D-03 Max=1.12D-01 NDo=     1
 AX will form     1 AO Fock derivatives at one time.
 LinEq1:  Iter=  1 NonCon=     1 RMS=1.56D-03 Max=2.96D-02 NDo=     1
 LinEq1:  Iter=  2 NonCon=     1 RMS=6.40D-04 Max=1.80D-02 NDo=     1
 LinEq1:  Iter=  3 NonCon=     1 RMS=2.94D-04 Max=9.10D-03 NDo=     1
 LinEq1:  Iter=  4 NonCon=     1 RMS=9.03D-05 Max=2.09D-03 NDo=     1
 LinEq1:  Iter=  5 NonCon=     1 RMS=3.75D-05 Max=1.88D-03 NDo=     1
 LinEq1:  Iter=  6 NonCon=     1 RMS=1.54D-05 Max=5.84D-04 NDo=     1
 LinEq1:  Iter=  7 NonCon=     1 RMS=5.93D-06 Max=1.02D-04 NDo=     1
 LinEq1:  Iter=  8 NonCon=     1 RMS=2.37D-06 Max=6.01D-05 NDo=     1
 LinEq1:  Iter=  9 NonCon=     1 RMS=8.83D-07 Max=2.53D-05 NDo=     1
 LinEq1:  Iter= 10 NonCon=     1 RMS=4.34D-07 Max=1.50D-05 NDo=     1
 LinEq1:  Iter= 11 NonCon=     1 RMS=1.54D-07 Max=5.73D-06 NDo=     1
 LinEq1:  Iter= 12 NonCon=     1 RMS=5.41D-08 Max=7.61D-07 NDo=     1
 LinEq1:  Iter= 13 NonCon=     1 RMS=1.71D-08 Max=3.40D-07 NDo=     1
 LinEq1:  Iter= 14 NonCon=     1 RMS=5.43D-09 Max=1.44D-07 NDo=     1
 LinEq1:  Iter= 15 NonCon=     1 RMS=2.01D-09 Max=4.81D-08 NDo=     1
 LinEq1:  Iter= 16 NonCon=     1 RMS=7.59D-10 Max=1.29D-08 NDo=     1
 LinEq1:  Iter= 17 NonCon=     1 RMS=2.54D-10 Max=3.73D-09 NDo=     1
 LinEq1:  Iter= 18 NonCon=     1 RMS=8.78D-11 Max=1.05D-09 NDo=     1
 LinEq1:  Iter= 19 NonCon=     0 RMS=2.93D-11 Max=3.82D-10 NDo=     1
 Linear equations converged to 1.000D-10 1.000D-09 after    19 iterations.
 End of Minotr F.D. properties file   721 does not exist.
 End of Minotr F.D. properties file   722 does not exist.
 End of Minotr F.D. properties file   788 does not exist.

 **********************************************************************

            Population analysis using the SCF Density.

 **********************************************************************

 Alpha  occ. eigenvalues --  -20.59836 -20.59397 -15.85286 -15.63336 -15.56848
 Alpha  occ. eigenvalues --  -11.35869 -11.30474 -11.30087 -11.30082 -11.27694
 Alpha  occ. eigenvalues --  -11.24629 -11.23880 -11.23403 -11.22854  -1.58490
 Alpha  occ. eigenvalues --   -1.37992  -1.28584  -1.22732  -1.13277  -1.08373
 Alpha  occ. eigenvalues --   -1.01813  -1.00671  -0.93590  -0.88965  -0.84936
 Alpha  occ. eigenvalues --   -0.81541  -0.78027  -0.76959  -0.74320  -0.71118
 Alpha  occ. eigenvalues --   -0.70334  -0.69783  -0.67403  -0.64367  -0.63265
 Alpha  occ. eigenvalues --   -0.61643  -0.60374  -0.57427  -0.56473  -0.54888
 Alpha  occ. eigenvalues --   -0.53595  -0.50728  -0.49361  -0.48484  -0.47786
 Alpha  occ. eigenvalues --   -0.47685  -0.46147  -0.45696  -0.44013  -0.42098
 Alpha  occ. eigenvalues --   -0.39963  -0.33779
 Alpha virt. eigenvalues --    0.07355   0.11781   0.18172   0.21388   0.23406
 Alpha virt. eigenvalues --    0.24246   0.26287   0.27793   0.28558   0.28871
 Alpha virt. eigenvalues --    0.29924   0.31080   0.31850   0.32274   0.33340
 Alpha virt. eigenvalues --    0.33783   0.34232   0.35471   0.37580   0.38580
 Alpha virt. eigenvalues --    0.40626   0.41744   0.44443   0.45265   0.45661
 Alpha virt. eigenvalues --    0.46064   0.49710   0.53178   0.57584   0.58989
 Alpha virt. eigenvalues --    0.63297   0.69135   0.69241   0.72200   0.74021
 Alpha virt. eigenvalues --    0.74927   0.75692   0.75854   0.77773   0.79275
 Alpha virt. eigenvalues --    0.80534   0.83635   0.85017   0.85355   0.87983
 Alpha virt. eigenvalues --    0.89074   0.90169   0.90790   0.91849   0.93901
 Alpha virt. eigenvalues --    0.95182   0.97200   0.98850   1.00375   1.01955
 Alpha virt. eigenvalues --    1.02752   1.05092   1.06476   1.07001   1.08673
 Alpha virt. eigenvalues --    1.09571   1.10467   1.11329   1.11953   1.13255
 Alpha virt. eigenvalues --    1.13830   1.14177   1.15407   1.16357   1.17264
 Alpha virt. eigenvalues --    1.17973   1.19985   1.21224   1.22333   1.22984
 Alpha virt. eigenvalues --    1.23710   1.24280   1.25656   1.27066   1.27513
 Alpha virt. eigenvalues --    1.29415   1.31230   1.33017   1.36010   1.39702
 Alpha virt. eigenvalues --    1.42853   1.46169   1.47256   1.49316   1.52667
 Alpha virt. eigenvalues --    1.54645   1.55396   1.60473   1.61456   1.65973
 Alpha virt. eigenvalues --    1.68639   1.70304   1.72804   1.73436   1.77030
 Alpha virt. eigenvalues --    1.77723   1.79968   1.84356   1.89127   1.92610
 Alpha virt. eigenvalues --    1.93693   1.96118   1.97513   1.99021   2.00836
 Alpha virt. eigenvalues --    2.02966   2.03812   2.05968   2.08863   2.11903
 Alpha virt. eigenvalues --    2.12893   2.13744   2.17740   2.18866   2.19407
 Alpha virt. eigenvalues --    2.20753   2.22064   2.24104   2.25113   2.26381
 Alpha virt. eigenvalues --    2.29188   2.32265   2.33450   2.35561   2.35965
 Alpha virt. eigenvalues --    2.38557   2.39842   2.41600   2.43201   2.46330
 Alpha virt. eigenvalues --    2.48660   2.50380   2.50771   2.56769   2.57193
 Alpha virt. eigenvalues --    2.60758   2.62853   2.65960   2.68537   2.68815
 Alpha virt. eigenvalues --    2.69705   2.70170   2.74717   2.77163   2.80937
 Alpha virt. eigenvalues --    2.84681   2.86741   2.89997   2.91384   2.95240
 Alpha virt. eigenvalues --    2.97605   2.98438   3.02211   3.03564   3.05681
 Alpha virt. eigenvalues --    3.07016   3.12705   3.19218   3.22700   3.27195
 Alpha virt. eigenvalues --    3.30688   3.33772   3.37232   3.43389   3.59840
 Alpha virt. eigenvalues --    4.09979   4.23262   4.32052   4.36362   4.43131
 Alpha virt. eigenvalues --    4.52643   4.59653   4.60152   4.70838   4.77582
 Alpha virt. eigenvalues --    4.96378   4.99234   5.02806   5.09940
          Condensed to atoms (all electrons):
               1          2          3          4          5          6
     1  O    8.299762   0.313197  -0.089675  -0.079239   0.003507  -0.000013
     2  N    0.313197   5.682690   0.309043   0.265350  -0.046118   0.000854
     3  O   -0.089675   0.309043   8.330910  -0.087451   0.008004   0.000463
     4  C   -0.079239   0.265350  -0.087451   5.244940   0.567327  -0.048010
     5  C    0.003507  -0.046118   0.008004   0.567327   4.670929   0.307601
     6  N   -0.000013   0.000854   0.000463  -0.048010   0.307601   7.189867
     7  C    0.000003  -0.000093   0.000002   0.004144  -0.029298   0.198397
     8  H   -0.000000   0.000002  -0.000000  -0.000180   0.002295  -0.049984
     9  C   -0.000000  -0.000003   0.000000   0.000472   0.001666  -0.056174
    10  C   -0.000000   0.000000  -0.000000  -0.000019  -0.000063   0.003334
    11  C   -0.000000  -0.000000  -0.000000  -0.000014   0.000015  -0.000154
    12  C   -0.000000   0.000002  -0.000000  -0.000100  -0.000127   0.003599
    13  C   -0.000019  -0.000025  -0.000003  -0.010504   0.000465  -0.044350
    14  H   -0.000003  -0.000055   0.000000   0.002968   0.004819  -0.005572
    15  N    0.000178   0.001640  -0.000013  -0.061316  -0.003708   0.001872
    16  C    0.003451  -0.026835   0.001944   0.318353  -0.041204  -0.001270
    17  H    0.000125  -0.004099   0.011944  -0.027163   0.377312  -0.033901
    18  H    0.000000  -0.000035   0.000008   0.000944  -0.024353   0.328357
    19  H    0.000000   0.000000   0.000000  -0.000765   0.000656   0.000642
    20  H    0.000000  -0.000000   0.000000  -0.000026   0.000029  -0.001712
    21  H   -0.000000  -0.000000   0.000000   0.000000   0.000001  -0.000059
    22  H   -0.000000   0.000000  -0.000000  -0.000000  -0.000002  -0.000098
    23  H    0.000000  -0.000000   0.000000   0.000025  -0.000000  -0.000024
    24  H    0.000000   0.000000   0.000000   0.000000  -0.000000   0.000004
    25  H    0.000000  -0.000000   0.000000   0.000019  -0.000001  -0.000071
    26  H    0.000000  -0.000000   0.000000   0.000006  -0.000001  -0.000067
    27  H    0.005322  -0.000246   0.000002  -0.066123   0.002141   0.000045
               7          8          9         10         11         12
     1  O    0.000003  -0.000000  -0.000000  -0.000000  -0.000000  -0.000000
     2  N   -0.000093   0.000002  -0.000003   0.000000  -0.000000   0.000002
     3  O    0.000002  -0.000000   0.000000  -0.000000  -0.000000  -0.000000
     4  C    0.004144  -0.000180   0.000472  -0.000019  -0.000014  -0.000100
     5  C   -0.029298   0.002295   0.001666  -0.000063   0.000015  -0.000127
     6  N    0.198397  -0.049984  -0.056174   0.003334  -0.000154   0.003599
     7  C    5.003476   0.416748   0.340743  -0.049327  -0.007709  -0.064133
     8  H    0.416748   0.547433  -0.060570   0.001471  -0.000330  -0.002843
     9  C    0.340743  -0.060570   5.181255   0.317926  -0.053051  -0.006218
    10  C   -0.049327   0.001471   0.317926   5.126756   0.332751  -0.060149
    11  C   -0.007709  -0.000330  -0.053051   0.332751   5.123959   0.330657
    12  C   -0.064133  -0.002843  -0.006218  -0.060149   0.330657   5.136976
    13  C    0.332292  -0.040379  -0.050404  -0.001729  -0.047894   0.368229
    14  H   -0.040246  -0.000941   0.003865  -0.000391   0.003955  -0.040735
    15  N   -0.058217   0.004047  -0.012879   0.001460  -0.007735  -0.074159
    16  C   -0.002335   0.000022  -0.000893  -0.000025   0.000003   0.002508
    17  H    0.001427  -0.000019  -0.000065   0.000001   0.000000   0.000001
    18  H   -0.028454  -0.002670   0.000841  -0.000121   0.000011  -0.000136
    19  H   -0.034997   0.004098   0.385962  -0.032567  -0.002264   0.000629
    20  H   -0.041649  -0.001853   0.397241  -0.037369   0.004139  -0.000361
    21  H    0.004043  -0.000080  -0.035834   0.400146  -0.035842   0.004211
    22  H   -0.004219   0.003510  -0.045688   0.395973  -0.045621  -0.001229
    23  H    0.000428   0.000033  -0.002004  -0.040091   0.396699  -0.036628
    24  H   -0.000141  -0.000098   0.004395  -0.038481   0.400299  -0.037869
    25  H    0.004981  -0.000005  -0.000369   0.004097  -0.033923   0.395437
    26  H   -0.004453   0.001604   0.001041  -0.002402  -0.042315   0.394684
    27  H   -0.000402   0.000009  -0.000059   0.000005   0.000005  -0.000019
              13         14         15         16         17         18
     1  O   -0.000019  -0.000003   0.000178   0.003451   0.000125   0.000000
     2  N   -0.000025  -0.000055   0.001640  -0.026835  -0.004099  -0.000035
     3  O   -0.000003   0.000000  -0.000013   0.001944   0.011944   0.000008
     4  C   -0.010504   0.002968  -0.061316   0.318353  -0.027163   0.000944
     5  C    0.000465   0.004819  -0.003708  -0.041204   0.377312  -0.024353
     6  N   -0.044350  -0.005572   0.001872  -0.001270  -0.033901   0.328357
     7  C    0.332292  -0.040246  -0.058217  -0.002335   0.001427  -0.028454
     8  H   -0.040379  -0.000941   0.004047   0.000022  -0.000019  -0.002670
     9  C   -0.050404   0.003865  -0.012879  -0.000893  -0.000065   0.000841
    10  C   -0.001729  -0.000391   0.001460  -0.000025   0.000001  -0.000121
    11  C   -0.047894   0.003955  -0.007735   0.000003   0.000000   0.000011
    12  C    0.368229  -0.040735  -0.074159   0.002508   0.000001  -0.000136
    13  C    5.024209   0.402306   0.239848  -0.069753  -0.000042   0.003681
    14  H    0.402306   0.519302  -0.035825  -0.004836   0.000064   0.000009
    15  N    0.239848  -0.035825   6.936262   0.587566  -0.000059  -0.000119
    16  C   -0.069753  -0.004836   0.587566   4.699866   0.001652  -0.000213
    17  H   -0.000042   0.000064  -0.000059   0.001652   0.386109  -0.001870
    18  H    0.003681   0.000009  -0.000119  -0.000213  -0.001870   0.324412
    19  H   -0.006275   0.000065   0.006958   0.002533   0.000011  -0.000127
    20  H    0.003863  -0.000049   0.000079  -0.000031  -0.000001   0.002870
    21  H   -0.000377   0.000009  -0.000029   0.000002  -0.000000  -0.000000
    22  H    0.000319  -0.000044   0.000002  -0.000001   0.000000   0.000002
    23  H   -0.005860   0.000008   0.006763   0.000062   0.000000   0.000000
    24  H    0.004142  -0.000058   0.000044   0.000005   0.000000  -0.000000
    25  H   -0.034470  -0.002657   0.000764  -0.000061  -0.000000   0.000002
    26  H   -0.044813  -0.000906   0.004187  -0.000055   0.000000  -0.000001
    27  H    0.004880  -0.000174  -0.039789   0.402361  -0.000059   0.000002
              19         20         21         22         23         24
     1  O    0.000000   0.000000  -0.000000  -0.000000   0.000000   0.000000
     2  N    0.000000  -0.000000  -0.000000   0.000000  -0.000000   0.000000
     3  O    0.000000   0.000000   0.000000  -0.000000   0.000000   0.000000
     4  C   -0.000765  -0.000026   0.000000  -0.000000   0.000025   0.000000
     5  C    0.000656   0.000029   0.000001  -0.000002  -0.000000  -0.000000
     6  N    0.000642  -0.001712  -0.000059  -0.000098  -0.000024   0.000004
     7  C   -0.034997  -0.041649   0.004043  -0.004219   0.000428  -0.000141
     8  H    0.004098  -0.001853  -0.000080   0.003510   0.000033  -0.000098
     9  C    0.385962   0.397241  -0.035834  -0.045688  -0.002004   0.004395
    10  C   -0.032567  -0.037369   0.400146   0.395973  -0.040091  -0.038481
    11  C   -0.002264   0.004139  -0.035842  -0.045621   0.396699   0.400299
    12  C    0.000629  -0.000361   0.004211  -0.001229  -0.036628  -0.037869
    13  C   -0.006275   0.003863  -0.000377   0.000319  -0.005860   0.004142
    14  H    0.000065  -0.000049   0.000009  -0.000044   0.000008  -0.000058
    15  N    0.006958   0.000079  -0.000029   0.000002   0.006763   0.000044
    16  C    0.002533  -0.000031   0.000002  -0.000001   0.000062   0.000005
    17  H    0.000011  -0.000001  -0.000000   0.000000   0.000000   0.000000
    18  H   -0.000127   0.002870  -0.000000   0.000002   0.000000  -0.000000
    19  H    0.506820  -0.024022  -0.002593   0.003756   0.001641  -0.000070
    20  H   -0.024022   0.550144  -0.002614  -0.002966  -0.000049  -0.000090
    21  H   -0.002593  -0.002614   0.526071  -0.024693  -0.002813  -0.002060
    22  H    0.003756  -0.002966  -0.024693   0.568835   0.004061  -0.003596
    23  H    0.001641  -0.000049  -0.002813   0.004061   0.509632  -0.024990
    24  H   -0.000070  -0.000090  -0.002060  -0.003596  -0.024990   0.541023
    25  H   -0.000027   0.000011  -0.000086  -0.000082  -0.002093  -0.002380
    26  H    0.000023  -0.000035  -0.000074   0.002465   0.003821  -0.002767
    27  H    0.000076  -0.000000  -0.000000   0.000000  -0.000022  -0.000000
              25         26         27
     1  O    0.000000   0.000000   0.005322
     2  N   -0.000000  -0.000000  -0.000246
     3  O    0.000000   0.000000   0.000002
     4  C    0.000019   0.000006  -0.066123
     5  C   -0.000001  -0.000001   0.002141
     6  N   -0.000071  -0.000067   0.000045
     7  C    0.004981  -0.004453  -0.000402
     8  H   -0.000005   0.001604   0.000009
     9  C   -0.000369   0.001041  -0.000059
    10  C    0.004097  -0.002402   0.000005
    11  C   -0.033923  -0.042315   0.000005
    12  C    0.395437   0.394684  -0.000019
    13  C   -0.034470  -0.044813   0.004880
    14  H   -0.002657  -0.000906  -0.000174
    15  N    0.000764   0.004187  -0.039789
    16  C   -0.000061  -0.000055   0.402361
    17  H   -0.000000   0.000000  -0.000059
    18  H    0.000002  -0.000001   0.000002
    19  H   -0.000027   0.000023   0.000076
    20  H    0.000011  -0.000035  -0.000000
    21  H   -0.000086  -0.000074  -0.000000
    22  H   -0.000082   0.002465   0.000000
    23  H   -0.002093   0.003821  -0.000022
    24  H   -0.002380  -0.002767  -0.000000
    25  H    0.510371  -0.023099  -0.000010
    26  H   -0.023099   0.560948   0.000001
    27  H   -0.000010   0.000001   0.452278
 Mulliken charges:
               1
     1  O   -0.456598
     2  N    0.504731
     3  O   -0.485178
     4  C   -0.023638
     5  C    0.198107
     6  N   -0.793577
     7  C    0.058988
     8  H    0.178679
     9  C   -0.311195
    10  C   -0.321185
    11  C   -0.315640
    12  C   -0.312227
    13  C   -0.027339
    14  H    0.195122
    15  N   -0.497823
    16  C    0.127186
    17  H    0.288632
    18  H    0.396958
    19  H    0.189837
    20  H    0.154452
    21  H    0.172671
    22  H    0.149316
    23  H    0.191401
    24  H    0.162687
    25  H    0.183651
    26  H    0.152208
    27  H    0.239777
 Sum of Mulliken charges =  -0.00000
 Mulliken charges with hydrogens summed into heavy atoms:
               1
     1  O   -0.456598
     2  N    0.504731
     3  O   -0.485178
     4  C   -0.023638
     5  C    0.486739
     6  N   -0.396620
     7  C    0.237667
     9  C    0.033094
    10  C    0.000801
    11  C    0.038447
    12  C    0.023631
    13  C    0.167783
    15  N   -0.497823
    16  C    0.366963
 Electronic spatial extent (au):  <R**2>=           3126.3214
 Charge=              0.0000 electrons
 Dipole moment (field-independent basis, Debye):
    X=              5.3582    Y=              4.5017    Z=              0.5000  Tot=              7.0161
 Quadrupole moment (field-independent basis, Debye-Ang):
   XX=           -105.4548   YY=            -80.2537   ZZ=            -82.2598
   XY=             -1.8733   XZ=              0.9338   YZ=              0.0446
 Traceless Quadrupole moment (field-independent basis, Debye-Ang):
   XX=            -16.1320   YY=              9.0691   ZZ=              7.0629
   XY=             -1.8733   XZ=              0.9338   YZ=              0.0446
 Octapole moment (field-independent basis, Debye-Ang**2):
  XXX=            101.4307  YYY=             36.8062  ZZZ=             -5.3116  XYY=             -1.3962
  XXY=             11.7812  XXZ=             -0.5477  XZZ=             -8.2940  YZZ=             -2.8708
  YYZ=              0.7450  XYZ=             -1.4338
 Hexadecapole moment (field-independent basis, Debye-Ang**3):
 XXXX=          -3561.1817 YYYY=           -619.7450 ZZZZ=           -298.9943 XXXY=            -41.5520
 XXXZ=             27.4766 YYYX=            -21.0282 YYYZ=             11.3154 ZZZX=             21.8856
 ZZZY=              8.7895 XXYY=           -657.0131 XXZZ=           -543.6485 YYZZ=           -164.5226
 XXYZ=              2.3243 YYXZ=             10.3997 ZZXY=              2.3160
 N-N= 9.174396623367D+02 E-N=-3.380889274623D+03  KE= 6.588551166771D+02
 Calling FoFJK, ICntrl=  10002127 FMM=F ISym2X=0 I1Cent= 0 IOpClX= 0 NMat=1 NMatS=1 NMatT=0.
 -------------------------------------------------------------------
 Center     Atomic                   Forces (Hartrees/Bohr)
 Number     Number              X              Y              Z
 -------------------------------------------------------------------
      1        8           0.002377135   -0.019262138   -0.003138608
      2        7           0.039268209    0.013811653   -0.001786513
      3        8          -0.005254799    0.015802422    0.003647110
      4        6          -0.003013321    0.008670291    0.009462975
      5        6           0.003147032   -0.016606190   -0.005209100
      6        7           0.014763012   -0.010160892   -0.006429297
      7        6          -0.004651758    0.005230001    0.002888649
      8        1          -0.010091706   -0.001725520   -0.007658048
      9        6          -0.003946028    0.000172076   -0.002126802
     10        6           0.002834516   -0.000874286    0.000985101
     11        6          -0.001050776   -0.004614451   -0.002411485
     12        6           0.000817102   -0.008755517   -0.002878810
     13        6           0.008910062   -0.001976308    0.004697634
     14        1           0.000884763    0.004471115   -0.009851403
     15        7           0.000087393    0.001011745    0.001334164
     16        6          -0.021049959    0.007435726    0.003639016
     17        1           0.007140951   -0.005971668   -0.006315958
     18        1          -0.017587830   -0.001698013    0.006219806
     19        1           0.003103478    0.005886415    0.007697679
     20        1          -0.003250560   -0.007345194    0.002602916
     21        1          -0.004361745    0.002404951    0.009612365
     22        1          -0.003983522   -0.003976873   -0.007406397
     23        1           0.003982829    0.006132875    0.009300618
     24        1          -0.009376757    0.002621305   -0.002135086
     25        1          -0.000775313    0.010592861   -0.002410389
     26        1          -0.004774196   -0.004801981   -0.004367200
     27        1           0.005851792    0.003525597    0.002037062
 -------------------------------------------------------------------
 Cartesian Forces:  Max     0.039268209 RMS     0.008384370

 GradGradGradGradGradGradGradGradGradGradGradGradGradGradGradGradGradGrad
 Berny optimization.
 FormGI is forming the generalized inverse of G from B-inverse, IUseBI=4.
 Internal  Forces:  Max     0.037704220 RMS     0.006885516
 Search for a local minimum.
 Step number   1 out of a maximum of   20
 All quantities printed in internal units (Hartrees-Bohrs-Radians)
 Mixed Optimization -- RFO/linear search
 Second derivative matrix not updated -- first step.
 ITU=  0
     Eigenvalues ---    0.00231   0.00770   0.01044   0.01145   0.01197
     Eigenvalues ---    0.01482   0.01531   0.01602   0.01971   0.02017
     Eigenvalues ---    0.02087   0.02689   0.03663   0.04506   0.04694
     Eigenvalues ---    0.04838   0.05081   0.05138   0.05304   0.05893
     Eigenvalues ---    0.06265   0.07216   0.07700   0.07725   0.07872
     Eigenvalues ---    0.07993   0.08050   0.08056   0.10459   0.11738
     Eigenvalues ---    0.12268   0.13480   0.15250   0.15730   0.15991
     Eigenvalues ---    0.16000   0.20086   0.21951   0.23154   0.24981
     Eigenvalues ---    0.25000   0.25000   0.25370   0.26202   0.26651
     Eigenvalues ---    0.27979   0.28083   0.28472   0.29638   0.31460
     Eigenvalues ---    0.31647   0.32046   0.32237   0.32290   0.32380
     Eigenvalues ---    0.32389   0.32405   0.32516   0.32526   0.32582
     Eigenvalues ---    0.33330   0.33391   0.33599   0.35366   0.43882
     Eigenvalues ---    0.44232   0.49164   0.67001   0.90429   0.91163
     Eigenvalues --- 1000.000001000.000001000.000001000.000001000.00000
     Eigenvalues --- 1000.000001000.000001000.000001000.000001000.00000
     Eigenvalues --- 1000.000001000.000001000.000001000.000001000.00000
     Eigenvalues --- 1000.000001000.000001000.000001000.000001000.00000
     Eigenvalues --- 1000.000001000.000001000.000001000.000001000.00000
     Eigenvalues --- 1000.000001000.000001000.000001000.000001000.00000
     Eigenvalues --- 1000.000001000.000001000.000001000.000001000.00000
     Eigenvalues --- 1000.000001000.000001000.000001000.000001000.00000
     Eigenvalues --- 1000.000001000.000001000.000001000.000001000.00000
     Eigenvalues --- 1000.000001000.000001000.000001000.000001000.00000
     Eigenvalues --- 1000.000001000.000001000.000001000.000001000.00000
     Eigenvalues --- 1000.000001000.000001000.000001000.000001000.00000
     Eigenvalues --- 1000.000001000.000001000.000001000.000001000.00000
     Eigenvalues --- 1000.000001000.000001000.000001000.000001000.00000
     Eigenvalues --- 1000.000001000.000001000.000001000.000001000.00000
     Eigenvalues --- 1000.000001000.000001000.000001000.000001000.00000
     Eigenvalues --- 1000.000001000.000001000.000001000.000001000.00000
     Eigenvalues --- 1000.000001000.000001000.000001000.000001000.00000
     Eigenvalues --- 1000.00000
 RFO step:  Lambda=-2.38409392D-02 EMin= 2.30795312D-03
 Linear search not attempted -- first point.
 Iteration  1 RMS(Cart)=  0.05560685 RMS(Int)=  0.00104851
 Iteration  2 RMS(Cart)=  0.00112184 RMS(Int)=  0.00022270
 Iteration  3 RMS(Cart)=  0.00000090 RMS(Int)=  0.00022270
 Iteration  1 RMS(Cart)=  0.00002995 RMS(Int)=  0.00002249
 Iteration  2 RMS(Cart)=  0.00001468 RMS(Int)=  0.00002500
 Iteration  3 RMS(Cart)=  0.00000773 RMS(Int)=  0.00002775
 Iteration  4 RMS(Cart)=  0.00000452 RMS(Int)=  0.00002946
 Iteration  5 RMS(Cart)=  0.00000301 RMS(Int)=  0.00003051
 Iteration  6 RMS(Cart)=  0.00000225 RMS(Int)=  0.00003119
 Iteration  7 RMS(Cart)=  0.00000181 RMS(Int)=  0.00003167
 Iteration  8 RMS(Cart)=  0.00000151 RMS(Int)=  0.00003204
 Iteration  9 RMS(Cart)=  0.00000127 RMS(Int)=  0.00003232
 Iteration 10 RMS(Cart)=  0.00000108 RMS(Int)=  0.00003256
 Iteration 11 RMS(Cart)=  0.00000092 RMS(Int)=  0.00003276
 Variable       Old X    -DE/DX   Delta X   Delta X   Delta X     New X
                                 (Linear)    (Quad)   (Total)
    R1        2.32401   0.01796   0.00000   0.01920   0.01920   2.34321
    R2        2.32736   0.01586   0.00000   0.01709   0.01709   2.34444
    R3        2.88692  -0.03770   0.00000  -0.11775  -0.11775   2.76917
    R4        2.64502  -0.03475   0.00000  -0.07505  -0.07481   2.57021
    R5        2.80960  -0.02181   0.00000  -0.06249  -0.06226   2.74734
    R6        2.59070  -0.02448   0.00000  -0.04743  -0.04734   2.54336
    R7        2.08371  -0.01039   0.00000  -0.02903  -0.02903   2.05467
    R8        2.82449  -0.01942   0.00000  -0.05387  -0.05398   2.77051
    R9        1.93296  -0.00664   0.00000  -0.01434  -0.01434   1.91861
   R10        2.11843  -0.01189   0.00000  -0.03513  -0.03513   2.08330
   R11        2.92740  -0.01299   0.00000  -0.04424  -0.04427   2.88313
   R12        2.90263  -0.00444   0.00000  -0.00875  -0.00879   2.89384
   R13        2.91140  -0.00464   0.00000  -0.01435  -0.01437   2.89703
   R14        2.09910  -0.00996   0.00000  -0.02853  -0.02853   2.07057
   R15        2.09893  -0.00802   0.00000  -0.02298  -0.02298   2.07594
   R16        2.90430  -0.00182   0.00000  -0.00715  -0.00719   2.89711
   R17        2.10138  -0.01057   0.00000  -0.03040  -0.03040   2.07098
   R18        2.10317  -0.00901   0.00000  -0.02598  -0.02598   2.07718
   R19        2.91770  -0.00908   0.00000  -0.02877  -0.02874   2.88896
   R20        2.10412  -0.01168   0.00000  -0.03373  -0.03373   2.07039
   R21        2.10108  -0.00994   0.00000  -0.02858  -0.02858   2.07250
   R22        2.93532  -0.01057   0.00000  -0.03640  -0.03638   2.89894
   R23        2.10153  -0.01073   0.00000  -0.03087  -0.03087   2.07066
   R24        2.09792  -0.00785   0.00000  -0.02245  -0.02245   2.07547
   R25        2.10759  -0.00916   0.00000  -0.02660  -0.02660   2.08099
   R26        2.76804  -0.00524   0.00000  -0.01099  -0.01130   2.75673
   R27        2.44273  -0.00575   0.00000  -0.00783  -0.00786   2.43487
   R28        2.08013  -0.00623   0.00000  -0.01732  -0.01732   2.06281
    A1        2.15850   0.01095   0.00000   0.04012   0.03998   2.19848
    A2        2.05375  -0.00763   0.00000  -0.02773  -0.02788   2.02588
    A3        2.07082  -0.00331   0.00000  -0.01197  -0.01212   2.05871
    A4        2.03266  -0.00746   0.00000  -0.02491  -0.02528   2.00738
    A5        2.03389  -0.00307   0.00000  -0.00886  -0.00927   2.02462
    A6        2.21586   0.01047   0.00000   0.03249   0.03273   2.24859
    A7        2.20075   0.00611   0.00000   0.01911   0.01942   2.22017
    A8        2.06410  -0.00329   0.00000  -0.01058  -0.01082   2.05328
    A9        2.01737  -0.00278   0.00000  -0.00769  -0.00795   2.00943
   A10        2.25350  -0.00552   0.00000  -0.01906  -0.01912   2.23439
   A11        2.11560  -0.01251   0.00000  -0.07176  -0.07210   2.04350
   A12        1.87497   0.01823   0.00000   0.09807   0.09823   1.97320
   A13        1.83801  -0.00160   0.00000  -0.01775  -0.01756   1.82045
   A14        2.00678  -0.00112   0.00000  -0.01259  -0.01259   1.99419
   A15        1.96717   0.00104   0.00000   0.00185   0.00137   1.96854
   A16        1.85192   0.00268   0.00000   0.02395   0.02378   1.87570
   A17        1.84914   0.00082   0.00000   0.01805   0.01788   1.86702
   A18        1.93682  -0.00149   0.00000  -0.00930  -0.00898   1.92784
   A19        1.91015   0.00014   0.00000  -0.00471  -0.00485   1.90530
   A20        1.92260  -0.00073   0.00000  -0.01295  -0.01292   1.90968
   A21        1.92282  -0.00165   0.00000  -0.00707  -0.00707   1.91576
   A22        1.91925  -0.00040   0.00000   0.00570   0.00566   1.92490
   A23        1.90445   0.00305   0.00000   0.02442   0.02444   1.92889
   A24        1.88436  -0.00039   0.00000  -0.00496  -0.00521   1.87915
   A25        1.94043  -0.00087   0.00000   0.00560   0.00548   1.94591
   A26        1.91895  -0.00070   0.00000  -0.00683  -0.00684   1.91211
   A27        1.90498   0.00031   0.00000  -0.00295  -0.00301   1.90197
   A28        1.91613   0.00079   0.00000   0.00710   0.00715   1.92328
   A29        1.89849   0.00171   0.00000   0.01113   0.01116   1.90965
   A30        1.88381  -0.00122   0.00000  -0.01452  -0.01461   1.86921
   A31        1.94469   0.00064   0.00000   0.00504   0.00517   1.94986
   A32        1.90237   0.00062   0.00000   0.00589   0.00584   1.90821
   A33        1.91748   0.00038   0.00000   0.00527   0.00524   1.92272
   A34        1.90654  -0.00113   0.00000  -0.01410  -0.01415   1.89239
   A35        1.91536  -0.00047   0.00000   0.00013   0.00004   1.91540
   A36        1.87603  -0.00007   0.00000  -0.00260  -0.00263   1.87340
   A37        1.94790  -0.00297   0.00000  -0.01801  -0.01804   1.92986
   A38        1.90595   0.00254   0.00000   0.01689   0.01674   1.92269
   A39        1.91069   0.00139   0.00000   0.01317   0.01315   1.92384
   A40        1.90612   0.00019   0.00000  -0.00294  -0.00278   1.90335
   A41        1.91135  -0.00021   0.00000  -0.00476  -0.00471   1.90664
   A42        1.88059  -0.00087   0.00000  -0.00387  -0.00405   1.87653
   A43        1.84659   0.00455   0.00000   0.02352   0.02356   1.87014
   A44        1.93878  -0.00433   0.00000  -0.03121  -0.03162   1.90716
   A45        1.98285   0.00082   0.00000   0.01142   0.01161   1.99446
   A46        1.88059   0.00223   0.00000   0.03007   0.03037   1.91095
   A47        1.89200  -0.00388   0.00000  -0.02834  -0.02838   1.86362
   A48        1.91843   0.00081   0.00000  -0.00316  -0.00302   1.91541
   A49        2.08372  -0.00622   0.00000  -0.01439  -0.01474   2.06898
   A50        2.25156  -0.00500   0.00000  -0.02097  -0.02101   2.23054
   A51        1.97881   0.00562   0.00000   0.02754   0.02706   2.00587
   A52        2.05280  -0.00061   0.00000  -0.00627  -0.00674   2.04606
    D1       -3.03681  -0.00074   0.00000  -0.03181  -0.03116  -3.06797
    D2        0.14414   0.00038   0.00000   0.00000  -0.00000   0.14414
    D3        0.11964  -0.00176   0.00000  -0.06195  -0.06162   0.05802
    D4       -2.98259  -0.00064   0.00000  -0.03014  -0.03047  -3.01305
    D5        3.07508   0.00057   0.00000   0.01512   0.01515   3.09023
    D6       -0.01715  -0.00044   0.00000  -0.00593  -0.00598  -0.02312
    D7       -0.11059  -0.00110   0.00000  -0.02177  -0.02216  -0.13275
    D8        3.08037  -0.00211   0.00000  -0.04283  -0.04329   3.03708
    D9       -2.69974  -0.00199   0.00000  -0.04460  -0.04517  -2.74491
   D10        0.43449   0.00043   0.00000   0.00451   0.00425   0.43874
   D11        0.48595  -0.00022   0.00000  -0.00734  -0.00721   0.47874
   D12       -2.66300   0.00220   0.00000   0.04178   0.04221  -2.62078
   D13       -0.13014  -0.00011   0.00000   0.02279   0.02300  -0.10714
   D14        2.67560   0.00381   0.00000   0.06959   0.06864   2.74425
   D15        2.96325   0.00085   0.00000   0.04325   0.04357   3.00682
   D16       -0.51419   0.00477   0.00000   0.09005   0.08922  -0.42497
   D17       -2.48196  -0.00072   0.00000  -0.01814  -0.01776  -2.49972
   D18        1.76941  -0.00236   0.00000  -0.02911  -0.02879   1.74062
   D19       -0.47397  -0.00017   0.00000  -0.00616  -0.00615  -0.48012
   D20        0.95953  -0.00008   0.00000  -0.03663  -0.03711   0.92242
   D21       -1.07229  -0.00172   0.00000  -0.04760  -0.04813  -1.12042
   D22        2.96752   0.00047   0.00000  -0.02465  -0.02550   2.94202
   D23        2.94447   0.00234   0.00000   0.02523   0.02514   2.96961
   D24       -1.22656   0.00147   0.00000   0.02108   0.02100  -1.20557
   D25        0.85046  -0.00049   0.00000   0.00247   0.00247   0.85293
   D26        0.92060   0.00316   0.00000   0.03823   0.03822   0.95883
   D27        3.03275   0.00229   0.00000   0.03407   0.03409   3.06684
   D28       -1.17341   0.00032   0.00000   0.01546   0.01555  -1.15785
   D29       -1.08029   0.00144   0.00000   0.00826   0.00824  -1.07206
   D30        1.03186   0.00057   0.00000   0.00411   0.00410   1.03596
   D31        3.10888  -0.00139   0.00000  -0.01450  -0.01443   3.09445
   D32       -2.90032  -0.00103   0.00000  -0.01298  -0.01275  -2.91307
   D33       -0.86424   0.00202   0.00000   0.02027   0.02012  -0.84413
   D34        1.30939   0.00029   0.00000   0.00000  -0.00001   1.30938
   D35       -0.89906  -0.00193   0.00000  -0.02260  -0.02250  -0.92155
   D36        1.13702   0.00112   0.00000   0.01065   0.01037   1.14739
   D37       -2.97253  -0.00061   0.00000  -0.00962  -0.00975  -2.98229
   D38        1.10357   0.00095   0.00000   0.01104   0.01114   1.11472
   D39        3.13965   0.00400   0.00000   0.04429   0.04401  -3.09952
   D40       -0.96990   0.00227   0.00000   0.02402   0.02389  -0.94602
   D41        0.95665   0.00065   0.00000   0.00000   0.00001   0.95665
   D42        3.08230   0.00059   0.00000   0.00805   0.00801   3.09031
   D43       -1.13764  -0.00112   0.00000  -0.01540  -0.01536  -1.15301
   D44       -1.15754   0.00172   0.00000   0.01543   0.01550  -1.14203
   D45        0.96812   0.00167   0.00000   0.02348   0.02351   0.99162
   D46        3.03136  -0.00005   0.00000   0.00004   0.00013   3.03149
   D47        3.06188   0.00060   0.00000   0.00349   0.00346   3.06533
   D48       -1.09566   0.00054   0.00000   0.01154   0.01146  -1.08420
   D49        0.96759  -0.00118   0.00000  -0.01190  -0.01192   0.95567
   D50       -0.92192  -0.00080   0.00000   0.00000   0.00001  -0.92192
   D51        1.18335  -0.00140   0.00000  -0.01050  -0.01051   1.17283
   D52       -3.04844  -0.00089   0.00000  -0.00715  -0.00719  -3.05563
   D53       -3.04922   0.00012   0.00000   0.00007   0.00009  -3.04912
   D54       -0.94395  -0.00047   0.00000  -0.01043  -0.01043  -0.95437
   D55        1.10745   0.00003   0.00000  -0.00708  -0.00710   1.10035
   D56        1.17621   0.00014   0.00000   0.00700   0.00704   1.18325
   D57       -3.00170  -0.00045   0.00000  -0.00350  -0.00348  -3.00519
   D58       -0.95031   0.00005   0.00000  -0.00015  -0.00016  -0.95046
   D59        0.98783  -0.00083   0.00000  -0.01174  -0.01179   0.97605
   D60        3.09701  -0.00080   0.00000  -0.01568  -0.01583   3.08118
   D61       -1.13110   0.00044   0.00000  -0.00288  -0.00285  -1.13396
   D62       -1.11499  -0.00126   0.00000  -0.01298  -0.01298  -1.12797
   D63        0.99418  -0.00123   0.00000  -0.01692  -0.01702   0.97716
   D64        3.04926   0.00000   0.00000  -0.00412  -0.00404   3.04522
   D65        3.11557  -0.00024   0.00000  -0.00162  -0.00163   3.11395
   D66       -1.05844  -0.00021   0.00000  -0.00556  -0.00567  -1.06411
   D67        0.99664   0.00102   0.00000   0.00724   0.00731   1.00395
   D68       -1.05248   0.00004   0.00000  -0.00016  -0.00007  -1.05255
   D69       -3.12751   0.00159   0.00000   0.00883   0.00847  -3.11904
   D70        1.08025   0.00151   0.00000   0.01141   0.01131   1.09156
   D71        3.12163  -0.00136   0.00000  -0.00778  -0.00762   3.11401
   D72        1.04660   0.00019   0.00000   0.00121   0.00092   1.04752
   D73       -1.02883   0.00011   0.00000   0.00379   0.00376  -1.02507
   D74        1.06607  -0.00030   0.00000   0.00137   0.00157   1.06765
   D75       -1.00896   0.00125   0.00000   0.01037   0.01012  -0.99885
   D76       -3.08439   0.00117   0.00000   0.01294   0.01295  -3.07144
   D77       -1.17216   0.00377   0.00000   0.00000  -0.00001  -1.17217
   D78        3.06377   0.00018   0.00000  -0.01734  -0.01721   3.04656
   D79        1.01240  -0.00071   0.00000  -0.03526  -0.03552   0.97688
   D80        0.13300   0.00186   0.00000   0.01954   0.01924   0.15225
   D81       -3.00097  -0.00067   0.00000  -0.03146  -0.03127  -3.03225
         Item               Value     Threshold  Converged?
 Maximum Force            0.037704     0.000450     NO 
 RMS     Force            0.006963     0.000300     NO 
 Maximum Displacement     0.292000     0.001800     NO 
 RMS     Displacement     0.055758     0.001200     NO 
 Predicted change in Energy=-1.334023D-02
 GradGradGradGradGradGradGradGradGradGradGradGradGradGradGradGradGradGrad

                          Input orientation:                          
 ---------------------------------------------------------------------
 Center     Atomic      Atomic             Coordinates (Angstroms)
 Number     Number       Type             X           Y           Z
 ---------------------------------------------------------------------
      1          8           0       -3.480338   -1.425165   -0.223235
      2          7           0       -3.128137   -0.250590   -0.039201
      3          8           0       -3.883220    0.714951    0.152456
      4          6           0       -1.683484   -0.005112   -0.030987
      5          6           0       -1.318821    1.272143    0.261419
      6          7           0       -0.068049    1.752433    0.389110
      7          6           0        1.192906    1.004789    0.368025
      8          1           0        1.826043    1.517556    1.110701
      9          6           0        1.926538    1.050621   -0.968912
     10          6           0        3.326902    0.451385   -0.795366
     11          6           0        3.263929   -0.961101   -0.202695
     12          6           0        2.441188   -0.998023    1.085278
     13          6           0        1.032155   -0.442808    0.840967
     14          1           0        0.463427   -0.456101    1.783859
     15          7           0        0.395010   -1.324142   -0.131348
     16          6           0       -0.844315   -1.125804   -0.422732
     17          1           0       -2.111398    1.995004    0.438867
     18          1           0        0.059463    2.750932    0.256646
     19          1           0        1.359919    0.482410   -1.714990
     20          1           0        1.993043    2.089169   -1.320745
     21          1           0        3.840570    0.433001   -1.763270
     22          1           0        3.913667    1.100818   -0.130399
     23          1           0        2.801279   -1.638765   -0.928696
     24          1           0        4.276385   -1.334203   -0.006417
     25          1           0        2.361367   -2.027107    1.453078
     26          1           0        2.933451   -0.404649    1.867472
     27          1           0       -1.328499   -1.858641   -1.070875
 ---------------------------------------------------------------------
                    Distance matrix (angstroms):
                    1          2          3          4          5
     1  O    0.000000
     2  N    1.239976   0.000000
     3  O    2.209876   1.240626   0.000000
     4  C    2.298303   1.465383   2.321849   0.000000
     5  C    3.490346   2.383844   2.626495   1.360096   0.000000
     6  N    4.702745   3.682348   3.960796   2.423855   1.345888
     7  C    5.300328   4.518099   5.088962   3.074529   2.528165
     8  H    6.212622   5.384470   5.844493   3.992336   3.266754
     9  C    5.993318   5.301627   5.926502   3.876407   3.477807
    10  C    7.084299   6.536977   7.276928   5.088873   4.834581
    11  C    6.760246   6.433511   7.349628   5.041854   5.119022
    12  C    6.079402   5.730662   6.618351   4.386894   4.468788
    13  C    4.739214   4.256720   5.096603   2.885581   2.967157
    14  H    4.529989   4.033003   4.788129   2.847154   2.912226
    15  N    3.877754   3.684232   4.747810   2.463747   3.135631
    16  C    2.660458   2.475669   3.599190   1.453830   2.538380
    17  H    3.742984   2.510975   2.204522   2.098650   1.087287
    18  H    5.495476   4.388331   4.438560   3.273587   2.021510
    19  H    5.412233   4.846463   5.570632   3.512242   3.421333
    20  H    6.596436   5.774366   6.212025   4.423385   3.760215
    21  H    7.708449   7.211282   7.962816   5.805852   5.605608
    22  H    7.814123   7.170887   7.811552   5.706230   5.249934
    23  H    6.324715   6.154365   7.168780   4.856728   5.183145
    24  H    7.760286   7.483464   8.414477   6.106319   6.178277
    25  H    6.107200   5.959661   6.943009   4.759384   5.084181
    26  H    6.822697   6.356255   7.117709   5.007980   4.844879
    27  H    2.353042   2.624667   3.827077   2.154751   3.402486
                    6          7          8          9         10
     6  N    0.000000
     7  C    1.466092   0.000000
     8  H    2.040453   1.102434   0.000000
     9  C    2.512994   1.525685   2.133757   0.000000
    10  C    3.823794   2.492723   2.649979   1.533042   0.000000
    11  C    4.337693   2.911972   3.152184   2.534310   1.533083
    12  C    3.787602   2.466559   2.589824   2.946439   2.534185
    13  C    2.496739   1.531356   2.132145   2.511157   2.956862
    14  H    2.665599   2.161233   2.491021   3.462463   3.959220
    15  N    3.154459   2.511957   3.415522   2.947302   3.491333
    16  C    3.089648   3.052047   4.058273   3.565496   4.474978
    17  H    2.058298   3.450213   4.022780   4.379341   5.786293
    18  H    1.015286   2.084734   2.317635   2.806959   4.131683
    19  H    2.842408   2.154001   3.045214   1.095698   2.171564
    20  H    2.699091   2.160565   2.503310   1.098541   2.176589
    21  H    4.653057   3.446662   3.673458   2.162401   1.095916
    22  H    4.067991   2.767704   2.464178   2.157384   1.099199
    23  H    4.633560   3.355104   3.882343   2.828354   2.159348
    24  H    5.343956   3.888307   3.922328   3.483613   2.170780
    25  H    4.617252   3.425644   3.601171   3.940497   3.482913
    26  H    3.980899   2.695246   2.343913   3.343166   2.824590
    27  H    4.093916   4.077640   5.109709   4.366861   5.204314
                   11         12         13         14         15
    11  C    0.000000
    12  C    1.528771   0.000000
    13  C    2.517672   1.534055   0.000000
    14  H    3.470480   2.166387   1.101215   0.000000
    15  N    2.892678   2.402785   1.458800   2.103852   0.000000
    16  C    4.117428   3.617312   2.363167   2.650988   1.288475
    17  H    6.168006   5.486537   3.998316   3.800874   4.198089
    18  H    4.925321   4.518175   3.389327   3.575000   4.107232
    19  H    2.827723   3.346987   2.737950   3.731815   2.588938
    20  H    3.488458   3.939611   3.465142   4.296125   3.952096
    21  H    2.170583   3.481426   3.928904   4.977723   4.197929
    22  H    2.163076   2.837463   3.410197   4.241761   4.273333
    23  H    1.095605   2.143900   2.773413   3.771233   2.554385
    24  H    1.096721   2.161658   3.469535   4.302883   3.883398
    25  H    2.166234   1.095747   2.156731   2.485891   2.621284
    26  H    2.168973   1.098291   2.161040   2.471974   3.359231
    27  H    4.759171   4.427211   3.351479   3.650702   2.034425
                   16         17         18         19         20
    16  C    0.000000
    17  H    3.476679   0.000000
    18  H    4.038248   2.305920   0.000000
    19  H    3.019094   4.356269   3.274863   0.000000
    20  H    4.380990   4.466714   2.581632   1.771426   0.000000
    21  H    5.116157   6.535685   4.873360   2.481613   2.520333
    22  H    5.261339   6.117601   4.210412   3.068385   2.466284
    23  H    3.716111   6.261701   5.309617   2.682380   3.834637
    24  H    5.141820   7.217040   5.877071   3.837327   4.319790
    25  H    3.821964   6.100134   5.436899   4.163800   4.977297
    26  H    4.476227   5.766259   4.562045   4.012095   4.155505
    27  H    1.091592   4.212224   4.993687   3.622568   5.165296
                   21         22         23         24         25
    21  H    0.000000
    22  H    1.765671   0.000000
    23  H    2.463504   3.062678   0.000000
    24  H    2.529719   2.465008   1.766152   0.000000
    25  H    4.311040   3.834181   2.452994   2.505501   0.000000
    26  H    3.834946   2.686772   3.059259   2.485760   1.769568
    27  H    5.696517   6.092881   4.138071   5.729122   4.473683
                   26         27
    26  H    0.000000
    27  H    5.377006   0.000000
 Symmetry turned off by external request.
 Stoichiometry    C9H13N3O2
 Framework group  C1[X(C9H13N3O2)]
 Deg. of freedom    75
 Full point group                 C1      NOp   1
 Rotational constants (GHZ):           1.6875839           0.4216160           0.3721997
 Standard basis: 6-31G(d) (6D, 7F)
   236 basis functions,   444 primitive gaussians,   236 cartesian basis functions
    52 alpha electrons       52 beta electrons
       nuclear repulsion energy       932.1288703515 Hartrees.
 NAtoms=   27 NActive=   27 NUniq=   27 SFac= 1.00D+00 NAtFMM=   60 NAOKFM=F Big=F
 Integral buffers will be    131072 words long.
 Raffenetti 1 integral format.
 Two-electron integral symmetry is turned off.
 One-electron integrals computed using PRISM.
 NBasis=   236 RedAO= T EigKep=  1.01D-03  NBF=   236
 NBsUse=   236 1.00D-06 EigRej= -1.00D+00 NBFU=   236
 Initial guess from the checkpoint file:  "/home/alexey/tmp/Gau-1043003.chk"
 B after Tr=     0.055513    0.005620    0.000097
         Rot=    0.999999   -0.001034    0.000656    0.001175 Ang=  -0.19 deg.
 ExpMin= 1.61D-01 ExpMax= 5.48D+03 ExpMxC= 8.25D+02 IAcc=3 IRadAn=         5 AccDes= 0.00D+00
 Harris functional with IExCor=  205 and IRadAn=       5 diagonalized for initial guess.
 HarFok:  IExCor=  205 AccDes= 0.00D+00 IRadAn=         5 IDoV= 1 UseB2=F ITyADJ=14
 ICtDFT=  3500011 ScaDFX=  1.000000  1.000000  1.000000  1.000000
 FoFCou: FMM=F IPFlag=           0 FMFlag=      100000 FMFlg1=           0
         NFxFlg=           0 DoJE=T BraDBF=F KetDBF=T FulRan=T
         wScrn=  0.000000 ICntrl=       500 IOpCl=  0 I1Cent=   200000004 NGrid=           0
         NMat0=    1 NMatS0=      1 NMatT0=    0 NMatD0=    1 NMtDS0=    0 NMtDT0=    0
 Symmetry not used in FoFCou.
 Keep R1 ints in memory in canonical form, NReq=397720213.
 Requested convergence on RMS density matrix=1.00D-08 within 128 cycles.
 Requested convergence on MAX density matrix=1.00D-06.
 Requested convergence on             energy=1.00D-06.
 No special actions if energy rises.
 SCF Done:  E(RHF) =  -661.298239852     A.U. after   15 cycles
            NFock= 15  Conv=0.37D-08     -V/T= 2.0024
 ExpMin= 1.61D-01 ExpMax= 5.48D+03 ExpMxC= 8.25D+02 IAcc=3 IRadAn=         5 AccDes= 0.00D+00
 HarFok:  IExCor=  205 AccDes= 0.00D+00 IRadAn=         5 IDoV=-2 UseB2=F ITyADJ=14
 ICtDFT= 12500011 ScaDFX=  1.000000  1.000000  1.000000  1.000000
 Range of M.O.s used for correlation:    15   236
 NBasis=   236 NAE=    52 NBE=    52 NFC=    14 NFV=     0
 NROrb=    222 NOA=    38 NOB=    38 NVA=   184 NVB=   184
 Fully direct method using O(ONN) memory.
 JobTyp=1 Pass  1:  I=  15 to  52 NPSUse=  4 ParTrn=T ParDer=T DoDerP=T.
 Spin components of T(2) and E(2):
     alpha-alpha T2 =       0.9124380935D-01 E2=     -0.2723245643D+00
     alpha-beta  T2 =       0.4912716201D+00 E2=     -0.1488026721D+01
     beta-beta   T2 =       0.9124380935D-01 E2=     -0.2723245643D+00
 ANorm=    0.1293738474D+01
 E2 =    -0.2032675850D+01 EUMP2 =    -0.66333091570165D+03
          IDoAtm=111111111111111111111111111
          Differentiating once with respect to electric field.
                with respect to dipole field.
          Differentiating once with respect to nuclear coordinates.
 Keep R1 ints in memory in canonical form, NReq=397723379.
          There are     1 degrees of freedom in the 1st order CPHF.  IDoFFX=0 NUNeed=     1.
 LinEq1:  Iter=  0 NonCon=     1 RMS=4.57D-03 Max=1.05D-01 NDo=     1
 AX will form     1 AO Fock derivatives at one time.
 LinEq1:  Iter=  1 NonCon=     1 RMS=1.53D-03 Max=2.72D-02 NDo=     1
 LinEq1:  Iter=  2 NonCon=     1 RMS=6.41D-04 Max=1.77D-02 NDo=     1
 LinEq1:  Iter=  3 NonCon=     1 RMS=2.80D-04 Max=8.19D-03 NDo=     1
 LinEq1:  Iter=  4 NonCon=     1 RMS=8.71D-05 Max=1.94D-03 NDo=     1
 LinEq1:  Iter=  5 NonCon=     1 RMS=3.64D-05 Max=1.79D-03 NDo=     1
 LinEq1:  Iter=  6 NonCon=     1 RMS=1.41D-05 Max=5.34D-04 NDo=     1
 LinEq1:  Iter=  7 NonCon=     1 RMS=5.37D-06 Max=9.81D-05 NDo=     1
 LinEq1:  Iter=  8 NonCon=     1 RMS=2.14D-06 Max=5.26D-05 NDo=     1
 LinEq1:  Iter=  9 NonCon=     1 RMS=7.62D-07 Max=2.30D-05 NDo=     1
[...]
                   16         17         18         19         20
    16  C    0.000000
    17  H    3.463934   0.000000
    18  H    4.088373   2.235842   0.000000
    19  H    2.990795   4.303432   3.511787   0.000000
    20  H    4.375252   4.449323   2.881884   1.768539   0.000000
    21  H    5.096666   6.511299   5.086446   2.499208   2.521036
    22  H    5.248813   6.100590   4.313244   3.070235   2.461455
    23  H    3.695050   6.235062   5.421182   2.704223   3.842928
    24  H    5.133871   7.200917   5.936697   3.849640   4.317121
    25  H    3.821481   6.088332   5.369789   4.171517   4.985073
    26  H    4.495252   5.781321   4.485390   4.036048   4.182353
    27  H    1.089678   4.215426   5.079492   3.583700   5.148275
                   21         22         23         24         25
    21  H    0.000000
    22  H    1.758863   0.000000
    23  H    2.469448   3.062285   0.000000
    24  H    2.517341   2.459900   1.764581   0.000000
    25  H    4.311999   3.839541   2.444068   2.519675   0.000000
    26  H    3.846746   2.704428   3.060424   2.491713   1.767987
    27  H    5.653261   6.060672   4.090572   5.694838   4.454294
                   26         27
    26  H    0.000000
    27  H    5.378499   0.000000
 Symmetry turned off by external request.
 Stoichiometry    C9H13N3O2
 Framework group  C1[X(C9H13N3O2)]
 Deg. of freedom    75
 Full point group                 C1      NOp   1
 Rotational constants (GHZ):           1.6800426           0.4193457           0.3721400

 **********************************************************************

            Population analysis using the SCF Density.

 **********************************************************************

 Alpha  occ. eigenvalues --  -20.59237 -20.58904 -15.84722 -15.64136 -15.56111
 Alpha  occ. eigenvalues --  -11.35018 -11.29622 -11.29559 -11.28627 -11.27134
 Alpha  occ. eigenvalues --  -11.23728 -11.23208 -11.22692 -11.22089  -1.57116
 Alpha  occ. eigenvalues --   -1.36709  -1.30978  -1.23065  -1.14703  -1.09819
 Alpha  occ. eigenvalues --   -1.02805  -1.01307  -0.94482  -0.89685  -0.85566
 Alpha  occ. eigenvalues --   -0.82448  -0.78609  -0.77411  -0.75203  -0.72020
 Alpha  occ. eigenvalues --   -0.69771  -0.69438  -0.67820  -0.64892  -0.63777
 Alpha  occ. eigenvalues --   -0.62368  -0.60282  -0.57700  -0.57001  -0.55077
 Alpha  occ. eigenvalues --   -0.54582  -0.50762  -0.50108  -0.48656  -0.48102
 Alpha  occ. eigenvalues --   -0.47372  -0.46146  -0.46044  -0.43678  -0.41696
 Alpha  occ. eigenvalues --   -0.39847  -0.33829
 Alpha virt. eigenvalues --    0.07464   0.11799   0.17307   0.21848   0.24113
 Alpha virt. eigenvalues --    0.25665   0.27134   0.28694   0.29044   0.29635
 Alpha virt. eigenvalues --    0.30683   0.31797   0.32036   0.32767   0.33950
 Alpha virt. eigenvalues --    0.34386   0.35850   0.37312   0.38581   0.40292
 Alpha virt. eigenvalues --    0.41387   0.42443   0.45025   0.46117   0.46730
 Alpha virt. eigenvalues --    0.47077   0.49000   0.53996   0.57579   0.59405
 Alpha virt. eigenvalues --    0.63913   0.69543   0.69908   0.72861   0.74243
 Alpha virt. eigenvalues --    0.74867   0.75781   0.76677   0.78660   0.79442
 Alpha virt. eigenvalues --    0.81386   0.84692   0.85718   0.85806   0.88530
 Alpha virt. eigenvalues --    0.89423   0.91051   0.92112   0.92853   0.94527
 Alpha virt. eigenvalues --    0.95643   0.98040   0.99639   1.01675   1.02471
 Alpha virt. eigenvalues --    1.03152   1.05873   1.06969   1.07902   1.09014
 Alpha virt. eigenvalues --    1.10283   1.11422   1.11855   1.12443   1.13916
 Alpha virt. eigenvalues --    1.14766   1.14990   1.15832   1.16903   1.18726
 Alpha virt. eigenvalues --    1.19136   1.21338   1.22576   1.23915   1.24538
 Alpha virt. eigenvalues --    1.24827   1.26040   1.26911   1.27485   1.29558
 Alpha virt. eigenvalues --    1.30007   1.33127   1.36070   1.37182   1.40861
 Alpha virt. eigenvalues --    1.41854   1.46494   1.48742   1.51697   1.54292
 Alpha virt. eigenvalues --    1.56373   1.58781   1.59555   1.63465   1.65628
 Alpha virt. eigenvalues --    1.68031   1.68628   1.72991   1.75226   1.77368
 Alpha virt. eigenvalues --    1.81579   1.84599   1.87682   1.90654   1.93494
 Alpha virt. eigenvalues --    1.95814   1.96956   1.99718   2.01572   2.02522
 Alpha virt. eigenvalues --    2.05103   2.05606   2.08496   2.09560   2.12395
 Alpha virt. eigenvalues --    2.13265   2.15297   2.18824   2.20013   2.22451
 Alpha virt. eigenvalues --    2.22636   2.24491   2.25493   2.28215   2.29548
 Alpha virt. eigenvalues --    2.31995   2.33724   2.34701   2.36399   2.38466
 Alpha virt. eigenvalues --    2.40483   2.41928   2.43865   2.45136   2.47364
 Alpha virt. eigenvalues --    2.50720   2.51947   2.53114   2.55573   2.61505
 Alpha virt. eigenvalues --    2.62310   2.65193   2.67626   2.70318   2.70495
 Alpha virt. eigenvalues --    2.72271   2.72648   2.76984   2.78441   2.83804
 Alpha virt. eigenvalues --    2.88566   2.88949   2.92944   2.93136   2.96058
 Alpha virt. eigenvalues --    2.99439   3.01343   3.04314   3.05725   3.07677
 Alpha virt. eigenvalues --    3.09415   3.15048   3.21212   3.25217   3.27458
 Alpha virt. eigenvalues --    3.33447   3.37784   3.38785   3.52165   3.65800
 Alpha virt. eigenvalues --    4.13676   4.28073   4.34718   4.38920   4.46295
 Alpha virt. eigenvalues --    4.56308   4.61872   4.62353   4.73464   4.79739
 Alpha virt. eigenvalues --    4.99415   5.00898   5.05023   5.11166
          Condensed to atoms (all electrons):
               1          2          3          4          5          6
     1  O    8.316125   0.306954  -0.082539  -0.085467   0.004640  -0.000016
     2  N    0.306954   5.722369   0.301245   0.264168  -0.053642   0.000970
     3  O   -0.082539   0.301245   8.353627  -0.092654   0.003642   0.000784
     4  C   -0.085467   0.264168  -0.092654   5.225608   0.560334  -0.047278
     5  C    0.004640  -0.053642   0.003642   0.560334   4.709982   0.317421
     6  N   -0.000016   0.000970   0.000784  -0.047278   0.317421   7.195587
     7  C    0.000004  -0.000140   0.000002   0.004629  -0.030205   0.169266
     8  H   -0.000000   0.000002  -0.000000  -0.000261   0.003096  -0.050674
     9  C   -0.000000  -0.000004  -0.000000   0.000855   0.000626  -0.061658
    10  C    0.000000   0.000000   0.000000  -0.000038  -0.000052   0.003748
    11  C   -0.000000  -0.000000  -0.000000  -0.000028   0.000025  -0.000190
    12  C   -0.000000   0.000002  -0.000000  -0.000127  -0.000176   0.003873
    13  C   -0.000025  -0.000039  -0.000004  -0.011557  -0.000585  -0.047692
    14  H   -0.000004  -0.000105   0.000001   0.002645   0.006077  -0.006959
    15  N    0.000382   0.002363  -0.000016  -0.063526  -0.006397   0.001597
    16  C    0.000832  -0.027272   0.002547   0.328493  -0.050328  -0.001856
    17  H    0.000220  -0.007231   0.017390  -0.023149   0.374515  -0.034183
    18  H    0.000001  -0.000050   0.000012   0.001506  -0.031445   0.338679
    19  H    0.000001  -0.000004   0.000000  -0.001226   0.001233  -0.000352
    20  H    0.000000  -0.000000   0.000000  -0.000079   0.000153  -0.000429
    21  H   -0.000000   0.000000   0.000000   0.000001   0.000001  -0.000077
    22  H   -0.000000   0.000000  -0.000000  -0.000000  -0.000003  -0.000117
    23  H    0.000000  -0.000000   0.000000   0.000041  -0.000000  -0.000031
    24  H    0.000000   0.000000   0.000000   0.000000  -0.000000   0.000006
    25  H    0.000000  -0.000000   0.000000   0.000024   0.000000  -0.000090
    26  H    0.000000  -0.000000   0.000000   0.000006  -0.000002  -0.000060
    27  H    0.006130  -0.000881   0.000018  -0.063391   0.002214   0.000017
               7          8          9         10         11         12
     1  O    0.000004  -0.000000  -0.000000   0.000000  -0.000000  -0.000000
     2  N   -0.000140   0.000002  -0.000004   0.000000  -0.000000   0.000002
     3  O    0.000002  -0.000000  -0.000000   0.000000  -0.000000  -0.000000
     4  C    0.004629  -0.000261   0.000855  -0.000038  -0.000028  -0.000127
     5  C   -0.030205   0.003096   0.000626  -0.000052   0.000025  -0.000176
     6  N    0.169266  -0.050674  -0.061658   0.003748  -0.000190   0.003873
     7  C    5.017571   0.418413   0.350532  -0.054672  -0.009029  -0.061068
     8  H    0.418413   0.538089  -0.055044   0.000777  -0.000325  -0.002230
     9  C    0.350532  -0.055044   5.158236   0.324775  -0.050414  -0.005342
    10  C   -0.054672   0.000777   0.324775   5.119308   0.337001  -0.060990
    11  C   -0.009029  -0.000325  -0.050414   0.337001   5.119924   0.335973
    12  C   -0.061068  -0.002230  -0.005342  -0.060990   0.335973   5.118625
    13  C    0.338598  -0.037935  -0.060240  -0.000285  -0.050691   0.371991
    14  H   -0.046594  -0.000745   0.004422  -0.000405   0.004195  -0.036322
    15  N   -0.057959   0.003900  -0.014616   0.001561  -0.013054  -0.082060
    16  C   -0.001775   0.000009  -0.001271  -0.000029   0.000029   0.002608
    17  H    0.001616  -0.000045  -0.000070   0.000001   0.000000   0.000000
    18  H   -0.021215  -0.004473   0.001327  -0.000083   0.000004  -0.000114
    19  H   -0.036858   0.004362   0.390222  -0.032069  -0.002212   0.000689
    20  H   -0.042415  -0.002077   0.399487  -0.035301   0.003931  -0.000415
    21  H    0.004599  -0.000076  -0.036356   0.402433  -0.034895   0.004349
    22  H   -0.004848   0.003559  -0.046955   0.397752  -0.045403  -0.001021
    23  H    0.000577   0.000035  -0.001958  -0.039019   0.399178  -0.037866
    24  H   -0.000130  -0.000102   0.004388  -0.038437   0.402340  -0.038691
    25  H    0.005151  -0.000025  -0.000423   0.004190  -0.033400   0.398273
    26  H   -0.003905   0.001685   0.000969  -0.002232  -0.041481   0.396728
    27  H   -0.000407   0.000009  -0.000058   0.000007   0.000012  -0.000036
              13         14         15         16         17         18
     1  O   -0.000025  -0.000004   0.000382   0.000832   0.000220   0.000001
     2  N   -0.000039  -0.000105   0.002363  -0.027272  -0.007231  -0.000050
     3  O   -0.000004   0.000001  -0.000016   0.002547   0.017390   0.000012
     4  C   -0.011557   0.002645  -0.063526   0.328493  -0.023149   0.001506
     5  C   -0.000585   0.006077  -0.006397  -0.050328   0.374515  -0.031445
     6  N   -0.047692  -0.006959   0.001597  -0.001856  -0.034183   0.338679
     7  C    0.338598  -0.046594  -0.057959  -0.001775   0.001616  -0.021215
     8  H   -0.037935  -0.000745   0.003900   0.000009  -0.000045  -0.004473
     9  C   -0.060240   0.004422  -0.014616  -0.001271  -0.000070   0.001327
    10  C   -0.000285  -0.000405   0.001561  -0.000029   0.000001  -0.000083
    11  C   -0.050691   0.004195  -0.013054   0.000029   0.000000   0.000004
    12  C    0.371991  -0.036322  -0.082060   0.002608   0.000000  -0.000114
    13  C    5.040232   0.403080   0.244784  -0.071085  -0.000008   0.002971
    14  H    0.403080   0.526774  -0.037367  -0.004542   0.000093  -0.000108
    15  N    0.244784  -0.037367   6.965127   0.585189  -0.000080  -0.000132
    16  C   -0.071085  -0.004542   0.585189   4.709969   0.002013  -0.000197
    17  H   -0.000008   0.000093  -0.000080   0.002013   0.376499  -0.002817
    18  H    0.002971  -0.000108  -0.000132  -0.000197  -0.002817   0.310598
    19  H   -0.007548   0.000106   0.007696   0.003002   0.000016  -0.000149
    20  H    0.004340  -0.000066   0.000126  -0.000036   0.000002   0.000807
    21  H   -0.000433   0.000010  -0.000041   0.000004  -0.000000   0.000001
    22  H    0.000045  -0.000055   0.000019  -0.000002   0.000000   0.000001
    23  H   -0.007523   0.000003   0.008590   0.000106   0.000000   0.000000
    24  H    0.004700  -0.000057   0.000135   0.000007   0.000000  -0.000000
    25  H   -0.035561  -0.002817   0.000409  -0.000022  -0.000000   0.000002
    26  H   -0.047409  -0.001046   0.004899  -0.000061   0.000000  -0.000000
    27  H    0.005059  -0.000174  -0.040315   0.403665  -0.000079   0.000001
              19         20         21         22         23         24
     1  O    0.000001   0.000000  -0.000000  -0.000000   0.000000   0.000000
     2  N   -0.000004  -0.000000   0.000000   0.000000  -0.000000   0.000000
     3  O    0.000000   0.000000   0.000000  -0.000000   0.000000   0.000000
     4  C   -0.001226  -0.000079   0.000001  -0.000000   0.000041   0.000000
     5  C    0.001233   0.000153   0.000001  -0.000003  -0.000000  -0.000000
     6  N   -0.000352  -0.000429  -0.000077  -0.000117  -0.000031   0.000006
     7  C   -0.036858  -0.042415   0.004599  -0.004848   0.000577  -0.000130
     8  H    0.004362  -0.002077  -0.000076   0.003559   0.000035  -0.000102
     9  C    0.390222   0.399487  -0.036356  -0.046955  -0.001958   0.004388
    10  C   -0.032069  -0.035301   0.402433   0.397752  -0.039019  -0.038437
    11  C   -0.002212   0.003931  -0.034895  -0.045403   0.399178   0.402340
    12  C    0.000689  -0.000415   0.004349  -0.001021  -0.037866  -0.038691
    13  C   -0.007548   0.004340  -0.000433   0.000045  -0.007523   0.004700
    14  H    0.000106  -0.000066   0.000010  -0.000055   0.000003  -0.000057
    15  N    0.007696   0.000126  -0.000041   0.000019   0.008590   0.000135
    16  C    0.003002  -0.000036   0.000004  -0.000002   0.000106   0.000007
    17  H    0.000016   0.000002  -0.000000   0.000000   0.000000   0.000000
    18  H   -0.000149   0.000807   0.000001   0.000001   0.000000  -0.000000
    19  H    0.504950  -0.024738  -0.002787   0.003959   0.001514  -0.000066
    20  H   -0.024738   0.541158  -0.002692  -0.002990  -0.000045  -0.000083
    21  H   -0.002787  -0.002692   0.524025  -0.027403  -0.002898  -0.002242
    22  H    0.003959  -0.002990  -0.027403   0.571321   0.004137  -0.003656
    23  H    0.001514  -0.000045  -0.002898   0.004137   0.498962  -0.025450
    24  H   -0.000066  -0.000083  -0.002242  -0.003656  -0.025450   0.538125
    25  H   -0.000029   0.000012  -0.000087  -0.000080  -0.002318  -0.002291
    26  H    0.000019  -0.000030  -0.000081   0.002380   0.004067  -0.003035
    27  H    0.000083   0.000000  -0.000000   0.000000  -0.000035  -0.000000
              25         26         27
     1  O    0.000000   0.000000   0.006130
     2  N   -0.000000  -0.000000  -0.000881
     3  O    0.000000   0.000000   0.000018
     4  C    0.000024   0.000006  -0.063391
     5  C    0.000000  -0.000002   0.002214
     6  N   -0.000090  -0.000060   0.000017
     7  C    0.005151  -0.003905  -0.000407
     8  H   -0.000025   0.001685   0.000009
     9  C   -0.000423   0.000969  -0.000058
    10  C    0.004190  -0.002232   0.000007
    11  C   -0.033400  -0.041481   0.000012
    12  C    0.398273   0.396728  -0.000036
    13  C   -0.035561  -0.047409   0.005059
    14  H   -0.002817  -0.001046  -0.000174
    15  N    0.000409   0.004899  -0.040315
    16  C   -0.000022  -0.000061   0.403665
    17  H   -0.000000   0.000000  -0.000079
    18  H    0.000002  -0.000000   0.000001
    19  H   -0.000029   0.000019   0.000083
    20  H    0.000012  -0.000030   0.000000
    21  H   -0.000087  -0.000081  -0.000000
    22  H   -0.000080   0.002380   0.000000
    23  H   -0.002318   0.004067  -0.000035
    24  H   -0.002291  -0.003035  -0.000000
    25  H    0.506111  -0.024081  -0.000013
    26  H   -0.024081   0.562322   0.000001
    27  H   -0.000013   0.000001   0.439252
 Mulliken charges:
               1
     1  O   -0.467238
     2  N    0.491297
     3  O   -0.504056
     4  C    0.000470
     5  C    0.188878
     6  N   -0.780287
     7  C    0.060262
     8  H    0.180076
     9  C   -0.301429
    10  C   -0.327940
    11  C   -0.321489
    12  C   -0.306654
    13  C   -0.037181
    14  H    0.189957
    15  N   -0.511216
    16  C    0.120002
    17  H    0.295297
    18  H    0.404873
    19  H    0.190186
    20  H    0.161380
    21  H    0.174647
    22  H    0.149361
    23  H    0.199935
    24  H    0.164540
    25  H    0.187062
    26  H    0.150347
    27  H    0.248922
 Sum of Mulliken charges =  -0.00000
 Mulliken charges with hydrogens summed into heavy atoms:
               1
     1  O   -0.467238
     2  N    0.491297
     3  O   -0.504056
     4  C    0.000470
     5  C    0.484174
     6  N   -0.375414
     7  C    0.240338
     9  C    0.050137
    10  C   -0.003932
    11  C    0.042986
    12  C    0.030755
    13  C    0.152776
    15  N   -0.511216
    16  C    0.368924
 Electronic spatial extent (au):  <R**2>=           3005.3419
 Charge=             -0.0000 electrons
 Dipole moment (field-independent basis, Debye):
    X=              5.4157    Y=              4.7961    Z=              1.2813  Tot=              7.3467
 Quadrupole moment (field-independent basis, Debye-Ang):
   XX=           -106.1396   YY=            -79.2243   ZZ=            -81.5016
   XY=             -1.7660   XZ=             -0.1322   YZ=              1.8555
 Traceless Quadrupole moment (field-independent basis, Debye-Ang):
   XX=            -17.1844   YY=              9.7309   ZZ=              7.4535
   XY=             -1.7660   XZ=             -0.1322   YZ=              1.8555
 Octapole moment (field-independent basis, Debye-Ang**2):
  XXX=             92.3959  YYY=             36.2783  ZZZ=             -1.4798  XYY=             -4.5793
  XXY=              9.5302  XXZ=              4.9290  XZZ=             -9.7599  YZZ=             -0.3929
  YYZ=              7.9985  XYZ=              0.2527
 Hexadecapole moment (field-independent basis, Debye-Ang**3):
 XXXX=          -3382.0451 YYYY=           -601.0573 ZZZZ=           -303.7993 XXXY=            -20.8967
 XXXZ=            -13.5093 YYYX=             -8.9593 YYYZ=             24.9977 ZZZX=              1.8509
 ZZZY=              7.0774 XXYY=           -627.7642 XXZZ=           -523.8008 YYZZ=           -157.3266
 XXYZ=             -4.2927 YYXZ=              1.6769 ZZXY=              4.6928
 N-N= 9.312351038199D+02 E-N=-3.409186636947D+03  KE= 6.596288927591D+02
 Unable to Open any file for archive entry.
 1\1\GINC-LOTUS\FOpt\RMP2-FC\6-31G(d)\C9H13N3O2\ALEXEY\30-Jun-2023\0\\#
 MP2/6-31G* SCF=Tight Opt=(ModRedun, MaxCycle=20 ) NoSymm\\MolName:\\0,
 1\O,-3.5067158747,-1.3904074811,-0.371118859\N,-3.1210847805,-0.232277
 1754,-0.1185154942\O,-3.8954365523,0.7286794075,0.0557030678\C,-1.6866
 369075,-0.0237533955,-0.0097495087\C,-1.3014015006,1.2607040537,0.2752
 73835\N,-0.0571618654,1.7502081263,0.386353742\C,1.2056370628,1.024003
 8576,0.3593269778\H,1.8533790409,1.5528867273,1.0747812098\C,1.9091564
 178,1.0351275696,-0.9964851034\C,3.3075183161,0.42843299,-0.8324198747
 \C,3.2594821875,-0.9676930605,-0.2058891954\C,2.4644664986,-0.97834255
 39,1.1015573517\C,1.0547571084,-0.424612543,0.8650985029\H,0.478199348
 3,-0.4032990837,1.8035086269\N,0.4082297746,-1.3179169481,-0.091168029
 6\C,-0.8391052277,-1.1380737021,-0.3865656274\H,-2.0961615559,1.987611
 9951,0.4188758326\H,0.0017346177,2.7353831154,0.6154908552\H,1.3149005
 858,0.4577049346,-1.7126891589\H,1.9751659747,2.0630691111,-1.37418630
 13\H,3.8114967639,0.3903582984,-1.804943591\H,3.9073114177,1.094703045
 2,-0.1961192893\H,2.7817914451,-1.664434188,-0.9017777334\H,4.27863618
 63,-1.3312424306,-0.0287458393\H,2.3789992887,-2.0002866114,1.48536112
 3\H,2.9744250227,-0.3805384523,1.869629439\H,-1.300602793,-1.892995606
 2,-1.022576958\\Version=ES64L-G16RevC.02\HF=-661.3003602\MP2=-663.3346
 494\RMSD=7.317e-09\RMSF=8.764e-06\Dipole=1.9791837,1.6918714,0.4712563
 \PG=C01 [X(C9H13N3O2)]\\@
 The archive entry for this job was punched.


 Ideas are like rabbits. You get a couple and learn
 how to handle them, and pretty soon you have a dozen.
                                    -- John Steinbeck
 Job cpu time:       0 days  1 hours 20 minutes 24.7 seconds.
 Elapsed time:       0 days  0 hours 24 minutes 11.5 seconds.
 File lengths (MBytes):  RWF=     36 Int=      0 D2E=      0 Chk=      7 Scr=      1
 Normal termination of Gaussian 16 at Fri Jun 30 00:31:46 2023.
