 Entering Gaussian System, Link 0=g16
 Initial command:
 /home/alexey/programs//g16/l1.exe "/home/alexey/tmp/Gau-1045629.inp" -scrdir="/home/alexey/tmp/"
 Entering Link 1 = /home/alexey/programs//g16/l1.exe PID=   1045631.
  
 Copyright (c) 1988-2021, Gaussian, Inc.  All Rights Reserved.
  
 This is part of the Gaussian(R) 16 program.  It is based on
 the Gaussian(R) 09 system (copyright 2009, Gaussian, Inc.),
 the Gaussian(R) 03 system (copyright 2003, Gaussian, Inc.),
 the Gaussian(R) 98 system (copyright 1998, Gaussian, Inc.),
 the Gaussian(R) 94 system (copyright 1995, Gaussian, Inc.),
 the Gaussian 92(TM) system (copyright 1992, Gaussian, Inc.),
 the Gaussian 90(TM) system (copyright 1990, Gaussian, Inc.),
 the Gaussian 88(TM) system (copyright 1988, Gaussian, Inc.),
 the Gaussian 86(TM) system (copyright 1986, Carnegie Mellon
 University), and the Gaussian 82(TM) system (copyright 1983,
 Carnegie Mellon University). Gaussian is a federally registered
 trademark of Gaussian, Inc.
  
 This software contains proprietary and confidential information,
 including trade secrets, belonging to Gaussian, Inc.
  
 This software is provided under written license and may be
 used, copied, transmitted, or stored only in accord with that
 written license.
  
 The following legend is applicable only to US Government
 contracts under FAR:
  
                    RESTRICTED RIGHTS LEGEND
  
 Use, reproduction and disclosure by the US Government is
 subject to restrictions as set forth in subparagraphs (a)
 and (c) of the Commercial Computer Software - Restricted
 Rights clause in FAR 52.227-19.
  
 Gaussian, Inc.
 340 Quinnipiac St., Bldg. 40, Wallingford CT 06492
  
  
 ---------------------------------------------------------------
 Warning -- This program may not be used in any manner that
 competes with the business of Gaussian, Inc. or will provide
 assistance to any competitor of Gaussian, Inc.  The licensee
 of this program is prohibited from giving any competitor of
 Gaussian, Inc. access to this program.  By using this program,
 the user acknowledges that Gaussian, Inc. is engaged in the
 business of creating and licensing software in the field of
 computational chemistry and represents and warrants to the
 licensee that it is not a competitor of Gaussian, Inc. and that
 it will not use this program in any manner prohibited above.
 ---------------------------------------------------------------
  

 Cite this work as:
 Gaussian 16, Revision C.02,
 M. J. Frisch, G. W. Trucks, H. B. Schlegel, G. E. Scuseria, 
 M. A. Robb, J. R. Cheeseman, G. Scalmani, V. Barone, 
 G. A. Petersson, H. Nakatsuji, X. Li, M. Caricato, A. V. Marenich, 
 J. Bloino, B. G. Janesko, R. Gomperts, B. Mennucci, H. P. Hratchian, 
 J. V. Ortiz, A. F. Izmaylov, J. L. Sonnenberg, D. Williams-Young, 
 F. Ding, F. Lipparini, F. Egidi, J. Goings, B. Peng, A. Petrone, 
 T. Henderson, D. Ranasinghe, V. G. Zakrzewski, J. Gao, N. Rega, 
 G. Zheng, W. Liang, M. Hada, M. Ehara, K. Toyota, R. Fukuda, 
 J. Hasegawa, M. Ishida, T. Nakajima, Y. Honda, O. Kitao, H. Nakai, 
 T. Vreven, K. Throssell, J. A. Montgomery, Jr., J. E. Peralta, 
 F. Ogliaro, M. J. Bearpark, J. J. Heyd, E. N. Brothers, K. N. Kudin, 
 V. N. Staroverov, T. A. Keith, R. Kobayashi, J. Normand, 
 K. Raghavachari, A. P. Rendell, J. C. Burant, S. S. Iyengar, 
 J. Tomasi, M. Cossi, J. M. Millam, M. Klene, C. Adamo, R. Cammi, 
 J. W. Ochterski, R. L. Martin, K. Morokuma, O. Farkas, 
 J. B. Foresman, and D. J. Fox, Gaussian, Inc., Wallingford CT, 2019.
 
 ******************************************
 Gaussian 16:  ES64L-G16RevC.02  7-Dec-2021
                30-Jun-2023 
 ******************************************
 %mem=8GB
 %NPROCS=4
 Will use up to    4 processors via shared memory.
 %NoSave
 ---------------------------------------------------------
 #MP2/6-31G* SCF=Tight Opt=(ModRedun, MaxCycle=20 ) NoSymm
 ---------------------------------------------------------
 1/6=20,18=120,19=15,38=1/1,3;
 2/9=110,12=2,15=1,17=6,18=5,40=1/2;
 3/5=1,6=6,7=1,11=9,25=1,30=1,71=1/1,2,3;
 4//1;
 5/5=2,32=2,38=5/2;
 8/6=4,10=2/1;
 9/15=2,16=-3/6;
 10/5=1,31=1/2;
 6/7=2,8=2,9=2,10=2/1;
 7/12=2,30=1/1,2,3,16;
 1/6=20,18=20,19=15/3(2);
 2/9=110,15=1/2;
 99//99;
 2/9=110,15=1/2;
 3/5=1,6=6,7=1,11=9,25=1,30=1,71=1/1,2,3;
 4/5=5,16=3,69=1/1;
 5/5=2,32=2,38=5/2;
 8/6=4,10=2/1;
 9/15=2,16=-3/6;
 10/5=1,31=1/2;
 7/12=2,30=1/1,2,3,16;
 1/6=20,18=20,19=15/3(-8);
 2/9=110,15=1/2;
 6/7=2,8=2,9=2,10=2/1;
 99/9=10/99;
 --------
 MolName:
 --------
 Symbolic Z-matrix:
 Charge =  0 Multiplicity = 1
 8                    0    -3.6159   -1.44919  -0.15575 
 7                    0    -3.25723  -0.28015  -0.02494 
 8                    0    -4.03772   0.6645    0.09862 
 6                    0    -1.75746   0.00723  -0.04232 
 6                    0    -1.36958   1.31402   0.27501 
 7                    0    -0.08133   1.76842   0.39043 
 6                    0     1.19749   0.99523   0.36158 
 1                    0     1.86019   1.49086   1.11781 
 6                    0     1.9645    1.04946  -0.98324 
 6                    0     3.3757    0.46138  -0.79282 
 6                    0     3.31149  -0.95616  -0.20247 
 6                    0     2.46074  -0.99264   1.08546 
 6                    0     1.02471  -0.45488   0.83771 
 1                    0     0.47431  -0.49597   1.80686 
 7                    0     0.36966  -1.32122  -0.14514 
 6                    0    -0.87115  -1.11661  -0.44416 
 1                    0    -2.15719   2.05244   0.49922 
 1                    0     0.15097   2.75073   0.22491 
 1                    0     1.41604   0.47543  -1.76011 
 1                    0     2.05236   2.10035  -1.33191 
 1                    0     3.91221   0.43965  -1.7666 
 1                    0     3.95202   1.11282  -0.09847 
 1                    0     2.86506  -1.643    -0.95661 
 1                    0     4.33873  -1.3215    0.01549 
 1                    0     2.40072  -2.03994   1.45465 
 1                    0     2.95398  -0.38418   1.87222 
 1                    0    -1.3733   -1.8631   -1.07842 
 
 The following ModRedundant input section has been read:
 D       1       2       4      16 F                                           
 D       7      13      15      16 F                                           
 D       7       9      10      11 F                                           
 D       9      10      11      12 F                                           
 D       6       7      13      15 F                                           
 

 GradGradGradGradGradGradGradGradGradGradGradGradGradGradGradGradGradGrad
 Berny optimization.
 Initialization pass.
                           ----------------------------
                           !    Initial Parameters    !
                           ! (Angstroms and Degrees)  !
 --------------------------                            --------------------------
 ! Name  Definition              Value          Derivative Info.                !
 --------------------------------------------------------------------------------
 ! R1    R(1,2)                  1.2298         estimate D2E/DX2                !
 ! R2    R(2,3)                  1.2316         estimate D2E/DX2                !
 ! R3    R(2,4)                  1.5272         estimate D2E/DX2                !
 ! R4    R(4,5)                  1.3996         estimate D2E/DX2                !
 ! R5    R(4,16)                 1.4866         estimate D2E/DX2                !
 ! R6    R(5,6)                  1.3709         estimate D2E/DX2                !
 ! R7    R(5,17)                 1.1027         estimate D2E/DX2                !
 ! R8    R(6,7)                  1.4947         estimate D2E/DX2                !
 ! R9    R(6,18)                 1.0229         estimate D2E/DX2                !
 ! R10   R(7,8)                  1.121          estimate D2E/DX2                !
 ! R11   R(7,9)                  1.5491         estimate D2E/DX2                !
 ! R12   R(7,13)                 1.536          estimate D2E/DX2                !
 ! R13   R(9,10)                 1.5406         estimate D2E/DX2                !
 ! R14   R(9,19)                 1.1108         estimate D2E/DX2                !
 ! R15   R(9,20)                 1.1107         estimate D2E/DX2                !
 ! R16   R(10,11)                1.5369         estimate D2E/DX2                !
 ! R17   R(10,21)                1.112          estimate D2E/DX2                !
 ! R18   R(10,22)                1.1129         estimate D2E/DX2                !
 ! R19   R(11,12)                1.544          estimate D2E/DX2                !
 ! R20   R(11,23)                1.1135         estimate D2E/DX2                !
 ! R21   R(11,24)                1.1118         estimate D2E/DX2                !
 ! R22   R(12,13)                1.5533         estimate D2E/DX2                !
 ! R23   R(12,25)                1.1121         estimate D2E/DX2                !
 ! R24   R(12,26)                1.1102         estimate D2E/DX2                !
 ! R25   R(13,14)                1.1153         estimate D2E/DX2                !
 ! R26   R(13,15)                1.4648         estimate D2E/DX2                !
 ! R27   R(15,16)                1.2926         estimate D2E/DX2                !
 ! R28   R(16,27)                1.1008         estimate D2E/DX2                !
 ! A1    A(1,2,3)              123.7086         estimate D2E/DX2                !
 ! A2    A(1,2,4)              117.6514         estimate D2E/DX2                !
 ! A3    A(3,2,4)              118.6312         estimate D2E/DX2                !
 ! A4    A(2,4,5)              116.442          estimate D2E/DX2                !
 ! A5    A(2,4,16)             116.5077         estimate D2E/DX2                !
 ! A6    A(5,4,16)             127.0064         estimate D2E/DX2                !
 ! A7    A(4,5,6)              126.086          estimate D2E/DX2                !
 ! A8    A(4,5,17)             118.2563         estimate D2E/DX2                !
 ! A9    A(6,5,17)             115.6025         estimate D2E/DX2                !
 ! A10   A(5,6,7)              129.1174         estimate D2E/DX2                !
 ! A11   A(5,6,18)             121.2047         estimate D2E/DX2                !
 ! A12   A(7,6,18)             107.4185         estimate D2E/DX2                !
 ! A13   A(6,7,8)              105.3108         estimate D2E/DX2                !
 ! A14   A(6,7,9)              114.978          estimate D2E/DX2                !
 ! A15   A(6,7,13)             112.7146         estimate D2E/DX2                !
 ! A16   A(8,7,9)              106.1079         estimate D2E/DX2                !
 ! A17   A(8,7,13)             105.9491         estimate D2E/DX2                !
 ! A18   A(9,7,13)             110.9675         estimate D2E/DX2                !
 ! A19   A(7,9,10)             109.4428         estimate D2E/DX2                !
 ! A20   A(7,9,19)             110.1566         estimate D2E/DX2                !
 ! A21   A(7,9,20)             110.1699         estimate D2E/DX2                !
 ! A22   A(10,9,19)            109.9656         estimate D2E/DX2                !
 ! A23   A(10,9,20)            109.117          estimate D2E/DX2                !
 ! A24   A(19,9,20)            107.9662         estimate D2E/DX2                !
 ! A25   A(9,10,11)            111.1784         estimate D2E/DX2                !
 ! A26   A(9,10,21)            109.9474         estimate D2E/DX2                !
 ! A27   A(9,10,22)            109.1481         estimate D2E/DX2                !
 ! A28   A(11,10,21)           109.7857         estimate D2E/DX2                !
 ! A29   A(11,10,22)           108.7756         estimate D2E/DX2                !
 ! A30   A(21,10,22)           107.9347         estimate D2E/DX2                !
 ! A31   A(10,11,12)           111.4217         estimate D2E/DX2                !
 ! A32   A(10,11,23)           108.9982         estimate D2E/DX2                !
 ! A33   A(10,11,24)           109.8629         estimate D2E/DX2                !
 ! A34   A(12,11,23)           109.2372         estimate D2E/DX2                !
 ! A35   A(12,11,24)           109.7425         estimate D2E/DX2                !
 ! A36   A(23,11,24)           107.4885         estimate D2E/DX2                !
 ! A37   A(11,12,13)           111.6036         estimate D2E/DX2                !
 ! A38   A(11,12,25)           109.2029         estimate D2E/DX2                !
 ! A39   A(11,12,26)           109.475          estimate D2E/DX2                !
 ! A40   A(13,12,25)           109.2135         estimate D2E/DX2                !
 ! A41   A(13,12,26)           109.5137         estimate D2E/DX2                !
 ! A42   A(25,12,26)           107.7495         estimate D2E/DX2                !
 ! A43   A(7,13,12)            105.8005         estimate D2E/DX2                !
 ! A44   A(7,13,14)            111.0788         estimate D2E/DX2                !
 ! A45   A(7,13,15)            113.6204         estimate D2E/DX2                !
 ! A46   A(12,13,14)           107.7515         estimate D2E/DX2                !
 ! A47   A(12,13,15)           108.4027         estimate D2E/DX2                !
 ! A48   A(14,13,15)           109.912          estimate D2E/DX2                !
 ! A49   A(13,15,16)           119.3975         estimate D2E/DX2                !
 ! A50   A(4,16,15)            129.0077         estimate D2E/DX2                !
 ! A51   A(4,16,27)            113.3559         estimate D2E/DX2                !
 ! A52   A(15,16,27)           117.6352         estimate D2E/DX2                !
 ! D1    D(1,2,4,5)           -172.2369         estimate D2E/DX2                !
 ! D2    D(1,2,4,16)            10.0001         Frozen                          !
 ! D3    D(3,2,4,5)              8.7991         estimate D2E/DX2                !
 ! D4    D(3,2,4,16)          -168.964          estimate D2E/DX2                !
 ! D5    D(2,4,5,6)            176.1934         estimate D2E/DX2                !
 ! D6    D(2,4,5,17)            -0.9768         estimate D2E/DX2                !
 ! D7    D(16,4,5,6)            -6.3135         estimate D2E/DX2                !
 ! D8    D(16,4,5,17)          176.5163         estimate D2E/DX2                !
 ! D9    D(2,4,16,15)         -154.8319         estimate D2E/DX2                !
 ! D10   D(2,4,16,27)           24.764          estimate D2E/DX2                !
 ! D11   D(5,4,16,15)           27.6764         estimate D2E/DX2                !
 ! D12   D(5,4,16,27)         -152.7277         estimate D2E/DX2                !
 ! D13   D(4,5,6,7)             -7.3328         estimate D2E/DX2                !
 ! D14   D(4,5,6,18)           153.3441         estimate D2E/DX2                !
 ! D15   D(17,5,6,7)           169.9033         estimate D2E/DX2                !
 ! D16   D(17,5,6,18)          -29.4198         estimate D2E/DX2                !
 ! D17   D(5,6,7,8)           -142.3211         estimate D2E/DX2                !
 ! D18   D(5,6,7,9)            101.2638         estimate D2E/DX2                !
 ! D19   D(5,6,7,13)           -27.2685         estimate D2E/DX2                !
 ! D20   D(18,6,7,8)            54.9338         estimate D2E/DX2                !
 ! D21   D(18,6,7,9)           -61.4813         estimate D2E/DX2                !
 ! D22   D(18,6,7,13)          169.9865         estimate D2E/DX2                !
 ! D23   D(6,7,9,10)           168.7025         estimate D2E/DX2                !
 ! D24   D(6,7,9,19)           -70.2798         estimate D2E/DX2                !
 ! D25   D(6,7,9,20)            48.725          estimate D2E/DX2                !
 ! D26   D(8,7,9,10)            52.7433         estimate D2E/DX2                !
 ! D27   D(8,7,9,19)           173.761          estimate D2E/DX2                !
 ! D28   D(8,7,9,20)           -67.2342         estimate D2E/DX2                !
 ! D29   D(13,7,9,10)          -61.8994         estimate D2E/DX2                !
 ! D30   D(13,7,9,19)           59.1183         estimate D2E/DX2                !
 ! D31   D(13,7,9,20)          178.1231         estimate D2E/DX2                !
 ! D32   D(6,7,13,12)         -166.1722         estimate D2E/DX2                !
 ! D33   D(6,7,13,14)          -49.5146         estimate D2E/DX2                !
 ! D34   D(6,7,13,15)           75.0221         Frozen                          !
 ! D35   D(8,7,13,12)          -51.5049         estimate D2E/DX2                !
 ! D36   D(8,7,13,14)           65.1527         estimate D2E/DX2                !
 ! D37   D(8,7,13,15)         -170.3107         estimate D2E/DX2                !
 ! D38   D(9,7,13,12)           63.237          estimate D2E/DX2                !
 ! D39   D(9,7,13,14)          179.8946         estimate D2E/DX2                !
 ! D40   D(9,7,13,15)          -55.5687         estimate D2E/DX2                !
 ! D41   D(7,9,10,11)           54.8128         Frozen                          !
 ! D42   D(7,9,10,21)          176.6027         estimate D2E/DX2                !
 ! D43   D(7,9,10,22)          -65.1818         estimate D2E/DX2                !
 ! D44   D(19,9,10,11)         -66.3206         estimate D2E/DX2                !
 ! D45   D(19,9,10,21)          55.4693         estimate D2E/DX2                !
 ! D46   D(19,9,10,22)         173.6848         estimate D2E/DX2                !
 ! D47   D(20,9,10,11)         175.4335         estimate D2E/DX2                !
 ! D48   D(20,9,10,21)         -62.7766         estimate D2E/DX2                !
 ! D49   D(20,9,10,22)          55.4389         estimate D2E/DX2                !
 ! D50   D(9,10,11,12)         -52.8227         Frozen                          !
 ! D51   D(9,10,11,23)          67.801          estimate D2E/DX2                !
 ! D52   D(9,10,11,24)        -174.6627         estimate D2E/DX2                !
 ! D53   D(21,10,11,12)       -174.7067         estimate D2E/DX2                !
 ! D54   D(21,10,11,23)        -54.083          estimate D2E/DX2                !
 ! D55   D(21,10,11,24)         63.4533         estimate D2E/DX2                !
 ! D56   D(22,10,11,12)         67.3927         estimate D2E/DX2                !
 ! D57   D(22,10,11,23)       -171.9837         estimate D2E/DX2                !
 ! D58   D(22,10,11,24)        -54.4474         estimate D2E/DX2                !
 ! D59   D(10,11,12,13)         56.6019         estimate D2E/DX2                !
 ! D60   D(10,11,12,25)        177.4478         estimate D2E/DX2                !
 ! D61   D(10,11,12,26)        -64.8048         estimate D2E/DX2                !
 ! D62   D(23,11,12,13)        -63.8815         estimate D2E/DX2                !
 ! D63   D(23,11,12,25)         56.9645         estimate D2E/DX2                !
 ! D64   D(23,11,12,26)        174.7118         estimate D2E/DX2                !
 ! D65   D(24,11,12,13)        178.5116         estimate D2E/DX2                !
 ! D66   D(24,11,12,25)        -60.6424         estimate D2E/DX2                !
 ! D67   D(24,11,12,26)         57.1049         estimate D2E/DX2                !
 ! D68   D(11,12,13,7)         -60.3104         estimate D2E/DX2                !
 ! D69   D(11,12,13,14)       -179.1952         estimate D2E/DX2                !
 ! D70   D(11,12,13,15)         61.898          estimate D2E/DX2                !
 ! D71   D(25,12,13,7)         178.8499         estimate D2E/DX2                !
 ! D72   D(25,12,13,14)         59.9651         estimate D2E/DX2                !
 ! D73   D(25,12,13,15)        -58.9417         estimate D2E/DX2                !
 ! D74   D(26,12,13,7)          61.0739         estimate D2E/DX2                !
 ! D75   D(26,12,13,14)        -57.811          estimate D2E/DX2                !
 ! D76   D(26,12,13,15)       -176.7177         estimate D2E/DX2                !
 ! D77   D(7,13,15,16)         -67.1602         Frozen                          !
 ! D78   D(12,13,15,16)        175.5365         estimate D2E/DX2                !
 ! D79   D(14,13,15,16)         58.0028         estimate D2E/DX2                !
 ! D80   D(13,15,16,4)           7.7436         estimate D2E/DX2                !
 ! D81   D(13,15,16,27)       -171.8377         estimate D2E/DX2                !
 --------------------------------------------------------------------------------
 Trust Radius=3.00D-01 FncErr=1.00D-07 GrdErr=1.00D-07 EigMax=2.50D+02 EigMin=1.00D-04
 Number of steps in this run=     20 maximum allowed number of steps=    162.
 GradGradGradGradGradGradGradGradGradGradGradGradGradGradGradGradGradGrad

                          Input orientation:                          
 ---------------------------------------------------------------------
 Center     Atomic      Atomic             Coordinates (Angstroms)
 Number     Number       Type             X           Y           Z
 ---------------------------------------------------------------------
      1          8           0       -3.615900   -1.449190   -0.155750
      2          7           0       -3.257230   -0.280150   -0.024940
      3          8           0       -4.037720    0.664500    0.098620
      4          6           0       -1.757460    0.007230   -0.042320
      5          6           0       -1.369580    1.314020    0.275010
      6          7           0       -0.081330    1.768420    0.390430
      7          6           0        1.197490    0.995230    0.361580
      8          1           0        1.860190    1.490860    1.117810
      9          6           0        1.964500    1.049460   -0.983240
     10          6           0        3.375700    0.461380   -0.792820
     11          6           0        3.311490   -0.956160   -0.202470
     12          6           0        2.460740   -0.992640    1.085460
     13          6           0        1.024710   -0.454880    0.837710
     14          1           0        0.474310   -0.495970    1.806860
     15          7           0        0.369660   -1.321220   -0.145140
     16          6           0       -0.871150   -1.116610   -0.444160
     17          1           0       -2.157190    2.052440    0.499220
     18          1           0        0.150970    2.750730    0.224910
     19          1           0        1.416040    0.475430   -1.760110
     20          1           0        2.052360    2.100350   -1.331910
     21          1           0        3.912210    0.439650   -1.766600
     22          1           0        3.952020    1.112820   -0.098470
     23          1           0        2.865060   -1.643000   -0.956610
     24          1           0        4.338730   -1.321500    0.015490
     25          1           0        2.400720   -2.039940    1.454650
     26          1           0        2.953980   -0.384180    1.872220
     27          1           0       -1.373300   -1.863100   -1.078420
 ---------------------------------------------------------------------
                    Distance matrix (angstroms):
                    1          2          3          4          5
     1  O    0.000000
     2  N    1.229801   0.000000
     3  O    2.170328   1.231582   0.000000
     4  C    2.363858   1.527154   2.377279   0.000000
     5  C    3.587037   2.488889   2.751720   1.399589   0.000000
     6  N    4.810874   3.802041   4.117865   2.469509   1.370908
     7  C    5.423241   4.649787   5.252233   3.141816   2.588237
     8  H    6.344558   5.534468   6.042099   4.078535   3.342604
     9  C    6.169996   5.472903   6.111077   3.978010   3.573412
    10  C    7.275892   6.718279   7.469586   5.207575   4.938111
    11  C    6.945070   6.605800   7.531805   5.162172   5.224378
    12  C    6.218890   5.868203   6.778639   4.479379   4.544102
    13  C    4.848802   4.371465   5.237124   2.954398   3.029565
    14  H    4.635761   4.162506   4.962176   2.941679   3.003757
    15  N    3.987628   3.775262   4.840196   2.509978   3.185274
    16  C    2.779828   2.562965   3.673436   1.486619   2.583331
    17  H    3.849446   2.631693   2.371339   2.153122   1.102662
    18  H    5.654515   4.567766   4.681178   3.352657   2.092539
    19  H    5.621259   5.041941   5.764904   3.638834   3.550299
    20  H    6.790564   5.963782   6.418501   4.534195   3.861370
    21  H    7.926853   7.412986   8.168904   5.941825   5.729747
    22  H    7.990031   7.342960   8.004735   5.815810   5.338482
    23  H    6.533130   6.340962   7.354348   4.992682   5.309711
    24  H    7.957497   7.667115   8.609066   6.239583   6.292704
    25  H    6.256364   6.107245   7.113812   4.870553   5.182254
    26  H    6.957746   6.495319   7.288982   5.100621   4.912040
    27  H    2.460060   2.676704   3.856594   2.172376   3.453386
                    6          7          8          9         10
     6  N    0.000000
     7  C    1.494669   0.000000
     8  H    2.091799   1.121028   0.000000
     9  C    2.566962   1.549124   2.149448   0.000000
    10  C    3.880656   2.522347   2.647094   1.540644   0.000000
    11  C    4.391594   2.931735   3.136450   2.538995   1.536898
    12  C    3.816889   2.464027   2.555285   2.948889   2.545439
    13  C    2.523182   1.536025   2.135974   2.542067   3.004216
    14  H    2.728089   2.198977   2.518521   3.520466   4.011598
    15  N    3.167981   2.511575   3.424108   2.977591   3.554353
    16  C    3.105439   3.064043   4.086425   3.608792   4.543936
    17  H    2.098022   3.520016   4.103336   4.493549   5.900314
    18  H    1.022885   2.048332   2.303470   2.764568   4.083599
    19  H    2.922116   2.195342   3.083957   1.110786   2.185432
    20  H    2.762113   2.195450   2.531706   1.110702   2.174412
    21  H    4.729352   3.493927   3.692648   2.186114   1.112008
    22  H    4.115428   2.795158   2.449082   2.176481   1.112942
    23  H    4.704627   3.388019   3.890252   2.839200   2.171634
    24  H    5.406026   3.918470   3.907383   3.500840   2.181617
    25  H    4.668698   3.443083   3.587782   3.959544   3.501187
    26  H    4.005308   2.696305   2.298105   3.344854   2.827589
    27  H    4.124881   4.105193   5.150527   4.430911   5.295071
                   11         12         13         14         15
    11  C    0.000000
    12  C    1.543979   0.000000
    13  C    2.561761   1.553302   0.000000
    14  H    3.506961   2.170945   1.115294   0.000000
    15  N    2.964948   2.448460   1.464797   2.121861   0.000000
    16  C    4.192688   3.668323   2.382302   2.694911   1.292628
    17  H    6.280964   5.562505   4.065183   3.889615   4.264007
    18  H    4.890048   4.482009   3.378592   3.626041   4.094574
    19  H    2.840497   3.368070   2.786985   3.814938   2.632677
    20  H    3.493322   3.946776   3.506068   4.368409   3.993375
    21  H    2.180746   3.506061   3.990021   5.046202   4.275448
    22  H    2.168357   2.838762   3.450110   4.279364   4.331285
    23  H    1.113452   2.180938   2.831625   3.829899   2.643681
    24  H    1.111846   2.186282   3.522755   4.338692   3.972319
    25  H    2.179479   1.112089   2.187792   2.493782   2.683485
    26  H    2.181585   1.110180   2.190272   2.483049   3.409765
    27  H    4.851503   4.487754   3.377142   3.688841   2.050013
                   16         17         18         19         20
    16  C    0.000000
    17  H    3.547780   0.000000
    18  H    4.055700   2.427026   0.000000
    19  H    3.081810   4.512151   3.273789   0.000000
    20  H    4.436648   4.590822   2.542040   1.796837   0.000000
    21  H    5.201089   6.676275   4.842946   2.496435   2.530992
    22  H    5.324737   6.209876   4.151542   3.098146   2.470890
    23  H    3.807750   6.403024   5.297843   2.689427   3.848896
    24  H    5.234129   7.335833   5.845019   3.863137   4.330362
    25  H    3.893989   6.199594   5.433613   4.198972   5.002826
    26  H    4.531411   5.826346   4.516432   4.037079   4.153584
    27  H    1.100767   4.293586   5.030854   3.703220   5.244839
                   21         22         23         24         25
    21  H    0.000000
    22  H    1.799278   0.000000
    23  H    2.467800   3.084223   0.000000
    24  H    2.541538   2.467478   1.794448   0.000000
    25  H    4.336983   3.841694   2.487438   2.518575   0.000000
    26  H    3.852001   2.668466   3.097550   2.498709   1.794994
    27  H    5.806278   6.178627   4.245819   5.840998   4.548730
                   26         27
    26  H    0.000000
    27  H    5.442319   0.000000
 Symmetry turned off by external request.
 Stoichiometry    C9H13N3O2
 Framework group  C1[X(C9H13N3O2)]
 Deg. of freedom    75
 Full point group                 C1      NOp   1
 Rotational constants (GHZ):           1.6757830           0.4003185           0.3551174
 Standard basis: 6-31G(d) (6D, 7F)
   236 basis functions,   444 primitive gaussians,   236 cartesian basis functions
    52 alpha electrons       52 beta electrons
       nuclear repulsion energy       917.4807908406 Hartrees.
 NAtoms=   27 NActive=   27 NUniq=   27 SFac= 1.00D+00 NAtFMM=   60 NAOKFM=F Big=F
 Integral buffers will be    131072 words long.
 Raffenetti 1 integral format.
 Two-electron integral symmetry is turned off.
 One-electron integrals computed using PRISM.
 NBasis=   236 RedAO= T EigKep=  1.29D-03  NBF=   236
 NBsUse=   236 1.00D-06 EigRej= -1.00D+00 NBFU=   236
 ExpMin= 1.61D-01 ExpMax= 5.48D+03 ExpMxC= 8.25D+02 IAcc=3 IRadAn=         5 AccDes= 0.00D+00
 Harris functional with IExCor=  205 and IRadAn=       5 diagonalized for initial guess.
 HarFok:  IExCor=  205 AccDes= 0.00D+00 IRadAn=         5 IDoV= 1 UseB2=F ITyADJ=14
 ICtDFT=  3500011 ScaDFX=  1.000000  1.000000  1.000000  1.000000
 FoFCou: FMM=F IPFlag=           0 FMFlag=      100000 FMFlg1=           0
         NFxFlg=           0 DoJE=T BraDBF=F KetDBF=T FulRan=T
         wScrn=  0.000000 ICntrl=       500 IOpCl=  0 I1Cent=   200000004 NGrid=           0
         NMat0=    1 NMatS0=      1 NMatT0=    0 NMatD0=    1 NMtDS0=    0 NMtDT0=    0
 Symmetry not used in FoFCou.
 Keep R1 ints in memory in canonical form, NReq=397720213.
 Requested convergence on RMS density matrix=1.00D-08 within 128 cycles.
 Requested convergence on MAX density matrix=1.00D-06.
 Requested convergence on             energy=1.00D-06.
 No special actions if energy rises.
 SCF Done:  E(RHF) =  -661.280943841     A.U. after   16 cycles
            NFock= 16  Conv=0.86D-08     -V/T= 2.0037
 ExpMin= 1.61D-01 ExpMax= 5.48D+03 ExpMxC= 8.25D+02 IAcc=3 IRadAn=         5 AccDes= 0.00D+00
 HarFok:  IExCor=  205 AccDes= 0.00D+00 IRadAn=         5 IDoV=-2 UseB2=F ITyADJ=14
 ICtDFT= 12500011 ScaDFX=  1.000000  1.000000  1.000000  1.000000
 Range of M.O.s used for correlation:    15   236
 NBasis=   236 NAE=    52 NBE=    52 NFC=    14 NFV=     0
 NROrb=    222 NOA=    38 NOB=    38 NVA=   184 NVB=   184
 Fully direct method using O(ONN) memory.
 JobTyp=1 Pass  1:  I=  15 to  52 NPSUse=  4 ParTrn=T ParDer=T DoDerP=T.
 Spin components of T(2) and E(2):
     alpha-alpha T2 =       0.9196873870D-01 E2=     -0.2717589414D+00
     alpha-beta  T2 =       0.4997057636D+00 E2=     -0.1493774660D+01
     beta-beta   T2 =       0.9196873870D-01 E2=     -0.2717589414D+00
 ANorm=    0.1297552789D+01
 E2 =    -0.2037292542D+01 EUMP2 =    -0.66331823638363D+03
          IDoAtm=111111111111111111111111111
          Differentiating once with respect to electric field.
                with respect to dipole field.
          Differentiating once with respect to nuclear coordinates.
 Keep R1 ints in memory in canonical form, NReq=397723379.
          There are     1 degrees of freedom in the 1st order CPHF.  IDoFFX=0 NUNeed=     1.
 LinEq1:  Iter=  0 NonCon=     1 RMS=4.61D-03 Max=1.10D-01 NDo=     1
 AX will form     1 AO Fock derivatives at one time.
 LinEq1:  Iter=  1 NonCon=     1 RMS=1.56D-03 Max=2.93D-02 NDo=     1
 LinEq1:  Iter=  2 NonCon=     1 RMS=6.40D-04 Max=1.77D-02 NDo=     1
 LinEq1:  Iter=  3 NonCon=     1 RMS=2.94D-04 Max=9.07D-03 NDo=     1
 LinEq1:  Iter=  4 NonCon=     1 RMS=9.03D-05 Max=2.09D-03 NDo=     1
 LinEq1:  Iter=  5 NonCon=     1 RMS=3.75D-05 Max=1.88D-03 NDo=     1
 LinEq1:  Iter=  6 NonCon=     1 RMS=1.54D-05 Max=5.84D-04 NDo=     1
 LinEq1:  Iter=  7 NonCon=     1 RMS=5.92D-06 Max=1.01D-04 NDo=     1
 LinEq1:  Iter=  8 NonCon=     1 RMS=2.36D-06 Max=5.96D-05 NDo=     1
 LinEq1:  Iter=  9 NonCon=     1 RMS=8.78D-07 Max=2.50D-05 NDo=     1
 LinEq1:  Iter= 10 NonCon=     1 RMS=4.33D-07 Max=1.52D-05 NDo=     1
 LinEq1:  Iter= 11 NonCon=     1 RMS=1.54D-07 Max=5.71D-06 NDo=     1
 LinEq1:  Iter= 12 NonCon=     1 RMS=5.44D-08 Max=7.76D-07 NDo=     1
 LinEq1:  Iter= 13 NonCon=     1 RMS=1.72D-08 Max=3.59D-07 NDo=     1
 LinEq1:  Iter= 14 NonCon=     1 RMS=5.51D-09 Max=1.49D-07 NDo=     1
 LinEq1:  Iter= 15 NonCon=     1 RMS=2.05D-09 Max=4.93D-08 NDo=     1
 LinEq1:  Iter= 16 NonCon=     1 RMS=7.66D-10 Max=1.26D-08 NDo=     1
 LinEq1:  Iter= 17 NonCon=     1 RMS=2.55D-10 Max=3.71D-09 NDo=     1
 LinEq1:  Iter= 18 NonCon=     1 RMS=8.83D-11 Max=1.04D-09 NDo=     1
 LinEq1:  Iter= 19 NonCon=     0 RMS=2.96D-11 Max=3.72D-10 NDo=     1
 Linear equations converged to 1.000D-10 1.000D-09 after    19 iterations.
 End of Minotr F.D. properties file   721 does not exist.
 End of Minotr F.D. properties file   722 does not exist.
 End of Minotr F.D. properties file   788 does not exist.

 **********************************************************************

            Population analysis using the SCF Density.

 **********************************************************************

 Alpha  occ. eigenvalues --  -20.59848 -20.59401 -15.85277 -15.63326 -15.56848
 Alpha  occ. eigenvalues --  -11.35864 -11.30486 -11.30080 -11.30076 -11.27695
 Alpha  occ. eigenvalues --  -11.24627 -11.23879 -11.23402 -11.22854  -1.58494
 Alpha  occ. eigenvalues --   -1.38000  -1.28580  -1.22732  -1.13280  -1.08380
 Alpha  occ. eigenvalues --   -1.01812  -1.00673  -0.93594  -0.88966  -0.84934
 Alpha  occ. eigenvalues --   -0.81546  -0.78030  -0.76963  -0.74320  -0.71115
 Alpha  occ. eigenvalues --   -0.70365  -0.69752  -0.67392  -0.64373  -0.63264
 Alpha  occ. eigenvalues --   -0.61645  -0.60376  -0.57428  -0.56472  -0.54888
 Alpha  occ. eigenvalues --   -0.53597  -0.50724  -0.49389  -0.48497  -0.47774
 Alpha  occ. eigenvalues --   -0.47685  -0.46143  -0.45697  -0.44009  -0.42100
 Alpha  occ. eigenvalues --   -0.39963  -0.33772
 Alpha virt. eigenvalues --    0.07362   0.11765   0.18177   0.21382   0.23411
 Alpha virt. eigenvalues --    0.24252   0.26281   0.27800   0.28560   0.28870
 Alpha virt. eigenvalues --    0.29891   0.31061   0.31851   0.32275   0.33338
 Alpha virt. eigenvalues --    0.33783   0.34256   0.35480   0.37584   0.38583
 Alpha virt. eigenvalues --    0.40632   0.41726   0.44436   0.45262   0.45654
 Alpha virt. eigenvalues --    0.46097   0.49675   0.53175   0.57581   0.58970
 Alpha virt. eigenvalues --    0.63306   0.69129   0.69238   0.72199   0.74029
 Alpha virt. eigenvalues --    0.74925   0.75693   0.75854   0.77772   0.79264
 Alpha virt. eigenvalues --    0.80572   0.83618   0.85011   0.85349   0.87991
 Alpha virt. eigenvalues --    0.89078   0.90182   0.90774   0.91829   0.93903
 Alpha virt. eigenvalues --    0.95159   0.97203   0.98835   1.00384   1.01939
 Alpha virt. eigenvalues --    1.02784   1.05087   1.06483   1.07006   1.08657
 Alpha virt. eigenvalues --    1.09606   1.10468   1.11310   1.11953   1.13254
 Alpha virt. eigenvalues --    1.13832   1.14174   1.15393   1.16346   1.17246
 Alpha virt. eigenvalues --    1.17935   1.19955   1.21220   1.22289   1.22936
 Alpha virt. eigenvalues --    1.23679   1.24215   1.25645   1.27295   1.27528
 Alpha virt. eigenvalues --    1.29400   1.31156   1.33035   1.36014   1.39714
 Alpha virt. eigenvalues --    1.42774   1.46108   1.47134   1.49130   1.52688
 Alpha virt. eigenvalues --    1.54595   1.55062   1.60525   1.61799   1.65618
 Alpha virt. eigenvalues --    1.68643   1.70428   1.72797   1.73506   1.77021
 Alpha virt. eigenvalues --    1.77744   1.79751   1.84352   1.89115   1.92529
 Alpha virt. eigenvalues --    1.93482   1.96139   1.97364   1.99046   2.00719
 Alpha virt. eigenvalues --    2.02947   2.04058   2.05900   2.08885   2.12026
 Alpha virt. eigenvalues --    2.12876   2.13792   2.17738   2.18841   2.19424
 Alpha virt. eigenvalues --    2.20739   2.22030   2.24124   2.25117   2.26366
 Alpha virt. eigenvalues --    2.29205   2.32273   2.33397   2.35528   2.36004
 Alpha virt. eigenvalues --    2.38603   2.39798   2.41554   2.43117   2.46269
 Alpha virt. eigenvalues --    2.48668   2.50417   2.50838   2.56784   2.57187
 Alpha virt. eigenvalues --    2.60754   2.62879   2.65945   2.68549   2.68860
 Alpha virt. eigenvalues --    2.69706   2.70164   2.74699   2.77077   2.81023
 Alpha virt. eigenvalues --    2.84647   2.86789   2.90046   2.91301   2.95369
 Alpha virt. eigenvalues --    2.97514   2.98359   3.02180   3.03613   3.05678
 Alpha virt. eigenvalues --    3.07041   3.12727   3.19185   3.22600   3.27177
 Alpha virt. eigenvalues --    3.30564   3.33772   3.37159   3.43370   3.59832
 Alpha virt. eigenvalues --    4.09878   4.23074   4.31995   4.35838   4.43103
 Alpha virt. eigenvalues --    4.52631   4.59658   4.60156   4.70837   4.77510
 Alpha virt. eigenvalues --    4.96386   4.99235   5.02817   5.09943
          Condensed to atoms (all electrons):
               1          2          3          4          5          6
     1  O    8.298996   0.313271  -0.089399  -0.079310   0.003483  -0.000013
     2  N    0.313271   5.685068   0.308443   0.264510  -0.045977   0.000865
     3  O   -0.089399   0.308443   8.330734  -0.087340   0.008061   0.000461
     4  C   -0.079310   0.264510  -0.087340   5.245305   0.567196  -0.048130
     5  C    0.003483  -0.045977   0.008061   0.567196   4.670608   0.307655
     6  N   -0.000013   0.000865   0.000461  -0.048130   0.307655   7.189760
     7  C    0.000003  -0.000093   0.000002   0.004131  -0.029284   0.198481
     8  H   -0.000000   0.000002  -0.000000  -0.000179   0.002292  -0.049955
     9  C   -0.000000  -0.000003   0.000000   0.000469   0.001674  -0.056211
    10  C   -0.000000   0.000000  -0.000000  -0.000019  -0.000063   0.003335
    11  C   -0.000000  -0.000000  -0.000000  -0.000014   0.000015  -0.000154
    12  C   -0.000000   0.000002  -0.000000  -0.000100  -0.000128   0.003600
    13  C   -0.000020  -0.000025  -0.000002  -0.010459   0.000457  -0.044369
    14  H   -0.000003  -0.000054   0.000000   0.002947   0.004800  -0.005564
    15  N    0.000164   0.001662  -0.000014  -0.061395  -0.003669   0.001881
    16  C    0.003575  -0.026720   0.001903   0.318326  -0.040948  -0.001253
    17  H    0.000122  -0.004041   0.011818  -0.027277   0.377433  -0.033828
    18  H    0.000000  -0.000035   0.000008   0.000965  -0.024370   0.328360
    19  H    0.000000   0.000000   0.000000  -0.000769   0.000653   0.000641
    20  H    0.000000  -0.000000   0.000000  -0.000026   0.000029  -0.001705
    21  H   -0.000000  -0.000000   0.000000   0.000000   0.000001  -0.000059
    22  H   -0.000000   0.000000  -0.000000  -0.000000  -0.000002  -0.000098
    23  H    0.000000  -0.000000   0.000000   0.000025  -0.000000  -0.000024
    24  H    0.000000   0.000000   0.000000   0.000000  -0.000000   0.000004
    25  H    0.000000  -0.000000   0.000000   0.000019  -0.000001  -0.000071
    26  H    0.000000  -0.000000   0.000000   0.000006  -0.000001  -0.000067
    27  H    0.005207  -0.000215  -0.000004  -0.066519   0.002161   0.000046
               7          8          9         10         11         12
     1  O    0.000003  -0.000000  -0.000000  -0.000000  -0.000000  -0.000000
     2  N   -0.000093   0.000002  -0.000003   0.000000  -0.000000   0.000002
     3  O    0.000002  -0.000000   0.000000  -0.000000  -0.000000  -0.000000
     4  C    0.004131  -0.000179   0.000469  -0.000019  -0.000014  -0.000100
     5  C   -0.029284   0.002292   0.001674  -0.000063   0.000015  -0.000128
     6  N    0.198481  -0.049955  -0.056211   0.003335  -0.000154   0.003600
     7  C    5.003632   0.416730   0.340760  -0.049333  -0.007708  -0.064129
     8  H    0.416730   0.547407  -0.060557   0.001467  -0.000329  -0.002850
     9  C    0.340760  -0.060557   5.181222   0.317929  -0.053054  -0.006209
    10  C   -0.049333   0.001467   0.317929   5.126778   0.332750  -0.060155
    11  C   -0.007708  -0.000329  -0.053054   0.332750   5.123973   0.330653
    12  C   -0.064129  -0.002850  -0.006209  -0.060155   0.330653   5.136998
    13  C    0.332208  -0.040352  -0.050434  -0.001725  -0.047900   0.368220
    14  H   -0.040262  -0.000941   0.003865  -0.000391   0.003955  -0.040738
    15  N   -0.058201   0.004045  -0.012872   0.001461  -0.007737  -0.074156
    16  C   -0.002350   0.000022  -0.000891  -0.000026   0.000003   0.002512
    17  H    0.001431  -0.000019  -0.000065   0.000001   0.000000   0.000001
    18  H   -0.028484  -0.002675   0.000842  -0.000121   0.000011  -0.000136
    19  H   -0.035000   0.004097   0.385974  -0.032574  -0.002263   0.000628
    20  H   -0.041645  -0.001851   0.397242  -0.037369   0.004139  -0.000362
    21  H    0.004043  -0.000080  -0.035835   0.400143  -0.035843   0.004211
    22  H   -0.004220   0.003510  -0.045684   0.395971  -0.045620  -0.001230
    23  H    0.000428   0.000033  -0.002003  -0.040092   0.396700  -0.036629
    24  H   -0.000141  -0.000098   0.004395  -0.038480   0.400299  -0.037868
    25  H    0.004981  -0.000005  -0.000370   0.004097  -0.033922   0.395438
    26  H   -0.004454   0.001603   0.001042  -0.002403  -0.042313   0.394681
    27  H   -0.000402   0.000009  -0.000059   0.000005   0.000005  -0.000019
              13         14         15         16         17         18
     1  O   -0.000020  -0.000003   0.000164   0.003575   0.000122   0.000000
     2  N   -0.000025  -0.000054   0.001662  -0.026720  -0.004041  -0.000035
     3  O   -0.000002   0.000000  -0.000014   0.001903   0.011818   0.000008
     4  C   -0.010459   0.002947  -0.061395   0.318326  -0.027277   0.000965
     5  C    0.000457   0.004800  -0.003669  -0.040948   0.377433  -0.024370
     6  N   -0.044369  -0.005564   0.001881  -0.001253  -0.033828   0.328360
     7  C    0.332208  -0.040262  -0.058201  -0.002350   0.001431  -0.028484
     8  H   -0.040352  -0.000941   0.004045   0.000022  -0.000019  -0.002675
     9  C   -0.050434   0.003865  -0.012872  -0.000891  -0.000065   0.000842
    10  C   -0.001725  -0.000391   0.001461  -0.000026   0.000001  -0.000121
    11  C   -0.047900   0.003955  -0.007737   0.000003   0.000000   0.000011
    12  C    0.368220  -0.040738  -0.074156   0.002512   0.000001  -0.000136
    13  C    5.024046   0.402357   0.240000  -0.069824  -0.000042   0.003684
    14  H    0.402357   0.519254  -0.035845  -0.004813   0.000063   0.000010
    15  N    0.240000  -0.035845   6.936218   0.587604  -0.000058  -0.000119
    16  C   -0.069824  -0.004813   0.587604   4.698866   0.001655  -0.000210
    17  H   -0.000042   0.000063  -0.000058   0.001655   0.386370  -0.001882
    18  H    0.003684   0.000010  -0.000119  -0.000210  -0.001882   0.324484
    19  H   -0.006271   0.000065   0.006958   0.002532   0.000011  -0.000127
    20  H    0.003864  -0.000049   0.000079  -0.000031  -0.000001   0.002868
    21  H   -0.000377   0.000009  -0.000029   0.000002  -0.000000  -0.000000
    22  H    0.000320  -0.000044   0.000003  -0.000001   0.000000   0.000002
    23  H   -0.005860   0.000008   0.006762   0.000062   0.000000   0.000000
    24  H    0.004142  -0.000058   0.000044   0.000005   0.000000  -0.000000
    25  H   -0.034470  -0.002658   0.000766  -0.000061  -0.000000   0.000002
    26  H   -0.044810  -0.000904   0.004186  -0.000055   0.000000  -0.000001
    27  H    0.004887  -0.000173  -0.039673   0.402444  -0.000059   0.000002
              19         20         21         22         23         24
     1  O    0.000000   0.000000  -0.000000  -0.000000   0.000000   0.000000
     2  N    0.000000  -0.000000  -0.000000   0.000000  -0.000000   0.000000
     3  O    0.000000   0.000000   0.000000  -0.000000   0.000000   0.000000
     4  C   -0.000769  -0.000026   0.000000  -0.000000   0.000025   0.000000
     5  C    0.000653   0.000029   0.000001  -0.000002  -0.000000  -0.000000
     6  N    0.000641  -0.001705  -0.000059  -0.000098  -0.000024   0.000004
     7  C   -0.035000  -0.041645   0.004043  -0.004220   0.000428  -0.000141
     8  H    0.004097  -0.001851  -0.000080   0.003510   0.000033  -0.000098
     9  C    0.385974   0.397242  -0.035835  -0.045684  -0.002003   0.004395
    10  C   -0.032574  -0.037369   0.400143   0.395971  -0.040092  -0.038480
    11  C   -0.002263   0.004139  -0.035843  -0.045620   0.396700   0.400299
    12  C    0.000628  -0.000362   0.004211  -0.001230  -0.036629  -0.037868
    13  C   -0.006271   0.003864  -0.000377   0.000320  -0.005860   0.004142
    14  H    0.000065  -0.000049   0.000009  -0.000044   0.000008  -0.000058
    15  N    0.006958   0.000079  -0.000029   0.000003   0.006762   0.000044
    16  C    0.002532  -0.000031   0.000002  -0.000001   0.000062   0.000005
    17  H    0.000011  -0.000001  -0.000000   0.000000   0.000000   0.000000
    18  H   -0.000127   0.002868  -0.000000   0.000002   0.000000  -0.000000
    19  H    0.506843  -0.024017  -0.002593   0.003757   0.001641  -0.000070
    20  H   -0.024017   0.550106  -0.002615  -0.002965  -0.000049  -0.000090
    21  H   -0.002593  -0.002615   0.526083  -0.024693  -0.002813  -0.002060
    22  H    0.003757  -0.002965  -0.024693   0.568837   0.004061  -0.003596
    23  H    0.001641  -0.000049  -0.002813   0.004061   0.509643  -0.024991
    24  H   -0.000070  -0.000090  -0.002060  -0.003596  -0.024991   0.541023
    25  H   -0.000027   0.000011  -0.000086  -0.000082  -0.002092  -0.002380
    26  H    0.000023  -0.000035  -0.000074   0.002465   0.003821  -0.002766
    27  H    0.000076  -0.000000  -0.000000   0.000000  -0.000021  -0.000000
              25         26         27
     1  O    0.000000   0.000000   0.005207
     2  N   -0.000000  -0.000000  -0.000215
     3  O    0.000000   0.000000  -0.000004
     4  C    0.000019   0.000006  -0.066519
     5  C   -0.000001  -0.000001   0.002161
     6  N   -0.000071  -0.000067   0.000046
     7  C    0.004981  -0.004454  -0.000402
     8  H   -0.000005   0.001603   0.000009
     9  C   -0.000370   0.001042  -0.000059
    10  C    0.004097  -0.002403   0.000005
    11  C   -0.033922  -0.042313   0.000005
    12  C    0.395438   0.394681  -0.000019
    13  C   -0.034470  -0.044810   0.004887
    14  H   -0.002658  -0.000904  -0.000173
    15  N    0.000766   0.004186  -0.039673
    16  C   -0.000061  -0.000055   0.402444
    17  H   -0.000000   0.000000  -0.000059
    18  H    0.000002  -0.000001   0.000002
    19  H   -0.000027   0.000023   0.000076
    20  H    0.000011  -0.000035  -0.000000
    21  H   -0.000086  -0.000074  -0.000000
    22  H   -0.000082   0.002465   0.000000
    23  H   -0.002092   0.003821  -0.000021
    24  H   -0.002380  -0.002766  -0.000000
    25  H    0.510344  -0.023098  -0.000010
    26  H   -0.023098   0.560953   0.000001
    27  H   -0.000010   0.000001   0.453236
 Mulliken charges:
               1
     1  O   -0.456076
     2  N    0.503341
     3  O   -0.484669
     4  C   -0.022364
     5  C    0.197925
     6  N   -0.793589
     7  C    0.058875
     8  H    0.178672
     9  C   -0.311164
    10  C   -0.321185
    11  C   -0.315645
    12  C   -0.312235
    13  C   -0.027244
    14  H    0.195165
    15  N   -0.498063
    16  C    0.127670
    17  H    0.288367
    18  H    0.396921
    19  H    0.189814
    20  H    0.154476
    21  H    0.172663
    22  H    0.149312
    23  H    0.191391
    24  H    0.162685
    25  H    0.183673
    26  H    0.152203
    27  H    0.239078
 Sum of Mulliken charges =  -0.00000
 Mulliken charges with hydrogens summed into heavy atoms:
               1
     1  O   -0.456076
     2  N    0.503341
     3  O   -0.484669
     4  C   -0.022364
     5  C    0.486292
     6  N   -0.396668
     7  C    0.237548
     9  C    0.033126
    10  C    0.000790
    11  C    0.038432
    12  C    0.023642
    13  C    0.167921
    15  N   -0.498063
    16  C    0.366748
 Electronic spatial extent (au):  <R**2>=           3125.6400
 Charge=             -0.0000 electrons
 Dipole moment (field-independent basis, Debye):
    X=              5.3537    Y=              4.4941    Z=              0.5231  Tot=              7.0095
 Quadrupole moment (field-independent basis, Debye-Ang):
   XX=           -105.4223   YY=            -80.2954   ZZ=            -82.2199
   XY=             -1.8400   XZ=              0.8302   YZ=              0.1978
 Traceless Quadrupole moment (field-independent basis, Debye-Ang):
   XX=            -16.1098   YY=              9.0171   ZZ=              7.0926
   XY=             -1.8400   XZ=              0.8302   YZ=              0.1978
 Octapole moment (field-independent basis, Debye-Ang**2):
  XXX=            101.2490  YYY=             36.7523  ZZZ=             -5.1346  XYY=             -1.2600
  XXY=             11.5907  XXZ=              0.0737  XZZ=             -8.4631  YZZ=             -2.9036
  YYZ=              0.7816  XYZ=             -1.9711
 Hexadecapole moment (field-independent basis, Debye-Ang**3):
 XXXX=          -3559.7021 YYYY=           -620.5608 ZZZZ=           -298.2718 XXXY=            -40.2921
 XXXZ=             23.3663 YYYX=            -20.5798 YYYZ=             12.4456 ZZZX=             20.4053
 ZZZY=              9.6395 XXYY=           -657.4555 XXZZ=           -542.7720 YYZZ=           -164.5072
 XXYZ=              4.5584 YYXZ=             10.1741 ZZXY=              2.5413
 N-N= 9.174807908406D+02 E-N=-3.380972244514D+03  KE= 6.588564535854D+02
 Calling FoFJK, ICntrl=  10002127 FMM=F ISym2X=0 I1Cent= 0 IOpClX= 0 NMat=1 NMatS=1 NMatT=0.
 -------------------------------------------------------------------
 Center     Atomic                   Forces (Hartrees/Bohr)
 Number     Number              X              Y              Z
 -------------------------------------------------------------------
      1        8           0.002353176   -0.019414573   -0.002525226
      2        7           0.039299517    0.013844789   -0.002201207
      3        8          -0.005442600    0.015835949    0.003404570
      4        6          -0.002987553    0.008768266    0.009519199
      5        6           0.003166109   -0.016671796   -0.005313617
      6        7           0.014849546   -0.010036998   -0.006396812
      7        6          -0.004679747    0.005235169    0.002854455
      8        1          -0.010105248   -0.001719002   -0.007660853
      9        6          -0.003932328    0.000182146   -0.002111365
     10        6           0.002833693   -0.000886051    0.000972994
     11        6          -0.001044568   -0.004602223   -0.002415876
     12        6           0.000819073   -0.008763508   -0.002894018
     13        6           0.008890114   -0.001958492    0.004676398
     14        1           0.000885921    0.004472971   -0.009856592
     15        7           0.000045252    0.000911937    0.001306734
     16        6          -0.020985053    0.007480905    0.003907607
     17        1           0.007191834   -0.005938397   -0.006341655
     18        1          -0.017593291   -0.001714050    0.006208715
     19        1           0.003100033    0.005870538    0.007699725
     20        1          -0.003253614   -0.007350132    0.002592846
     21        1          -0.004360362    0.002391929    0.009618772
     22        1          -0.003983982   -0.003964022   -0.007409881
     23        1           0.003982905    0.006118547    0.009309493
     24        1          -0.009377088    0.002624396   -0.002130252
     25        1          -0.000775612    0.010599240   -0.002397103
     26        1          -0.004781082   -0.004797836   -0.004379846
     27        1           0.005884955    0.003480296    0.001962796
 -------------------------------------------------------------------
 Cartesian Forces:  Max     0.039299517 RMS     0.008395064

 GradGradGradGradGradGradGradGradGradGradGradGradGradGradGradGradGradGrad
 Berny optimization.
 FormGI is forming the generalized inverse of G from B-inverse, IUseBI=4.
 Internal  Forces:  Max     0.037507727 RMS     0.006875956
 Search for a local minimum.
 Step number   1 out of a maximum of   20
 All quantities printed in internal units (Hartrees-Bohrs-Radians)
 Mixed Optimization -- RFO/linear search
 Second derivative matrix not updated -- first step.
 ITU=  0
     Eigenvalues ---    0.00231   0.00770   0.01044   0.01146   0.01197
     Eigenvalues ---    0.01482   0.01531   0.01602   0.01972   0.02017
     Eigenvalues ---    0.02088   0.02689   0.03663   0.04506   0.04694
     Eigenvalues ---    0.04838   0.05081   0.05138   0.05304   0.05892
     Eigenvalues ---    0.06265   0.07216   0.07700   0.07725   0.07871
     Eigenvalues ---    0.07993   0.08050   0.08056   0.10459   0.11738
     Eigenvalues ---    0.12267   0.13477   0.15246   0.15726   0.15990
     Eigenvalues ---    0.16000   0.20086   0.21953   0.23159   0.24981
     Eigenvalues ---    0.25000   0.25000   0.25369   0.26202   0.26651
     Eigenvalues ---    0.27979   0.28083   0.28471   0.29688   0.31460
     Eigenvalues ---    0.31654   0.32046   0.32237   0.32290   0.32380
     Eigenvalues ---    0.32388   0.32405   0.32517   0.32526   0.32581
     Eigenvalues ---    0.33342   0.33389   0.33597   0.35366   0.43881
     Eigenvalues ---    0.44247   0.49174   0.67008   0.90430   0.91169
     Eigenvalues --- 1000.000001000.000001000.000001000.000001000.00000
     Eigenvalues --- 1000.000001000.000001000.000001000.000001000.00000
     Eigenvalues --- 1000.000001000.000001000.000001000.000001000.00000
     Eigenvalues --- 1000.000001000.000001000.000001000.000001000.00000
     Eigenvalues --- 1000.000001000.000001000.000001000.000001000.00000
     Eigenvalues --- 1000.000001000.000001000.000001000.000001000.00000
     Eigenvalues --- 1000.000001000.000001000.000001000.000001000.00000
     Eigenvalues --- 1000.000001000.000001000.000001000.000001000.00000
     Eigenvalues --- 1000.000001000.000001000.000001000.000001000.00000
     Eigenvalues --- 1000.000001000.000001000.000001000.000001000.00000
     Eigenvalues --- 1000.000001000.000001000.000001000.000001000.00000
     Eigenvalues --- 1000.000001000.000001000.000001000.000001000.00000
     Eigenvalues --- 1000.000001000.000001000.000001000.000001000.00000
     Eigenvalues --- 1000.000001000.000001000.000001000.000001000.00000
     Eigenvalues --- 1000.000001000.000001000.000001000.000001000.00000
     Eigenvalues --- 1000.000001000.000001000.000001000.000001000.00000
     Eigenvalues --- 1000.000001000.000001000.000001000.000001000.00000
     Eigenvalues --- 1000.000001000.000001000.000001000.000001000.00000
     Eigenvalues --- 1000.00000
 RFO step:  Lambda=-2.38198816D-02 EMin= 2.31178723D-03
 Linear search not attempted -- first point.
 Iteration  1 RMS(Cart)=  0.05550429 RMS(Int)=  0.00105315
 Iteration  2 RMS(Cart)=  0.00112868 RMS(Int)=  0.00022281
 Iteration  3 RMS(Cart)=  0.00000094 RMS(Int)=  0.00022280
 Iteration  1 RMS(Cart)=  0.00002923 RMS(Int)=  0.00002190
 Iteration  2 RMS(Cart)=  0.00001442 RMS(Int)=  0.00002434
 Iteration  3 RMS(Cart)=  0.00000764 RMS(Int)=  0.00002703
 Iteration  4 RMS(Cart)=  0.00000449 RMS(Int)=  0.00002873
 Iteration  5 RMS(Cart)=  0.00000300 RMS(Int)=  0.00002977
 Iteration  6 RMS(Cart)=  0.00000223 RMS(Int)=  0.00003045
 Iteration  7 RMS(Cart)=  0.00000179 RMS(Int)=  0.00003093
 Iteration  8 RMS(Cart)=  0.00000149 RMS(Int)=  0.00003130
 Iteration  9 RMS(Cart)=  0.00000126 RMS(Int)=  0.00003159
 Iteration 10 RMS(Cart)=  0.00000107 RMS(Int)=  0.00003182
 Iteration 11 RMS(Cart)=  0.00000091 RMS(Int)=  0.00003202
 Variable       Old X    -DE/DX   Delta X   Delta X   Delta X     New X
                                 (Linear)    (Quad)   (Total)
    R1        2.32399   0.01804   0.00000   0.01928   0.01928   2.34327
    R2        2.32735   0.01594   0.00000   0.01717   0.01717   2.34453
    R3        2.88590  -0.03751   0.00000  -0.11696  -0.11696   2.76895
    R4        2.64484  -0.03471   0.00000  -0.07492  -0.07468   2.57016
    R5        2.80930  -0.02178   0.00000  -0.06237  -0.06214   2.74717
    R6        2.59064  -0.02440   0.00000  -0.04726  -0.04717   2.54347
    R7        2.08373  -0.01040   0.00000  -0.02908  -0.02908   2.05465
    R8        2.82452  -0.01943   0.00000  -0.05390  -0.05401   2.77051
    R9        1.93297  -0.00665   0.00000  -0.01437  -0.01437   1.91861
   R10        2.11844  -0.01190   0.00000  -0.03517  -0.03517   2.08327
   R11        2.92742  -0.01299   0.00000  -0.04424  -0.04426   2.88316
   R12        2.90267  -0.00442   0.00000  -0.00869  -0.00873   2.89393
   R13        2.91139  -0.00463   0.00000  -0.01434  -0.01436   2.89703
   R14        2.09908  -0.00995   0.00000  -0.02851  -0.02851   2.07057
   R15        2.09892  -0.00803   0.00000  -0.02299  -0.02299   2.07593
   R16        2.90432  -0.00183   0.00000  -0.00716  -0.00721   2.89711
   R17        2.10139  -0.01057   0.00000  -0.03041  -0.03041   2.07098
   R18        2.10316  -0.00901   0.00000  -0.02598  -0.02598   2.07718
   R19        2.91770  -0.00909   0.00000  -0.02877  -0.02875   2.88895
   R20        2.10412  -0.01168   0.00000  -0.03373  -0.03373   2.07039
   R21        2.10108  -0.00994   0.00000  -0.02858  -0.02858   2.07250
   R22        2.93532  -0.01057   0.00000  -0.03639  -0.03638   2.89894
   R23        2.10154  -0.01074   0.00000  -0.03088  -0.03088   2.07066
   R24        2.09794  -0.00786   0.00000  -0.02247  -0.02247   2.07546
   R25        2.10760  -0.00917   0.00000  -0.02663  -0.02663   2.08097
   R26        2.76806  -0.00526   0.00000  -0.01105  -0.01136   2.75671
   R27        2.44271  -0.00582   0.00000  -0.00793  -0.00796   2.43475
   R28        2.08015  -0.00618   0.00000  -0.01716  -0.01716   2.06298
    A1        2.15912   0.01081   0.00000   0.03967   0.03939   2.19851
    A2        2.05340  -0.00771   0.00000  -0.02796  -0.02824   2.02516
    A3        2.07050  -0.00307   0.00000  -0.01101  -0.01129   2.05921
    A4        2.03230  -0.00724   0.00000  -0.02410  -0.02446   2.00783
    A5        2.03344  -0.00323   0.00000  -0.00942  -0.00981   2.02363
    A6        2.21668   0.01041   0.00000   0.03229   0.03254   2.24922
    A7        2.20062   0.00615   0.00000   0.01929   0.01960   2.22021
    A8        2.06396  -0.00327   0.00000  -0.01043  -0.01067   2.05329
    A9        2.01764  -0.00284   0.00000  -0.00802  -0.00827   2.00937
   A10        2.25352  -0.00557   0.00000  -0.01921  -0.01926   2.23426
   A11        2.11542  -0.01248   0.00000  -0.07168  -0.07201   2.04341
   A12        1.87481   0.01824   0.00000   0.09813   0.09828   1.97309
   A13        1.83802  -0.00161   0.00000  -0.01782  -0.01763   1.82039
   A14        2.00674  -0.00112   0.00000  -0.01257  -0.01257   1.99417
   A15        1.96724   0.00105   0.00000   0.00193   0.00144   1.96868
   A16        1.85193   0.00269   0.00000   0.02397   0.02380   1.87574
   A17        1.84916   0.00082   0.00000   0.01801   0.01784   1.86700
   A18        1.93675  -0.00151   0.00000  -0.00931  -0.00900   1.92775
   A19        1.91014   0.00015   0.00000  -0.00468  -0.00481   1.90532
   A20        1.92259  -0.00074   0.00000  -0.01297  -0.01294   1.90965
   A21        1.92283  -0.00165   0.00000  -0.00709  -0.00708   1.91575
   A22        1.91926  -0.00040   0.00000   0.00569   0.00565   1.92491
   A23        1.90445   0.00305   0.00000   0.02443   0.02445   1.92890
   A24        1.88437  -0.00038   0.00000  -0.00497  -0.00522   1.87914
   A25        1.94043  -0.00087   0.00000   0.00560   0.00548   1.94591
   A26        1.91894  -0.00070   0.00000  -0.00682  -0.00684   1.91211
   A27        1.90499   0.00030   0.00000  -0.00296  -0.00302   1.90197
   A28        1.91612   0.00079   0.00000   0.00710   0.00715   1.92327
   A29        1.89849   0.00171   0.00000   0.01113   0.01116   1.90965
   A30        1.88382  -0.00122   0.00000  -0.01453  -0.01462   1.86920
   A31        1.94468   0.00064   0.00000   0.00504   0.00517   1.94984
   A32        1.90238   0.00062   0.00000   0.00590   0.00585   1.90823
   A33        1.91747   0.00038   0.00000   0.00527   0.00525   1.92272
   A34        1.90655  -0.00113   0.00000  -0.01411  -0.01415   1.89239
   A35        1.91537  -0.00047   0.00000   0.00013   0.00004   1.91541
   A36        1.87603  -0.00007   0.00000  -0.00260  -0.00263   1.87340
   A37        1.94785  -0.00296   0.00000  -0.01800  -0.01802   1.92983
   A38        1.90595   0.00254   0.00000   0.01690   0.01676   1.92271
   A39        1.91070   0.00139   0.00000   0.01317   0.01314   1.92384
   A40        1.90614   0.00019   0.00000  -0.00294  -0.00279   1.90335
   A41        1.91138  -0.00021   0.00000  -0.00479  -0.00473   1.90664
   A42        1.88058  -0.00087   0.00000  -0.00386  -0.00404   1.87654
   A43        1.84657   0.00455   0.00000   0.02354   0.02358   1.87014
   A44        1.93869  -0.00433   0.00000  -0.03118  -0.03159   1.90710
   A45        1.98305   0.00084   0.00000   0.01157   0.01176   1.99481
   A46        1.88062   0.00223   0.00000   0.03006   0.03036   1.91098
   A47        1.89198  -0.00390   0.00000  -0.02841  -0.02846   1.86352
   A48        1.91833   0.00081   0.00000  -0.00327  -0.00313   1.91520
   A49        2.08388  -0.00626   0.00000  -0.01456  -0.01491   2.06897
   A50        2.25161  -0.00492   0.00000  -0.02064  -0.02070   2.23091
   A51        1.97843   0.00563   0.00000   0.02766   0.02718   2.00561
   A52        2.05312  -0.00070   0.00000  -0.00673  -0.00720   2.04592
    D1       -3.00610  -0.00069   0.00000  -0.03062  -0.03000  -3.03610
    D2        0.17453   0.00038   0.00000   0.00000  -0.00000   0.17453
    D3        0.15357  -0.00205   0.00000  -0.07302  -0.07271   0.08087
    D4       -2.94898  -0.00097   0.00000  -0.04240  -0.04271  -2.99169
    D5        3.07515   0.00053   0.00000   0.01412   0.01416   3.08931
    D6       -0.01705  -0.00047   0.00000  -0.00707  -0.00711  -0.02416
    D7       -0.11019  -0.00109   0.00000  -0.02147  -0.02185  -0.13204
    D8        3.08079  -0.00209   0.00000  -0.04266  -0.04312   3.03767
    D9       -2.70233  -0.00195   0.00000  -0.04387  -0.04442  -2.74674
   D10        0.43221   0.00049   0.00000   0.00601   0.00578   0.43799
   D11        0.48304  -0.00025   0.00000  -0.00794  -0.00783   0.47522
   D12       -2.66560   0.00220   0.00000   0.04195   0.04237  -2.62323
   D13       -0.12798  -0.00009   0.00000   0.02297   0.02318  -0.10480
   D14        2.67636   0.00383   0.00000   0.06970   0.06877   2.74513
   D15        2.96537   0.00088   0.00000   0.04358   0.04391   3.00928
   D16       -0.51347   0.00480   0.00000   0.09032   0.08950  -0.42398
   D17       -2.48397  -0.00072   0.00000  -0.01820  -0.01782  -2.50179
   D18        1.76739  -0.00236   0.00000  -0.02917  -0.02884   1.73854
   D19       -0.47592  -0.00017   0.00000  -0.00627  -0.00626  -0.48218
   D20        0.95878  -0.00007   0.00000  -0.03655  -0.03702   0.92176
   D21       -1.07305  -0.00171   0.00000  -0.04752  -0.04804  -1.12109
   D22        2.96682   0.00049   0.00000  -0.02462  -0.02546   2.94137
   D23        2.94441   0.00233   0.00000   0.02519   0.02509   2.96950
   D24       -1.22661   0.00146   0.00000   0.02104   0.02096  -1.20566
   D25        0.85041  -0.00050   0.00000   0.00240   0.00239   0.85281
   D26        0.92054   0.00316   0.00000   0.03823   0.03823   0.95878
   D27        3.03270   0.00229   0.00000   0.03408   0.03410   3.06680
   D28       -1.17346   0.00032   0.00000   0.01545   0.01554  -1.15792
   D29       -1.08035   0.00145   0.00000   0.00831   0.00829  -1.07206
   D30        1.03181   0.00058   0.00000   0.00417   0.00416   1.03597
   D31        3.10883  -0.00139   0.00000  -0.01447  -0.01441   3.09443
   D32       -2.90025  -0.00103   0.00000  -0.01297  -0.01274  -2.91299
   D33       -0.86419   0.00202   0.00000   0.02030   0.02014  -0.84405
   D34        1.30938   0.00030   0.00000   0.00000  -0.00001   1.30937
   D35       -0.89893  -0.00194   0.00000  -0.02266  -0.02255  -0.92148
   D36        1.13713   0.00112   0.00000   0.01061   0.01034   1.14747
   D37       -2.97248  -0.00060   0.00000  -0.00968  -0.00981  -2.98230
   D38        1.10369   0.00094   0.00000   0.01098   0.01108   1.11478
   D39        3.13975   0.00400   0.00000   0.04425   0.04397  -3.09946
   D40       -0.96986   0.00228   0.00000   0.02395   0.02382  -0.94604
   D41        0.95666   0.00065   0.00000   0.00000   0.00001   0.95667
   D42        3.08230   0.00060   0.00000   0.00806   0.00802   3.09032
   D43       -1.13764  -0.00112   0.00000  -0.01540  -0.01536  -1.15300
   D44       -1.15751   0.00172   0.00000   0.01544   0.01551  -1.14201
   D45        0.96812   0.00167   0.00000   0.02350   0.02352   0.99164
   D46        3.03137  -0.00005   0.00000   0.00004   0.00014   3.03151
   D47        3.06189   0.00060   0.00000   0.00350   0.00346   3.06536
   D48       -1.09566   0.00054   0.00000   0.01156   0.01148  -1.08418
   D49        0.96759  -0.00118   0.00000  -0.01189  -0.01191   0.95568
   D50       -0.92193  -0.00080   0.00000   0.00000   0.00001  -0.92192
   D51        1.18335  -0.00140   0.00000  -0.01051  -0.01052   1.17283
   D52       -3.04844  -0.00089   0.00000  -0.00715  -0.00718  -3.05562
   D53       -3.04921   0.00012   0.00000   0.00006   0.00008  -3.04913
   D54       -0.94393  -0.00047   0.00000  -0.01045  -0.01045  -0.95437
   D55        1.10747   0.00003   0.00000  -0.00709  -0.00711   1.10036
   D56        1.17622   0.00015   0.00000   0.00700   0.00703   1.18325
   D57       -3.00168  -0.00045   0.00000  -0.00351  -0.00349  -3.00518
   D58       -0.95029   0.00005   0.00000  -0.00015  -0.00016  -0.95044
   D59        0.98789  -0.00083   0.00000  -0.01173  -0.01178   0.97611
   D60        3.09705  -0.00080   0.00000  -0.01567  -0.01582   3.08123
   D61       -1.13106   0.00044   0.00000  -0.00285  -0.00282  -1.13388
   D62       -1.11494  -0.00126   0.00000  -0.01299  -0.01298  -1.12792
   D63        0.99422  -0.00123   0.00000  -0.01692  -0.01702   0.97720
   D64        3.04930   0.00000   0.00000  -0.00410  -0.00402   3.04528
   D65        3.11561  -0.00024   0.00000  -0.00162  -0.00162   3.11399
   D66       -1.05841  -0.00021   0.00000  -0.00555  -0.00566  -1.06407
   D67        0.99667   0.00103   0.00000   0.00727   0.00734   1.00401
   D68       -1.05261   0.00004   0.00000  -0.00015  -0.00006  -1.05267
   D69       -3.12755   0.00158   0.00000   0.00881   0.00845  -3.11910
   D70        1.08032   0.00152   0.00000   0.01156   0.01146   1.09179
   D71        3.12152  -0.00136   0.00000  -0.00780  -0.00763   3.11389
   D72        1.04659   0.00018   0.00000   0.00116   0.00087   1.04746
   D73       -1.02873   0.00012   0.00000   0.00392   0.00389  -1.02484
   D74        1.06594  -0.00030   0.00000   0.00137   0.00157   1.06751
   D75       -1.00899   0.00124   0.00000   0.01033   0.01007  -0.99892
   D76       -3.08431   0.00118   0.00000   0.01309   0.01309  -3.07121
   D77       -1.17217   0.00376   0.00000   0.00000  -0.00001  -1.17217
   D78        3.06369   0.00018   0.00000  -0.01740  -0.01726   3.04643
   D79        1.01234  -0.00070   0.00000  -0.03521  -0.03546   0.97688
   D80        0.13515   0.00185   0.00000   0.01981   0.01952   0.15467
   D81       -2.99913  -0.00070   0.00000  -0.03199  -0.03179  -3.03093
         Item               Value     Threshold  Converged?
 Maximum Force            0.037508     0.000450     NO 
 RMS     Force            0.006953     0.000300     NO 
 Maximum Displacement     0.289925     0.001800     NO 
 RMS     Displacement     0.055651     0.001200     NO 
 Predicted change in Energy=-1.335333D-02
 GradGradGradGradGradGradGradGradGradGradGradGradGradGradGradGradGradGrad

                          Input orientation:                          
 ---------------------------------------------------------------------
 Center     Atomic      Atomic             Coordinates (Angstroms)
 Number     Number       Type             X           Y           Z
 ---------------------------------------------------------------------
      1          8           0       -3.478155   -1.429199   -0.195979
      2          7           0       -3.127796   -0.249353   -0.044912
      3          8           0       -3.884298    0.719697    0.122141
      4          6           0       -1.683295   -0.003791   -0.034168
      5          6           0       -1.318592    1.272923    0.260420
      6          7           0       -0.067814    1.752450    0.391498
      7          6           0        1.192859    1.004350    0.369813
      8          1           0        1.825849    1.515821    1.113484
      9          6           0        1.927015    1.051859   -0.966795
     10          6           0        3.327148    0.451977   -0.793607
     11          6           0        3.263574   -0.961343   -0.202989
     12          6           0        2.440368   -0.999854    1.084634
     13          6           0        1.031569   -0.443957    0.840544
     14          1           0        0.462434   -0.458453    1.783160
     15          7           0        0.394590   -1.324048   -0.132982
     16          6           0       -0.844573   -1.125211   -0.424443
     17          1           0       -2.111149    1.996065    0.436715
     18          1           0        0.060298    2.751147    0.261149
     19          1           0        1.360486    0.484872   -1.713874
     20          1           0        1.993931    2.090882   -1.317132
     21          1           0        3.841158    0.434831   -1.761353
     22          1           0        3.913864    1.100290   -0.127507
     23          1           0        2.800997   -1.637849   -0.930114
     24          1           0        4.275857   -1.335000   -0.006881
     25          1           0        2.360155   -2.029422    1.450986
     26          1           0        2.932479   -0.407675    1.867823
     27          1           0       -1.328939   -1.858031   -1.072623
 ---------------------------------------------------------------------
                    Distance matrix (angstroms):
                    1          2          3          4          5
     1  O    0.000000
     2  N    1.240004   0.000000
     3  O    2.209956   1.240669   0.000000
     4  C    2.297714   1.465263   2.322128   0.000000
     5  C    3.489051   2.384066   2.628313   1.360070   0.000000
     6  N    4.700898   3.682547   3.962913   2.423913   1.345947
     7  C    5.297231   4.517945   5.091159   3.074380   2.528139
     8  H    6.206471   5.384822   5.849987   3.992545   3.267144
     9  C    5.997138   5.300390   5.921780   3.875375   3.476908
    10  C    7.085770   6.535955   7.274286   5.088125   4.834028
    11  C    6.757947   6.432847   7.350080   5.041520   5.118880
    12  C    6.070685   5.730931   6.624549   4.387306   4.469298
    13  C    4.731035   4.257020   5.102543   2.886062   2.967740
    14  H    4.515261   4.034268   4.800115   2.848430   2.913495
    15  N    3.874684   3.683738   4.748775   2.463828   3.135924
    16  C    2.660894   2.474727   3.597550   1.453737   2.538657
    17  H    3.741850   2.511461   2.207290   2.098622   1.087272
    18  H    5.495899   4.388691   4.439138   3.273685   2.021505
    19  H    5.420343   4.844502   5.561821   3.510671   3.419988
    20  H    6.602399   5.772983   6.205259   4.422177   3.759061
    21  H    7.713452   7.209757   7.956844   5.804752   5.604729
    22  H    7.813126   7.170309   7.811434   5.705778   5.249656
    23  H    6.325365   6.153218   7.166480   4.856104   5.182758
    24  H    7.756889   7.482924   8.415851   6.106092   6.178234
    25  H    6.095788   5.960198   6.951020   4.760080   5.084891
    26  H    6.811682   6.356929   7.126487   5.008599   4.845592
    27  H    2.360409   2.622960   3.821257   2.154568   3.402938
                    6          7          8          9         10
     6  N    0.000000
     7  C    1.466091   0.000000
     8  H    2.040396   1.102418   0.000000
     9  C    2.512992   1.525700   2.133789   0.000000
    10  C    3.823804   2.492760   2.650030   1.533045   0.000000
    11  C    4.337768   2.912028   3.152220   2.534318   1.533083
    12  C    3.787690   2.466593   2.589804   2.946424   2.534163
    13  C    2.496896   1.531404   2.132160   2.511128   2.956828
    14  H    2.665704   2.161218   2.491008   3.462411   3.959192
    15  N    3.154955   2.512265   3.415704   2.947628   3.491503
    16  C    3.090315   3.052377   4.058500   3.565877   4.475161
    17  H    2.058303   3.450282   4.023507   4.378143   5.785584
    18  H    1.015282   2.084659   2.317256   2.807144   4.131708
    19  H    2.842426   2.153998   3.045221   1.095700   2.171574
    20  H    2.699027   2.160567   2.503366   1.098536   2.176593
    21  H    4.653058   3.446695   3.673513   2.162404   1.095916
    22  H    4.067978   2.767742   2.464251   2.157387   1.099197
    23  H    4.633666   3.355165   3.882375   2.828378   2.159361
    24  H    5.344019   3.888359   3.922364   3.483617   2.170777
    25  H    4.617371   3.425681   3.601130   3.940504   3.482903
    26  H    3.980884   2.695204   2.343820   3.343090   2.824530
    27  H    4.095078   4.078396   5.110247   4.368055   5.205107
                   11         12         13         14         15
    11  C    0.000000
    12  C    1.528765   0.000000
    13  C    2.517637   1.534052   0.000000
    14  H    3.470457   2.166397   1.101204   0.000000
    15  N    2.892668   2.402685   1.458786   2.103678   0.000000
    16  C    4.117374   3.617162   2.363093   2.650726   1.288414
    17  H    6.167911   5.487407   3.999183   3.802749   4.198385
    18  H    4.925341   4.518060   3.389359   3.574879   4.107835
    19  H    2.827729   3.346969   2.737876   3.731703   2.589280
    20  H    3.488464   3.939598   3.465129   4.296091   3.952449
    21  H    2.170576   3.481404   3.928859   4.977681   4.198105
    22  H    2.163077   2.837443   3.410198   4.241780   4.273492
    23  H    1.095604   2.143898   2.773353   3.771168   2.554347
    24  H    1.096720   2.161654   3.469509   4.302880   3.883330
    25  H    2.166239   1.095746   2.156729   2.485886   2.621060
    26  H    2.168970   1.098288   2.161036   2.472017   3.359143
    27  H    4.759358   4.426951   3.351389   3.650114   2.034358
                   16         17         18         19         20
    16  C    0.000000
    17  H    3.476805   0.000000
    18  H    4.039180   2.305679   0.000000
    19  H    3.019484   4.354422   3.275242   0.000000
    20  H    4.381467   4.465049   2.581833   1.771418   0.000000
    21  H    5.116360   6.534441   4.873473   2.481631   2.520334
    22  H    5.261535   6.117315   4.210268   3.068393   2.466297
    23  H    3.716004   6.261209   5.309786   2.682405   3.834654
    24  H    5.141709   7.217106   5.877021   3.837336   4.319793
    25  H    3.821664   6.101300   5.436810   4.163815   4.977299
    26  H    4.476099   5.767514   4.561686   4.012026   4.155429
    27  H    1.091684   4.212364   4.995343   3.624005   5.166737
                   21         22         23         24         25
    21  H    0.000000
    22  H    1.765665   0.000000
    23  H    2.463512   3.062687   0.000000
    24  H    2.529711   2.465001   1.766150   0.000000
    25  H    4.311037   3.834156   2.453021   2.505496   0.000000
    26  H    3.834896   2.686710   3.059259   2.485782   1.769569
    27  H    5.697497   6.093594   4.138256   5.729145   4.472963
                   26         27
    26  H    0.000000
    27  H    5.376750   0.000000
 Symmetry turned off by external request.
 Stoichiometry    C9H13N3O2
 Framework group  C1[X(C9H13N3O2)]
 Deg. of freedom    75
 Full point group                 C1      NOp   1
 Rotational constants (GHZ):           1.6872609           0.4218232           0.3721494
 Standard basis: 6-31G(d) (6D, 7F)
   236 basis functions,   444 primitive gaussians,   236 cartesian basis functions
    52 alpha electrons       52 beta electrons
       nuclear repulsion energy       932.1336636710 Hartrees.
 NAtoms=   27 NActive=   27 NUniq=   27 SFac= 1.00D+00 NAtFMM=   60 NAOKFM=F Big=F
 Integral buffers will be    131072 words long.
 Raffenetti 1 integral format.
 Two-electron integral symmetry is turned off.
 One-electron integrals computed using PRISM.
 NBasis=   236 RedAO= T EigKep=  1.02D-03  NBF=   236
 NBsUse=   236 1.00D-06 EigRej= -1.00D+00 NBFU=   236
 Initial guess from the checkpoint file:  "/home/alexey/tmp/Gau-1045631.chk"
 B after Tr=     0.055358    0.005355    0.000733
         Rot=    0.999999   -0.001161    0.000497    0.001119 Ang=  -0.19 deg.
 ExpMin= 1.61D-01 ExpMax= 5.48D+03 ExpMxC= 8.25D+02 IAcc=3 IRadAn=         5 AccDes= 0.00D+00
 Harris functional with IExCor=  205 and IRadAn=       5 diagonalized for initial guess.
 HarFok:  IExCor=  205 AccDes= 0.00D+00 IRadAn=         5 IDoV= 1 UseB2=F ITyADJ=14
 ICtDFT=  3500011 ScaDFX=  1.000000  1.000000  1.000000  1.000000
 FoFCou: FMM=F IPFlag=           0 FMFlag=      100000 FMFlg1=           0
         NFxFlg=           0 DoJE=T BraDBF=F KetDBF=T FulRan=T
         wScrn=  0.000000 ICntrl=       500 IOpCl=  0 I1Cent=   200000004 NGrid=           0
         NMat0=    1 NMatS0=      1 NMatT0=    0 NMatD0=    1 NMtDS0=    0 NMtDT0=    0
 Symmetry not used in FoFCou.
 Keep R1 ints in memory in canonical form, NReq=397720213.
 Requested convergence on RMS density matrix=1.00D-08 within 128 cycles.
 Requested convergence on MAX density matrix=1.00D-06.
 Requested convergence on             energy=1.00D-06.
 No special actions if energy rises.
 SCF Done:  E(RHF) =  -661.298174419     A.U. after   15 cycles
            NFock= 15  Conv=0.41D-08     -V/T= 2.0024
 ExpMin= 1.61D-01 ExpMax= 5.48D+03 ExpMxC= 8.25D+02 IAcc=3 IRadAn=         5 AccDes= 0.00D+00
 HarFok:  IExCor=  205 AccDes= 0.00D+00 IRadAn=         5 IDoV=-2 UseB2=F ITyADJ=14
 ICtDFT= 12500011 ScaDFX=  1.000000  1.000000  1.000000  1.000000
 Range of M.O.s used for correlation:    15   236
 NBasis=   236 NAE=    52 NBE=    52 NFC=    14 NFV=     0
 NROrb=    222 NOA=    38 NOB=    38 NVA=   184 NVB=   184
 Fully direct method using O(ONN) memory.
 JobTyp=1 Pass  1:  I=  15 to  52 NPSUse=  4 ParTrn=T ParDer=T DoDerP=T.
 Spin components of T(2) and E(2):
     alpha-alpha T2 =       0.9124471353D-01 E2=     -0.2723248580D+00
     alpha-beta  T2 =       0.4913044599D+00 E2=     -0.1488060672D+01
     beta-beta   T2 =       0.9124471353D-01 E2=     -0.2723248580D+00
 ANorm=    0.1293751865D+01
 E2 =    -0.2032710388D+01 EUMP2 =    -0.66333088480789D+03
          IDoAtm=111111111111111111111111111
          Differentiating once with respect to electric field.
                with respect to dipole field.
          Differentiating once with respect to nuclear coordinates.
 Keep R1 ints in memory in canonical form, NReq=397723379.
          There are     1 degrees of freedom in the 1st order CPHF.  IDoFFX=0 NUNeed=     1.
 LinEq1:  Iter=  0 NonCon=     1 RMS=4.57D-03 Max=1.04D-01 NDo=     1
 AX will form     1 AO Fock derivatives at one time.
 LinEq1:  Iter=  1 NonCon=     1 RMS=1.53D-03 Max=2.71D-02 NDo=     1
 LinEq1:  Iter=  2 NonCon=     1 RMS=6.42D-04 Max=1.77D-02 NDo=     1
 LinEq1:  Iter=  3 NonCon=     1 RMS=2.80D-04 Max=8.17D-03 NDo=     1
 LinEq1:  Iter=  4 NonCon=     1 RMS=8.71D-05 Max=1.94D-03 NDo=     1
 LinEq1:  Iter=  5 NonCon=     1 RMS=3.64D-05 Max=1.78D-03 NDo=     1
 LinEq1:  Iter=  6 NonCon=     1 RMS=1.41D-05 Max=5.34D-04 NDo=     1
 LinEq1:  Iter=  7 NonCon=     1 RMS=5.36D-06 Max=9.81D-05 NDo=     1
 LinEq1:  Iter=  8 NonCon=     1 RMS=2.14D-06 Max=5.23D-05 NDo=     1
 LinEq1:  Iter=  9 NonCon=     1 RMS=7.58D-07 Max=2.27D-05 NDo=     1
[...]
    19  H    2.991125   4.301491   3.512687   0.000000
    20  H    4.375462   4.447242   2.882686   1.768527   0.000000
    21  H    5.096965   6.509939   5.086974   2.499251   2.521049
    22  H    5.248914   6.100183   4.313292   3.070245   2.461464
    23  H    3.695276   6.234864   5.421560   2.704252   3.842933
    24  H    5.133977   7.201200   5.936732   3.849652   4.317111
    25  H    3.821388   6.090080   5.369550   4.171545   4.985066
    26  H    4.495107   5.782983   4.484851   4.036012   4.182291
    27  H    1.089780   4.214959   5.080158   3.584301   5.148747
                   21         22         23         24         25
    21  H    0.000000
    22  H    1.758862   0.000000
    23  H    2.469457   3.062278   0.000000
    24  H    2.517323   2.459876   1.764576   0.000000
    25  H    4.312002   3.839493   2.444108   2.519669   0.000000
    26  H    3.846701   2.704346   3.060429   2.491711   1.767979
    27  H    5.653911   6.061068   4.091091   5.695233   4.454353
                   26         27
    26  H    0.000000
    27  H    5.378543   0.000000
 Symmetry turned off by external request.
 Stoichiometry    C9H13N3O2
 Framework group  C1[X(C9H13N3O2)]
 Deg. of freedom    75
 Full point group                 C1      NOp   1
 Rotational constants (GHZ):           1.6794211           0.4196025           0.3721072

 **********************************************************************

            Population analysis using the SCF Density.

 **********************************************************************

 Alpha  occ. eigenvalues --  -20.59244 -20.58911 -15.84714 -15.64134 -15.56108
 Alpha  occ. eigenvalues --  -11.35018 -11.29622 -11.29568 -11.28622 -11.27134
 Alpha  occ. eigenvalues --  -11.23728 -11.23207 -11.22691 -11.22089  -1.57113
 Alpha  occ. eigenvalues --   -1.36711  -1.30975  -1.23066  -1.14704  -1.09821
 Alpha  occ. eigenvalues --   -1.02804  -1.01306  -0.94487  -0.89682  -0.85564
 Alpha  occ. eigenvalues --   -0.82451  -0.78607  -0.77414  -0.75205  -0.72018
 Alpha  occ. eigenvalues --   -0.69805  -0.69401  -0.67802  -0.64901  -0.63773
 Alpha  occ. eigenvalues --   -0.62372  -0.60279  -0.57699  -0.57001  -0.55080
 Alpha  occ. eigenvalues --   -0.54584  -0.50755  -0.50121  -0.48658  -0.48099
 Alpha  occ. eigenvalues --   -0.47381  -0.46137  -0.46052  -0.43671  -0.41695
 Alpha  occ. eigenvalues --   -0.39850  -0.33827
 Alpha virt. eigenvalues --    0.07461   0.11804   0.17304   0.21842   0.24108
 Alpha virt. eigenvalues --    0.25669   0.27139   0.28701   0.29042   0.29637
 Alpha virt. eigenvalues --    0.30657   0.31788   0.32033   0.32764   0.33945
 Alpha virt. eigenvalues --    0.34383   0.35850   0.37315   0.38581   0.40298
 Alpha virt. eigenvalues --    0.41402   0.42427   0.45004   0.46110   0.46748
 Alpha virt. eigenvalues --    0.47088   0.48981   0.53979   0.57572   0.59369
 Alpha virt. eigenvalues --    0.63907   0.69537   0.69902   0.72866   0.74241
 Alpha virt. eigenvalues --    0.74879   0.75780   0.76685   0.78665   0.79425
 Alpha virt. eigenvalues --    0.81425   0.84684   0.85717   0.85801   0.88534
 Alpha virt. eigenvalues --    0.89420   0.91060   0.92097   0.92844   0.94529
 Alpha virt. eigenvalues --    0.95625   0.98042   0.99625   1.01693   1.02434
 Alpha virt. eigenvalues --    1.03190   1.05869   1.06964   1.07898   1.08990
 Alpha virt. eigenvalues --    1.10322   1.11410   1.11855   1.12419   1.13913
 Alpha virt. eigenvalues --    1.14759   1.14993   1.15825   1.16888   1.18717
 Alpha virt. eigenvalues --    1.19122   1.21321   1.22562   1.23882   1.24537
 Alpha virt. eigenvalues --    1.24675   1.26021   1.27076   1.27457   1.29551
 Alpha virt. eigenvalues --    1.30004   1.33148   1.36052   1.37203   1.40902
 Alpha virt. eigenvalues --    1.41862   1.46322   1.48543   1.51661   1.54201
 Alpha virt. eigenvalues --    1.56286   1.58673   1.59704   1.63577   1.65694
 Alpha virt. eigenvalues --    1.67971   1.68637   1.72987   1.75265   1.77392
 Alpha virt. eigenvalues --    1.81604   1.84525   1.87552   1.90609   1.93375
 Alpha virt. eigenvalues --    1.95804   1.96857   1.99594   2.01647   2.02444
 Alpha virt. eigenvalues --    2.05127   2.05748   2.08468   2.09541   2.12535
 Alpha virt. eigenvalues --    2.13299   2.15274   2.18824   2.20021   2.22336
 Alpha virt. eigenvalues --    2.22624   2.24495   2.25490   2.28209   2.29542
 Alpha virt. eigenvalues --    2.32032   2.33714   2.34659   2.36442   2.38419
 Alpha virt. eigenvalues --    2.40442   2.41876   2.43861   2.45012   2.47444
 Alpha virt. eigenvalues --    2.50718   2.52017   2.53154   2.55580   2.61556
 Alpha virt. eigenvalues --    2.62336   2.65216   2.67588   2.70366   2.70496
 Alpha virt. eigenvalues --    2.72263   2.72654   2.77040   2.78430   2.83665
 Alpha virt. eigenvalues --    2.88559   2.88932   2.92865   2.93278   2.96140
 Alpha virt. eigenvalues --    2.99433   3.01334   3.04238   3.05735   3.07674
 Alpha virt. eigenvalues --    3.09419   3.15075   3.21136   3.25174   3.27455
 Alpha virt. eigenvalues --    3.33386   3.37715   3.38763   3.52154   3.65784
 Alpha virt. eigenvalues --    4.13574   4.27909   4.34518   4.38749   4.46278
 Alpha virt. eigenvalues --    4.56285   4.61903   4.62335   4.73458   4.79661
 Alpha virt. eigenvalues --    4.99410   5.00897   5.05029   5.11165
          Condensed to atoms (all electrons):
               1          2          3          4          5          6
     1  O    8.315651   0.306704  -0.082339  -0.085509   0.004651  -0.000016
     2  N    0.306704   5.724104   0.301067   0.263741  -0.053782   0.000977
     3  O   -0.082339   0.301067   8.353388  -0.092565   0.003757   0.000780
     4  C   -0.085509   0.263741  -0.092565   5.225775   0.560696  -0.047204
     5  C    0.004651  -0.053782   0.003757   0.560696   4.709252   0.317271
     6  N   -0.000016   0.000977   0.000780  -0.047204   0.317271   7.195568
     7  C    0.000004  -0.000140   0.000002   0.004677  -0.030187   0.169277
     8  H   -0.000000   0.000002  -0.000000  -0.000261   0.003102  -0.050648
     9  C   -0.000000  -0.000004  -0.000000   0.000850   0.000625  -0.061683
    10  C    0.000000   0.000000   0.000000  -0.000038  -0.000052   0.003749
    11  C   -0.000000  -0.000000  -0.000000  -0.000028   0.000025  -0.000190
    12  C   -0.000000   0.000002  -0.000000  -0.000127  -0.000177   0.003872
    13  C   -0.000026  -0.000038  -0.000004  -0.011559  -0.000601  -0.047668
    14  H   -0.000004  -0.000104   0.000001   0.002630   0.006037  -0.006939
    15  N    0.000365   0.002389  -0.000017  -0.063655  -0.006343   0.001606
    16  C    0.000858  -0.026972   0.002510   0.327882  -0.050036  -0.001854
    17  H    0.000217  -0.007198   0.017297  -0.023094   0.374501  -0.034156
    18  H    0.000001  -0.000051   0.000012   0.001508  -0.031426   0.338682
    19  H    0.000001  -0.000004   0.000000  -0.001232   0.001231  -0.000354
    20  H    0.000000  -0.000000   0.000000  -0.000079   0.000152  -0.000421
    21  H   -0.000000   0.000000  -0.000000   0.000001   0.000001  -0.000077
    22  H   -0.000000   0.000000  -0.000000  -0.000000  -0.000003  -0.000117
    23  H    0.000000  -0.000000   0.000000   0.000040  -0.000000  -0.000030
    24  H    0.000000   0.000000   0.000000   0.000000  -0.000000   0.000006
    25  H    0.000000  -0.000000   0.000000   0.000024   0.000000  -0.000090
    26  H    0.000000  -0.000000   0.000000   0.000006  -0.000002  -0.000060
    27  H    0.006012  -0.000833   0.000015  -0.063892   0.002226   0.000018
               7          8          9         10         11         12
     1  O    0.000004  -0.000000  -0.000000   0.000000  -0.000000  -0.000000
     2  N   -0.000140   0.000002  -0.000004   0.000000  -0.000000   0.000002
     3  O    0.000002  -0.000000  -0.000000   0.000000  -0.000000  -0.000000
     4  C    0.004677  -0.000261   0.000850  -0.000038  -0.000028  -0.000127
     5  C   -0.030187   0.003102   0.000625  -0.000052   0.000025  -0.000177
     6  N    0.169277  -0.050648  -0.061683   0.003749  -0.000190   0.003872
     7  C    5.017748   0.418395   0.350551  -0.054666  -0.009026  -0.061043
     8  H    0.418395   0.538078  -0.055020   0.000770  -0.000325  -0.002236
     9  C    0.350551  -0.055020   5.158144   0.324791  -0.050418  -0.005336
    10  C   -0.054666   0.000770   0.324791   5.119301   0.336996  -0.060997
    11  C   -0.009026  -0.000325  -0.050418   0.336996   5.119914   0.335976
    12  C   -0.061043  -0.002236  -0.005336  -0.060997   0.335976   5.118628
    13  C    0.338475  -0.037928  -0.060269  -0.000279  -0.050698   0.371960
    14  H   -0.046610  -0.000746   0.004423  -0.000405   0.004195  -0.036322
    15  N   -0.057929   0.003897  -0.014587   0.001559  -0.013044  -0.082033
    16  C   -0.001807   0.000012  -0.001277  -0.000029   0.000029   0.002623
    17  H    0.001618  -0.000046  -0.000069   0.000001   0.000000   0.000000
    18  H   -0.021223  -0.004482   0.001333  -0.000083   0.000004  -0.000114
    19  H   -0.036869   0.004362   0.390233  -0.032074  -0.002212   0.000688
    20  H   -0.042417  -0.002076   0.399492  -0.035300   0.003931  -0.000415
    21  H    0.004599  -0.000076  -0.036355   0.402431  -0.034897   0.004349
    22  H   -0.004850   0.003559  -0.046955   0.397753  -0.045403  -0.001022
    23  H    0.000576   0.000035  -0.001958  -0.039020   0.399180  -0.037866
    24  H   -0.000130  -0.000102   0.004388  -0.038439   0.402343  -0.038690
    25  H    0.005150  -0.000024  -0.000423   0.004190  -0.033398   0.398276
    26  H   -0.003907   0.001685   0.000969  -0.002233  -0.041484   0.396722
    27  H   -0.000409   0.000009  -0.000058   0.000007   0.000012  -0.000036
              13         14         15         16         17         18
     1  O   -0.000026  -0.000004   0.000365   0.000858   0.000217   0.000001
     2  N   -0.000038  -0.000104   0.002389  -0.026972  -0.007198  -0.000051
     3  O   -0.000004   0.000001  -0.000017   0.002510   0.017297   0.000012
     4  C   -0.011559   0.002630  -0.063655   0.327882  -0.023094   0.001508
     5  C   -0.000601   0.006037  -0.006343  -0.050036   0.374501  -0.031426
     6  N   -0.047668  -0.006939   0.001606  -0.001854  -0.034156   0.338682
     7  C    0.338475  -0.046610  -0.057929  -0.001807   0.001618  -0.021223
     8  H   -0.037928  -0.000746   0.003897   0.000012  -0.000046  -0.004482
     9  C   -0.060269   0.004423  -0.014587  -0.001277  -0.000069   0.001333
    10  C   -0.000279  -0.000405   0.001559  -0.000029   0.000001  -0.000083
    11  C   -0.050698   0.004195  -0.013044   0.000029   0.000000   0.000004
    12  C    0.371960  -0.036322  -0.082033   0.002623   0.000000  -0.000114
    13  C    5.040235   0.403118   0.244943  -0.071222  -0.000010   0.002966
    14  H    0.403118   0.526777  -0.037393  -0.004513   0.000092  -0.000109
    15  N    0.244943  -0.037393   6.964819   0.585380  -0.000079  -0.000132
    16  C   -0.071222  -0.004513   0.585380   4.709484   0.002023  -0.000197
    17  H   -0.000010   0.000092  -0.000079   0.002023   0.376659  -0.002816
    18  H    0.002966  -0.000109  -0.000132  -0.000197  -0.002816   0.310593
    19  H   -0.007542   0.000106   0.007691   0.003007   0.000016  -0.000149
    20  H    0.004340  -0.000066   0.000126  -0.000036   0.000002   0.000803
    21  H   -0.000433   0.000010  -0.000041   0.000004  -0.000000   0.000001
    22  H    0.000046  -0.000055   0.000019  -0.000002   0.000000   0.000001
    23  H   -0.007518   0.000003   0.008584   0.000105   0.000000   0.000000
    24  H    0.004699  -0.000057   0.000135   0.000007   0.000000  -0.000000
    25  H   -0.035559  -0.002817   0.000409  -0.000022  -0.000000   0.000002
    26  H   -0.047401  -0.001046   0.004896  -0.000062   0.000000  -0.000000
    27  H    0.005078  -0.000173  -0.040205   0.403815  -0.000079   0.000001
              19         20         21         22         23         24
     1  O    0.000001   0.000000  -0.000000  -0.000000   0.000000   0.000000
     2  N   -0.000004  -0.000000   0.000000   0.000000  -0.000000   0.000000
     3  O    0.000000   0.000000  -0.000000  -0.000000   0.000000   0.000000
     4  C   -0.001232  -0.000079   0.000001  -0.000000   0.000040   0.000000
     5  C    0.001231   0.000152   0.000001  -0.000003  -0.000000  -0.000000
     6  N   -0.000354  -0.000421  -0.000077  -0.000117  -0.000030   0.000006
     7  C   -0.036869  -0.042417   0.004599  -0.004850   0.000576  -0.000130
     8  H    0.004362  -0.002076  -0.000076   0.003559   0.000035  -0.000102
     9  C    0.390233   0.399492  -0.036355  -0.046955  -0.001958   0.004388
    10  C   -0.032074  -0.035300   0.402431   0.397753  -0.039020  -0.038439
    11  C   -0.002212   0.003931  -0.034897  -0.045403   0.399180   0.402343
    12  C    0.000688  -0.000415   0.004349  -0.001022  -0.037866  -0.038690
    13  C   -0.007542   0.004340  -0.000433   0.000046  -0.007518   0.004699
    14  H    0.000106  -0.000066   0.000010  -0.000055   0.000003  -0.000057
    15  N    0.007691   0.000126  -0.000041   0.000019   0.008584   0.000135
    16  C    0.003007  -0.000036   0.000004  -0.000002   0.000105   0.000007
    17  H    0.000016   0.000002  -0.000000   0.000000   0.000000   0.000000
    18  H   -0.000149   0.000803   0.000001   0.000001   0.000000  -0.000000
    19  H    0.504994  -0.024737  -0.002787   0.003959   0.001514  -0.000066
    20  H   -0.024737   0.541112  -0.002692  -0.002990  -0.000045  -0.000083
    21  H   -0.002787  -0.002692   0.524034  -0.027404  -0.002898  -0.002242
    22  H    0.003959  -0.002990  -0.027404   0.571325   0.004137  -0.003656
    23  H    0.001514  -0.000045  -0.002898   0.004137   0.498976  -0.025452
    24  H   -0.000066  -0.000083  -0.002242  -0.003656  -0.025452   0.538127
    25  H   -0.000029   0.000012  -0.000087  -0.000080  -0.002318  -0.002291
    26  H    0.000019  -0.000030  -0.000081   0.002380   0.004067  -0.003035
    27  H    0.000083   0.000000  -0.000000   0.000000  -0.000035  -0.000000
              25         26         27
     1  O    0.000000   0.000000   0.006012
     2  N   -0.000000  -0.000000  -0.000833
     3  O    0.000000   0.000000   0.000015
     4  C    0.000024   0.000006  -0.063892
     5  C    0.000000  -0.000002   0.002226
     6  N   -0.000090  -0.000060   0.000018
     7  C    0.005150  -0.003907  -0.000409
     8  H   -0.000024   0.001685   0.000009
     9  C   -0.000423   0.000969  -0.000058
    10  C    0.004190  -0.002233   0.000007
    11  C   -0.033398  -0.041484   0.000012
    12  C    0.398276   0.396722  -0.000036
    13  C   -0.035559  -0.047401   0.005078
    14  H   -0.002817  -0.001046  -0.000173
    15  N    0.000409   0.004896  -0.040205
    16  C   -0.000022  -0.000062   0.403815
    17  H   -0.000000   0.000000  -0.000079
    18  H    0.000002  -0.000000   0.000001
    19  H   -0.000029   0.000019   0.000083
    20  H    0.000012  -0.000030   0.000000
    21  H   -0.000087  -0.000081  -0.000000
    22  H   -0.000080   0.002380   0.000000
    23  H   -0.002318   0.004067  -0.000035
    24  H   -0.002291  -0.003035  -0.000000
    25  H    0.506078  -0.024082  -0.000013
    26  H   -0.024082   0.562338   0.000001
    27  H   -0.000013   0.000001   0.440280
 Mulliken charges:
               1
     1  O   -0.466570
     2  N    0.490140
     3  O   -0.503903
     4  C    0.001414
     5  C    0.189080
     6  N   -0.780301
     7  C    0.060142
     8  H    0.180066
     9  C   -0.301389
    10  C   -0.327933
    11  C   -0.321481
    12  C   -0.306682
    13  C   -0.037107
    14  H    0.189966
    15  N   -0.511361
    16  C    0.120292
    17  H    0.295119
    18  H    0.404875
    19  H    0.190151
    20  H    0.161417
    21  H    0.174642
    22  H    0.149357
    23  H    0.199924
    24  H    0.164538
    25  H    0.187091
    26  H    0.150337
    27  H    0.248176
 Sum of Mulliken charges =  -0.00000
 Mulliken charges with hydrogens summed into heavy atoms:
               1
     1  O   -0.466570
     2  N    0.490140
     3  O   -0.503903
     4  C    0.001414
     5  C    0.484199
     6  N   -0.375426
     7  C    0.240208
     9  C    0.050180
    10  C   -0.003934
    11  C    0.042981
    12  C    0.030746
    13  C    0.152859
    15  N   -0.511361
    16  C    0.368468
 Electronic spatial extent (au):  <R**2>=           3004.8565
 Charge=              0.0000 electrons
 Dipole moment (field-independent basis, Debye):
    X=              5.4121    Y=              4.7955    Z=              1.2971  Tot=              7.3465
 Quadrupole moment (field-independent basis, Debye-Ang):
   XX=           -106.1079   YY=            -79.2874   ZZ=            -81.4453
   XY=             -1.7624   XZ=             -0.1978   YZ=              1.9987
 Traceless Quadrupole moment (field-independent basis, Debye-Ang):
   XX=            -17.1610   YY=              9.6595   ZZ=              7.5015
   XY=             -1.7624   XZ=             -0.1978   YZ=              1.9987
 Octapole moment (field-independent basis, Debye-Ang**2):
  XXX=             92.2056  YYY=             36.2738  ZZZ=             -1.3523  XYY=             -4.3865
  XXY=              9.4646  XXZ=              5.3630  XZZ=             -9.9356  YZZ=             -0.4262
  YYZ=              8.0560  XYZ=             -0.2295
 Hexadecapole moment (field-independent basis, Debye-Ang**3):
 XXXX=          -3380.3352 YYYY=           -602.3690 ZZZZ=           -302.9473 XXXY=            -20.3920
 XXXZ=            -16.5224 YYYX=             -8.9043 YYYZ=             26.0586 ZZZX=              0.7658
 ZZZY=              7.9763 XXYY=           -628.4510 XXZZ=           -522.9321 YYZZ=           -157.2625
 XXYZ=             -2.3152 YYXZ=              1.4513 ZZXY=              4.9568
 N-N= 9.312537885993D+02 E-N=-3.409223729234D+03  KE= 6.596287997954D+02
 Unable to Open any file for archive entry.
 1\1\GINC-LOTUS\FOpt\RMP2-FC\6-31G(d)\C9H13N3O2\ALEXEY\30-Jun-2023\0\\#
 MP2/6-31G* SCF=Tight Opt=(ModRedun, MaxCycle=20 ) NoSymm\\MolName:\\0,
 1\O,-3.5057813964,-1.3958110912,-0.3448247383\N,-3.1204142581,-0.23121
 90548,-0.1229530263\O,-3.8943299017,0.7352920736,0.0196446832\C,-1.686
 4994989,-0.0227116298,-0.0106380368\C,-1.3012867808,1.2615211153,0.275
 1358449\N,-0.0569653987,1.7502018523,0.3891121812\C,1.2054843709,1.023
 4024532,0.3613003885\H,1.8532740253,1.5510070708,1.077625178\C,1.90924
 47245,1.0362741966,-0.9943962366\C,3.3075076513,0.4291592846,-0.830996
 4383\C,3.259203096,-0.9678264789,-0.2064242689\C,2.4640203096,-0.98016
 4969,1.1009110248\C,1.0543554802,-0.4259995621,0.8650308616\H,0.477714
 9108,-0.4058870046,1.803404466\N,0.4077411867,-1.3180309281,-0.0924023
 547\C,-0.8395245895,-1.137419687,-0.3873272498\H,-2.0959727018,1.98887
 81858,0.4170310957\H,0.0021410094,2.7346850122,0.6211074406\H,1.314986
 0115,0.4599375582,-1.7114728677\H,1.9754357007,2.0647240737,-1.3706600
 179\H,3.8116279219,0.3923789185,-1.8034994908\H,3.9072989956,1.0944556
 744,-0.1936765654\H,2.7815235749,-1.663542443,-0.9033390651\H,4.278289
 9134,-1.3317451681,-0.0296507977\H,2.3784066713,-2.0026142904,1.483330
 1822\H,2.9739615907,-0.3834579051,1.8698501079\H,-1.3014226187,-1.8915
 072569,-1.0242123003\\Version=ES64L-G16RevC.02\HF=-661.3003165\MP2=-66
 3.334644\RMSD=8.288e-09\RMSF=5.095e-05\Dipole=1.9784882,1.6916186,0.47
 68663\PG=C01 [X(C9H13N3O2)]\\@
 The archive entry for this job was punched.


 O WAD SOME POWER THE GIFTIE GIE US       
 TO SEE OURSELS AS OTHERS SEE US.....     
 IT WOULD FRAE MONIE A BLUNDER FREE US,   
                     AND FOOLISH NOTION...
 WHAT AIRS IN DRESS AND GAIT WAD LEA'E US,
                     AND EV'N DEVOTION....
                                          
              (ROBERT BURNS 'TO A LOUSE') 
 Job cpu time:       0 days  1 hours 22 minutes  1.5 seconds.
 Elapsed time:       0 days  0 hours 24 minutes 26.9 seconds.
 File lengths (MBytes):  RWF=     36 Int=      0 D2E=      0 Chk=      7 Scr=      1
 Normal termination of Gaussian 16 at Fri Jun 30 00:56:39 2023.
