 Entering Gaussian System, Link 0=g16
 Initial command:
 /home/alexey/programs//g16/l1.exe "/home/alexey/tmp/Gau-1159627.inp" -scrdir="/home/alexey/tmp/"
 Entering Link 1 = /home/alexey/programs//g16/l1.exe PID=   1159629.
  
 Copyright (c) 1988-2021, Gaussian, Inc.  All Rights Reserved.
  
 This is part of the Gaussian(R) 16 program.  It is based on
 the Gaussian(R) 09 system (copyright 2009, Gaussian, Inc.),
 the Gaussian(R) 03 system (copyright 2003, Gaussian, Inc.),
 the Gaussian(R) 98 system (copyright 1998, Gaussian, Inc.),
 the Gaussian(R) 94 system (copyright 1995, Gaussian, Inc.),
 the Gaussian 92(TM) system (copyright 1992, Gaussian, Inc.),
 the Gaussian 90(TM) system (copyright 1990, Gaussian, Inc.),
 the Gaussian 88(TM) system (copyright 1988, Gaussian, Inc.),
 the Gaussian 86(TM) system (copyright 1986, Carnegie Mellon
 University), and the Gaussian 82(TM) system (copyright 1983,
 Carnegie Mellon University). Gaussian is a federally registered
 trademark of Gaussian, Inc.
  
 This software contains proprietary and confidential information,
 including trade secrets, belonging to Gaussian, Inc.
  
 This software is provided under written license and may be
 used, copied, transmitted, or stored only in accord with that
 written license.
  
 The following legend is applicable only to US Government
 contracts under FAR:
  
                    RESTRICTED RIGHTS LEGEND
  
 Use, reproduction and disclosure by the US Government is
 subject to restrictions as set forth in subparagraphs (a)
 and (c) of the Commercial Computer Software - Restricted
 Rights clause in FAR 52.227-19.
  
 Gaussian, Inc.
 340 Quinnipiac St., Bldg. 40, Wallingford CT 06492
  
  
 ---------------------------------------------------------------
 Warning -- This program may not be used in any manner that
 competes with the business of Gaussian, Inc. or will provide
 assistance to any competitor of Gaussian, Inc.  The licensee
 of this program is prohibited from giving any competitor of
 Gaussian, Inc. access to this program.  By using this program,
 the user acknowledges that Gaussian, Inc. is engaged in the
 business of creating and licensing software in the field of
 computational chemistry and represents and warrants to the
 licensee that it is not a competitor of Gaussian, Inc. and that
 it will not use this program in any manner prohibited above.
 ---------------------------------------------------------------
  

 Cite this work as:
 Gaussian 16, Revision C.02,
 M. J. Frisch, G. W. Trucks, H. B. Schlegel, G. E. Scuseria, 
 M. A. Robb, J. R. Cheeseman, G. Scalmani, V. Barone, 
 G. A. Petersson, H. Nakatsuji, X. Li, M. Caricato, A. V. Marenich, 
 J. Bloino, B. G. Janesko, R. Gomperts, B. Mennucci, H. P. Hratchian, 
 J. V. Ortiz, A. F. Izmaylov, J. L. Sonnenberg, D. Williams-Young, 
 F. Ding, F. Lipparini, F. Egidi, J. Goings, B. Peng, A. Petrone, 
 T. Henderson, D. Ranasinghe, V. G. Zakrzewski, J. Gao, N. Rega, 
 G. Zheng, W. Liang, M. Hada, M. Ehara, K. Toyota, R. Fukuda, 
 J. Hasegawa, M. Ishida, T. Nakajima, Y. Honda, O. Kitao, H. Nakai, 
 T. Vreven, K. Throssell, J. A. Montgomery, Jr., J. E. Peralta, 
 F. Ogliaro, M. J. Bearpark, J. J. Heyd, E. N. Brothers, K. N. Kudin, 
 V. N. Staroverov, T. A. Keith, R. Kobayashi, J. Normand, 
 K. Raghavachari, A. P. Rendell, J. C. Burant, S. S. Iyengar, 
 J. Tomasi, M. Cossi, J. M. Millam, M. Klene, C. Adamo, R. Cammi, 
 J. W. Ochterski, R. L. Martin, K. Morokuma, O. Farkas, 
 J. B. Foresman, and D. J. Fox, Gaussian, Inc., Wallingford CT, 2019.
 
 ******************************************
 Gaussian 16:  ES64L-G16RevC.02  7-Dec-2021
                30-Jun-2023 
 ******************************************
 %mem=8GB
 %NPROCS=4
 Will use up to    4 processors via shared memory.
 %NoSave
 ---------------------------------------------------------
 #MP2/6-31G* SCF=Tight Opt=(ModRedun, MaxCycle=20 ) NoSymm
 ---------------------------------------------------------
 1/6=20,18=120,19=15,38=1/1,3;
 2/9=110,12=2,15=1,17=6,18=5,40=1/2;
 3/5=1,6=6,7=1,11=9,25=1,30=1,71=1/1,2,3;
 4//1;
 5/5=2,32=2,38=5/2;
 8/6=4,10=2/1;
 9/15=2,16=-3/6;
 10/5=1,31=1/2;
 6/7=2,8=2,9=2,10=2/1;
 7/12=2,30=1/1,2,3,16;
 1/6=20,18=20,19=15/3(2);
 2/9=110,15=1/2;
 99//99;
 2/9=110,15=1/2;
 3/5=1,6=6,7=1,11=9,25=1,30=1,71=1/1,2,3;
 4/5=5,16=3,69=1/1;
 5/5=2,32=2,38=5/2;
 8/6=4,10=2/1;
 9/15=2,16=-3/6;
 10/5=1,31=1/2;
 7/12=2,30=1/1,2,3,16;
 1/6=20,18=20,19=15/3(-8);
 2/9=110,15=1/2;
 6/7=2,8=2,9=2,10=2/1;
 99/9=10/99;
 --------
 MolName:
 --------
 Symbolic Z-matrix:
 Charge =  0 Multiplicity = 1
 8                    0    -3.99941   0.63565  -0.4001 
 7                    0    -3.24154  -0.26915  -0.04926 
 8                    0    -3.60981  -1.39159   0.29137 
 6                    0    -1.74996   0.00263  -0.04976 
 6                    0    -1.37025   1.33452   0.13805 
 7                    0    -0.08425   1.7964    0.24287 
 6                    0     1.19476   1.0238    0.28575 
 1                    0     1.8592    1.59001   0.98894 
 6                    0     1.95786   0.94809  -1.06029 
 6                    0     3.37022   0.38229  -0.81788 
 6                    0     3.30931  -0.97143  -0.09277 
 6                    0     2.46231  -0.88359   1.19506 
 6                    0     1.02489  -0.37471   0.89915 
 1                    0     0.47598  -0.32185   1.86857 
 7                    0     0.3687   -1.33556   0.00838 
 6                    0    -0.87324  -1.16666  -0.3068 
 1                    0    -2.16514   2.08951   0.25868 
 1                    0     0.15145   2.76128  -0.00155 
 1                    0     1.40766   0.30093  -1.77607 
 1                    0     2.04345   1.96028  -1.50951 
 1                    0     3.90397   0.26675  -1.78656 
 1                    0     3.94782   1.09844  -0.19165 
 1                    0     2.86177  -1.7286   -0.77552 
 1                    0     4.33763  -1.31289   0.15664 
 1                    0     2.4049   -1.89004   1.66464 
 1                    0     2.95641  -0.20071   1.91754 
 1                    0    -1.3837   -1.98277  -0.84093 
 
 The following ModRedundant input section has been read:
 D       1       2       4      16 F                                           
 D       7      13      15      16 F                                           
 D       7       9      10      11 F                                           
 D       9      10      11      12 F                                           
 D       6       7      13      15 F                                           
 

 GradGradGradGradGradGradGradGradGradGradGradGradGradGradGradGradGradGrad
 Berny optimization.
 Initialization pass.
                           ----------------------------
                           !    Initial Parameters    !
                           ! (Angstroms and Degrees)  !
 --------------------------                            --------------------------
 ! Name  Definition              Value          Derivative Info.                !
 --------------------------------------------------------------------------------
 ! R1    R(1,2)                  1.2313         estimate D2E/DX2                !
 ! R2    R(2,3)                  1.2294         estimate D2E/DX2                !
 ! R3    R(2,4)                  1.5161         estimate D2E/DX2                !
 ! R4    R(4,5)                  1.3976         estimate D2E/DX2                !
 ! R5    R(4,16)                 1.4839         estimate D2E/DX2                !
 ! R6    R(5,6)                  1.3704         estimate D2E/DX2                !
 ! R7    R(5,17)                 1.1029         estimate D2E/DX2                !
 ! R8    R(6,7)                  1.4949         estimate D2E/DX2                !
 ! R9    R(6,18)                 1.0229         estimate D2E/DX2                !
 ! R10   R(7,8)                  1.121          estimate D2E/DX2                !
 ! R11   R(7,9)                  1.5492         estimate D2E/DX2                !
 ! R12   R(7,13)                 1.5365         estimate D2E/DX2                !
 ! R13   R(9,10)                 1.5407         estimate D2E/DX2                !
 ! R14   R(9,19)                 1.1108         estimate D2E/DX2                !
 ! R15   R(9,20)                 1.1107         estimate D2E/DX2                !
 ! R16   R(10,11)                1.5369         estimate D2E/DX2                !
 ! R17   R(10,21)                1.112          estimate D2E/DX2                !
 ! R18   R(10,22)                1.1129         estimate D2E/DX2                !
 ! R19   R(11,12)                1.5439         estimate D2E/DX2                !
 ! R20   R(11,23)                1.1134         estimate D2E/DX2                !
 ! R21   R(11,24)                1.1119         estimate D2E/DX2                !
 ! R22   R(12,13)                1.5533         estimate D2E/DX2                !
 ! R23   R(12,25)                1.1121         estimate D2E/DX2                !
 ! R24   R(12,26)                1.1102         estimate D2E/DX2                !
 ! R25   R(13,14)                1.1153         estimate D2E/DX2                !
 ! R26   R(13,15)                1.4654         estimate D2E/DX2                !
 ! R27   R(15,16)                1.2924         estimate D2E/DX2                !
 ! R28   R(16,27)                1.1009         estimate D2E/DX2                !
 ! A1    A(1,2,3)              124.4336         estimate D2E/DX2                !
 ! A2    A(1,2,4)              118.2755         estimate D2E/DX2                !
 ! A3    A(3,2,4)              117.2864         estimate D2E/DX2                !
 ! A4    A(2,4,5)              115.9802         estimate D2E/DX2                !
 ! A5    A(2,4,16)             116.1075         estimate D2E/DX2                !
 ! A6    A(5,4,16)             127.8562         estimate D2E/DX2                !
 ! A7    A(4,5,6)              125.9015         estimate D2E/DX2                !
 ! A8    A(4,5,17)             118.1144         estimate D2E/DX2                !
 ! A9    A(6,5,17)             115.9275         estimate D2E/DX2                !
 ! A10   A(5,6,7)              129.1156         estimate D2E/DX2                !
 ! A11   A(5,6,18)             121.0557         estimate D2E/DX2                !
 ! A12   A(7,6,18)             107.2913         estimate D2E/DX2                !
 ! A13   A(6,7,8)              105.3127         estimate D2E/DX2                !
 ! A14   A(6,7,9)              114.9481         estimate D2E/DX2                !
 ! A15   A(6,7,13)             112.7848         estimate D2E/DX2                !
 ! A16   A(8,7,9)              106.1271         estimate D2E/DX2                !
 ! A17   A(8,7,13)             105.9524         estimate D2E/DX2                !
 ! A18   A(9,7,13)             110.9065         estimate D2E/DX2                !
 ! A19   A(7,9,10)             109.4391         estimate D2E/DX2                !
 ! A20   A(7,9,19)             110.1439         estimate D2E/DX2                !
 ! A21   A(7,9,20)             110.1721         estimate D2E/DX2                !
 ! A22   A(10,9,19)            109.9681         estimate D2E/DX2                !
 ! A23   A(10,9,20)            109.1272         estimate D2E/DX2                !
 ! A24   A(19,9,20)            107.9679         estimate D2E/DX2                !
 ! A25   A(9,10,11)            111.1847         estimate D2E/DX2                !
 ! A26   A(9,10,21)            109.9444         estimate D2E/DX2                !
 ! A27   A(9,10,22)            109.1464         estimate D2E/DX2                !
 ! A28   A(11,10,21)           109.785          estimate D2E/DX2                !
 ! A29   A(11,10,22)           108.7763         estimate D2E/DX2                !
 ! A30   A(21,10,22)           107.9329         estimate D2E/DX2                !
 ! A31   A(10,11,12)           111.4185         estimate D2E/DX2                !
 ! A32   A(10,11,23)           109.0022         estimate D2E/DX2                !
 ! A33   A(10,11,24)           109.8575         estimate D2E/DX2                !
 ! A34   A(12,11,23)           109.2485         estimate D2E/DX2                !
 ! A35   A(12,11,24)           109.7398         estimate D2E/DX2                !
 ! A36   A(23,11,24)           107.4847         estimate D2E/DX2                !
 ! A37   A(11,12,13)           111.5565         estimate D2E/DX2                !
 ! A38   A(11,12,25)           109.2109         estimate D2E/DX2                !
 ! A39   A(11,12,26)           109.4922         estimate D2E/DX2                !
 ! A40   A(13,12,25)           109.218          estimate D2E/DX2                !
 ! A41   A(13,12,26)           109.5318         estimate D2E/DX2                !
 ! A42   A(25,12,26)           107.7503         estimate D2E/DX2                !
 ! A43   A(7,13,12)            105.7791         estimate D2E/DX2                !
 ! A44   A(7,13,14)            110.9939         estimate D2E/DX2                !
 ! A45   A(7,13,15)            113.8059         estimate D2E/DX2                !
 ! A46   A(12,13,14)           107.7818         estimate D2E/DX2                !
 ! A47   A(12,13,15)           108.3839         estimate D2E/DX2                !
 ! A48   A(14,13,15)           109.8198         estimate D2E/DX2                !
 ! A49   A(13,15,16)           119.5295         estimate D2E/DX2                !
 ! A50   A(4,16,15)            128.9392         estimate D2E/DX2                !
 ! A51   A(4,16,27)            113.2191         estimate D2E/DX2                !
 ! A52   A(15,16,27)           117.8417         estimate D2E/DX2                !
 ! D1    D(1,2,4,5)             27.494          estimate D2E/DX2                !
 ! D2    D(1,2,4,16)          -149.9995         Frozen                          !
 ! D3    D(3,2,4,5)           -153.2392         estimate D2E/DX2                !
 ! D4    D(3,2,4,16)            29.2672         estimate D2E/DX2                !
 ! D5    D(2,4,5,6)            176.3548         estimate D2E/DX2                !
 ! D6    D(2,4,5,17)            -0.7899         estimate D2E/DX2                !
 ! D7    D(16,4,5,6)            -6.4961         estimate D2E/DX2                !
 ! D8    D(16,4,5,17)          176.3592         estimate D2E/DX2                !
 ! D9    D(2,4,16,15)         -157.506          estimate D2E/DX2                !
 ! D10   D(2,4,16,27)           22.5032         estimate D2E/DX2                !
 ! D11   D(5,4,16,15)           25.348          estimate D2E/DX2                !
 ! D12   D(5,4,16,27)         -154.6428         estimate D2E/DX2                !
 ! D13   D(4,5,6,7)             -4.9146         estimate D2E/DX2                !
 ! D14   D(4,5,6,18)           154.613          estimate D2E/DX2                !
 ! D15   D(17,5,6,7)           172.2852         estimate D2E/DX2                !
 ! D16   D(17,5,6,18)          -28.1872         estimate D2E/DX2                !
 ! D17   D(5,6,7,8)           -144.316          estimate D2E/DX2                !
 ! D18   D(5,6,7,9)             99.2602         estimate D2E/DX2                !
 ! D19   D(5,6,7,13)           -29.2232         estimate D2E/DX2                !
 ! D20   D(18,6,7,8)            53.9728         estimate D2E/DX2                !
 ! D21   D(18,6,7,9)           -62.4509         estimate D2E/DX2                !
 ! D22   D(18,6,7,13)          169.0656         estimate D2E/DX2                !
 ! D23   D(6,7,9,10)           168.6524         estimate D2E/DX2                !
 ! D24   D(6,7,9,19)           -70.3371         estimate D2E/DX2                !
 ! D25   D(6,7,9,20)            48.6633         estimate D2E/DX2                !
 ! D26   D(8,7,9,10)            52.6947         estimate D2E/DX2                !
 ! D27   D(8,7,9,19)           173.7051         estimate D2E/DX2                !
 ! D28   D(8,7,9,20)           -67.2945         estimate D2E/DX2                !
 ! D29   D(13,7,9,10)          -61.9325         estimate D2E/DX2                !
 ! D30   D(13,7,9,19)           59.0779         estimate D2E/DX2                !
 ! D31   D(13,7,9,20)          178.0783         estimate D2E/DX2                !
 ! D32   D(6,7,13,12)         -166.1041         estimate D2E/DX2                !
 ! D33   D(6,7,13,14)          -49.466          estimate D2E/DX2                !
 ! D34   D(6,7,13,15)           75.0225         Frozen                          !
 ! D35   D(8,7,13,12)          -51.397          estimate D2E/DX2                !
 ! D36   D(8,7,13,14)           65.2411         estimate D2E/DX2                !
 ! D37   D(8,7,13,15)         -170.2704         estimate D2E/DX2                !
 ! D38   D(9,7,13,12)           63.3395         estimate D2E/DX2                !
 ! D39   D(9,7,13,14)          179.9776         estimate D2E/DX2                !
 ! D40   D(9,7,13,15)          -55.5339         estimate D2E/DX2                !
 ! D41   D(7,9,10,11)           54.8123         Frozen                          !
 ! D42   D(7,9,10,21)          176.6034         estimate D2E/DX2                !
 ! D43   D(7,9,10,22)          -65.1861         estimate D2E/DX2                !
 ! D44   D(19,9,10,11)         -66.3047         estimate D2E/DX2                !
 ! D45   D(19,9,10,21)          55.4864         estimate D2E/DX2                !
 ! D46   D(19,9,10,22)         173.6969         estimate D2E/DX2                !
 ! D47   D(20,9,10,11)         175.4397         estimate D2E/DX2                !
 ! D48   D(20,9,10,21)         -62.7692         estimate D2E/DX2                !
 ! D49   D(20,9,10,22)          55.4413         estimate D2E/DX2                !
 ! D50   D(9,10,11,12)         -52.8223         Frozen                          !
 ! D51   D(9,10,11,23)          67.816          estimate D2E/DX2                !
 ! D52   D(9,10,11,24)        -174.653          estimate D2E/DX2                !
 ! D53   D(21,10,11,12)       -174.7062         estimate D2E/DX2                !
 ! D54   D(21,10,11,23)        -54.0678         estimate D2E/DX2                !
 ! D55   D(21,10,11,24)         63.4631         estimate D2E/DX2                !
 ! D56   D(22,10,11,12)         67.3953         estimate D2E/DX2                !
 ! D57   D(22,10,11,23)       -171.9664         estimate D2E/DX2                !
 ! D58   D(22,10,11,24)        -54.4354         estimate D2E/DX2                !
 ! D59   D(10,11,12,13)         56.6534         estimate D2E/DX2                !
 ! D60   D(10,11,12,25)        177.4801         estimate D2E/DX2                !
 ! D61   D(10,11,12,26)        -64.7569         estimate D2E/DX2                !
 ! D62   D(23,11,12,13)        -63.8403         estimate D2E/DX2                !
 ! D63   D(23,11,12,25)         56.9864         estimate D2E/DX2                !
 ! D64   D(23,11,12,26)        174.7494         estimate D2E/DX2                !
 ! D65   D(24,11,12,13)        178.5523         estimate D2E/DX2                !
 ! D66   D(24,11,12,25)        -60.621          estimate D2E/DX2                !
 ! D67   D(24,11,12,26)         57.142          estimate D2E/DX2                !
 ! D68   D(11,12,13,7)         -60.4226         estimate D2E/DX2                !
 ! D69   D(11,12,13,14)       -179.2128         estimate D2E/DX2                !
 ! D70   D(11,12,13,15)         61.9835         estimate D2E/DX2                !
 ! D71   D(25,12,13,7)         178.7548         estimate D2E/DX2                !
 ! D72   D(25,12,13,14)         59.9646         estimate D2E/DX2                !
 ! D73   D(25,12,13,15)        -58.8391         estimate D2E/DX2                !
 ! D74   D(26,12,13,7)          60.9647         estimate D2E/DX2                !
 ! D75   D(26,12,13,14)        -57.8255         estimate D2E/DX2                !
 ! D76   D(26,12,13,15)       -176.6293         estimate D2E/DX2                !
 ! D77   D(7,13,15,16)         -67.1595         Frozen                          !
 ! D78   D(12,13,15,16)        175.4648         estimate D2E/DX2                !
 ! D79   D(14,13,15,16)         57.9575         estimate D2E/DX2                !
 ! D80   D(13,15,16,4)           9.6589         estimate D2E/DX2                !
 ! D81   D(13,15,16,27)       -170.3507         estimate D2E/DX2                !
 --------------------------------------------------------------------------------
 Trust Radius=3.00D-01 FncErr=1.00D-07 GrdErr=1.00D-07 EigMax=2.50D+02 EigMin=1.00D-04
 Number of steps in this run=     20 maximum allowed number of steps=    162.
 GradGradGradGradGradGradGradGradGradGradGradGradGradGradGradGradGradGrad

                          Input orientation:                          
 ---------------------------------------------------------------------
 Center     Atomic      Atomic             Coordinates (Angstroms)
 Number     Number       Type             X           Y           Z
 ---------------------------------------------------------------------
      1          8           0       -3.999410    0.635650   -0.400100
      2          7           0       -3.241540   -0.269150   -0.049260
      3          8           0       -3.609810   -1.391590    0.291370
      4          6           0       -1.749960    0.002630   -0.049760
      5          6           0       -1.370250    1.334520    0.138050
      6          7           0       -0.084250    1.796400    0.242870
      7          6           0        1.194760    1.023800    0.285750
      8          1           0        1.859200    1.590010    0.988940
      9          6           0        1.957860    0.948090   -1.060290
     10          6           0        3.370220    0.382290   -0.817880
     11          6           0        3.309310   -0.971430   -0.092770
     12          6           0        2.462310   -0.883590    1.195060
     13          6           0        1.024890   -0.374710    0.899150
     14          1           0        0.475980   -0.321850    1.868570
     15          7           0        0.368700   -1.335560    0.008380
     16          6           0       -0.873240   -1.166660   -0.306800
     17          1           0       -2.165140    2.089510    0.258680
     18          1           0        0.151450    2.761280   -0.001550
     19          1           0        1.407660    0.300930   -1.776070
     20          1           0        2.043450    1.960280   -1.509510
     21          1           0        3.903970    0.266750   -1.786560
     22          1           0        3.947820    1.098440   -0.191650
     23          1           0        2.861770   -1.728600   -0.775520
     24          1           0        4.337630   -1.312890    0.156640
     25          1           0        2.404900   -1.890040    1.664640
     26          1           0        2.956410   -0.200710    1.917540
     27          1           0       -1.383700   -1.982770   -0.840930
 ---------------------------------------------------------------------
                    Distance matrix (angstroms):
                    1          2          3          4          5
     1  O    0.000000
     2  N    1.231308   0.000000
     3  O    2.177067   1.229440   0.000000
     4  C    2.362938   1.516138   2.349311   0.000000
     5  C    2.773176   2.471552   3.531404   1.397635   0.000000
     6  N    4.133912   3.784219   4.753441   2.465326   1.370444
     7  C    5.253613   4.633002   5.377549   3.134762   2.587980
     8  H    6.096191   5.527376   6.267903   4.077341   3.349423
     9  C    6.001878   5.434852   6.188702   3.957650   3.558323
    10  C    7.385809   6.688088   7.286831   5.191377   4.928752
    11  C    7.489629   6.588530   6.942501   5.152364   5.221969
    12  C    6.826892   5.870245   6.159981   4.480868   4.552560
    13  C    5.287009   4.371847   4.783710   2.956790   3.039315
    14  H    5.108110   4.183396   4.508390   2.956364   3.024372
    15  N    4.809668   3.764889   3.988955   2.506562   3.189058
    16  C    3.609704   2.545721   2.810199   1.483896   2.588593
    17  H    2.431511   2.610889   3.769111   2.150018   1.102911
    18  H    4.680468   4.549523   5.610633   3.350796   2.090623
    19  H    5.589431   4.992186   5.684535   3.611052   3.528307
    20  H    6.285029   5.918936   6.814510   4.511455   3.841793
    21  H    8.032545   7.373175   7.970243   5.920571   5.715037
    22  H    7.963422   7.319664   7.971909   5.803932   5.333508
    23  H    7.266802   6.317265   6.567585   4.979150   5.303518
    24  H    8.579802   7.653470   7.948972   6.231528   6.291981
    25  H    7.187312   6.119397   6.189593   4.876908   5.194230
    26  H    7.379321   6.502889   6.868615   5.105050   4.923769
    27  H    3.727250   2.648548   2.566547   2.168389   3.458756
                    6          7          8          9         10
     6  N    0.000000
     7  C    1.494863   0.000000
     8  H    2.091941   1.120960   0.000000
     9  C    2.566723   1.549154   2.149683   0.000000
    10  C    3.880497   2.522332   2.646954   1.540666   0.000000
    11  C    4.392014   2.931815   3.135903   2.539108   1.536897
    12  C    3.817588   2.464075   2.554393   2.948919   2.545325
    13  C    2.524800   1.536537   2.136413   2.541582   3.003633
    14  H    2.728322   2.198349   2.518383   3.519508   4.011166
    15  N    3.173220   2.515132   3.426667   2.980359   3.555677
    16  C    3.115183   3.070155   4.091992   3.613176   4.546141
    17  H    2.101492   3.524968   4.120448   4.476790   5.891841
    18  H    1.022883   2.046918   2.295507   2.769784   4.084907
    19  H    2.922045   2.195215   3.083974   1.110800   2.185495
    20  H    2.761304   2.195502   2.532449   1.110699   2.174563
    21  H    4.729092   3.493911   3.692628   2.186101   1.112016
    22  H    4.115039   2.795142   2.449034   2.176484   1.112950
    23  H    4.705505   3.388351   3.889941   2.839510   2.171675
    24  H    5.406306   3.918472   3.906682   3.500893   2.181561
    25  H    4.669811   3.443289   3.586796   3.959807   3.501176
    26  H    4.004820   2.695473   2.296268   3.344296   2.827304
    27  H    4.140691   4.117928   5.160386   4.450178   5.309783
                   11         12         13         14         15
    11  C    0.000000
    12  C    1.543901   0.000000
    13  C    2.560968   1.553286   0.000000
    14  H    3.506646   2.171330   1.115290   0.000000
    15  N    2.964795   2.448610   1.465363   2.121185   0.000000
    16  C    4.192571   3.669006   2.384197   2.695614   1.292393
    17  H    6.281916   5.579375   4.081528   3.921979   4.267798
    18  H    4.890146   4.478507   3.377661   3.620547   4.102608
    19  H    2.840541   3.367935   2.785643   3.813041   2.634729
    20  H    3.493491   3.946864   3.505893   4.367666   3.996416
    21  H    2.180742   3.505955   3.989187   5.045547   4.276370
    22  H    2.168371   2.838688   3.450150   4.279650   4.332951
    23  H    1.113439   2.181008   2.830489   3.829119   2.642797
    24  H    1.111864   2.186193   3.522180   4.338802   3.971763
    25  H    2.179516   1.112089   2.187836   2.494301   2.682677
    26  H    2.181718   1.110152   2.190471   2.483869   3.410135
    27  H    4.858693   4.488345   3.378615   3.682181   2.052100
                   16         17         18         19         20
    16  C    0.000000
    17  H    3.548439   0.000000
    18  H    4.070857   2.426022   0.000000
    19  H    3.084652   4.483762   3.283338   0.000000
    20  H    4.441998   4.566774   2.548570   1.796865   0.000000
    21  H    5.202508   6.658795   4.846684   2.496566   2.531074
    22  H    5.327904   6.209130   4.148928   3.098197   2.471062
    23  H    3.806018   6.396668   5.301310   2.689708   3.849185
    24  H    5.233481   7.339806   5.843628   3.863225   4.330469
    25  H    3.893078   6.220837   5.430378   4.199205   5.003083
    26  H    4.532876   5.850402   4.508225   4.036462   4.153077
    27  H    1.100863   4.289902   5.056407   3.725784   5.266878
                   21         22         23         24         25
    21  H    0.000000
    22  H    1.799269   0.000000
    23  H    2.467753   3.084244   0.000000
    24  H    2.541525   2.467341   1.794408   0.000000
    25  H    4.337019   3.841540   2.487805   2.518454   0.000000
    26  H    3.851850   2.668214   3.097737   2.499096   1.794981
    27  H    5.823574   6.191973   4.253575   5.846153   4.543123
                   26         27
    26  H    0.000000
    27  H    5.442559   0.000000
 Symmetry turned off by external request.
 Stoichiometry    C9H13N3O2
 Framework group  C1[X(C9H13N3O2)]
 Deg. of freedom    75
 Full point group                 C1      NOp   1
 Rotational constants (GHZ):           1.6697463           0.4027606           0.3571328
 Standard basis: 6-31G(d) (6D, 7F)
   236 basis functions,   444 primitive gaussians,   236 cartesian basis functions
    52 alpha electrons       52 beta electrons
       nuclear repulsion energy       918.2983791825 Hartrees.
 NAtoms=   27 NActive=   27 NUniq=   27 SFac= 1.00D+00 NAtFMM=   60 NAOKFM=F Big=F
 Integral buffers will be    131072 words long.
 Raffenetti 1 integral format.
 Two-electron integral symmetry is turned off.
 One-electron integrals computed using PRISM.
 NBasis=   236 RedAO= T EigKep=  1.64D-03  NBF=   236
 NBsUse=   236 1.00D-06 EigRej= -1.00D+00 NBFU=   236
 ExpMin= 1.61D-01 ExpMax= 5.48D+03 ExpMxC= 8.25D+02 IAcc=3 IRadAn=         5 AccDes= 0.00D+00
 Harris functional with IExCor=  205 and IRadAn=       5 diagonalized for initial guess.
 HarFok:  IExCor=  205 AccDes= 0.00D+00 IRadAn=         5 IDoV= 1 UseB2=F ITyADJ=14
 ICtDFT=  3500011 ScaDFX=  1.000000  1.000000  1.000000  1.000000
 FoFCou: FMM=F IPFlag=           0 FMFlag=      100000 FMFlg1=           0
         NFxFlg=           0 DoJE=T BraDBF=F KetDBF=T FulRan=T
         wScrn=  0.000000 ICntrl=       500 IOpCl=  0 I1Cent=   200000004 NGrid=           0
         NMat0=    1 NMatS0=      1 NMatT0=    0 NMatD0=    1 NMtDS0=    0 NMtDT0=    0
 Symmetry not used in FoFCou.
 Keep R1 ints in memory in canonical form, NReq=397720213.
 Requested convergence on RMS density matrix=1.00D-08 within 128 cycles.
 Requested convergence on MAX density matrix=1.00D-06.
 Requested convergence on             energy=1.00D-06.
 No special actions if energy rises.
 SCF Done:  E(RHF) =  -661.280174054     A.U. after   17 cycles
            NFock= 17  Conv=0.49D-08     -V/T= 2.0036
 ExpMin= 1.61D-01 ExpMax= 5.48D+03 ExpMxC= 8.25D+02 IAcc=3 IRadAn=         5 AccDes= 0.00D+00
 HarFok:  IExCor=  205 AccDes= 0.00D+00 IRadAn=         5 IDoV=-2 UseB2=F ITyADJ=14
 ICtDFT= 12500011 ScaDFX=  1.000000  1.000000  1.000000  1.000000
 Range of M.O.s used for correlation:    15   236
 NBasis=   236 NAE=    52 NBE=    52 NFC=    14 NFV=     0
 NROrb=    222 NOA=    38 NOB=    38 NVA=   184 NVB=   184
 Fully direct method using O(ONN) memory.
 JobTyp=1 Pass  1:  I=  15 to  52 NPSUse=  4 ParTrn=T ParDer=T DoDerP=T.
 Spin components of T(2) and E(2):
     alpha-alpha T2 =       0.9191717076D-01 E2=     -0.2717595700D+00
     alpha-beta  T2 =       0.4998997781D+00 E2=     -0.1494042051D+01
     beta-beta   T2 =       0.9191717076D-01 E2=     -0.2717595700D+00
 ANorm=    0.1297587808D+01
 E2 =    -0.2037561191D+01 EUMP2 =    -0.66331773524493D+03
          IDoAtm=111111111111111111111111111
          Differentiating once with respect to electric field.
                with respect to dipole field.
          Differentiating once with respect to nuclear coordinates.
 Keep R1 ints in memory in canonical form, NReq=397723379.
          There are     1 degrees of freedom in the 1st order CPHF.  IDoFFX=0 NUNeed=     1.
 LinEq1:  Iter=  0 NonCon=     1 RMS=4.57D-03 Max=1.09D-01 NDo=     1
 AX will form     1 AO Fock derivatives at one time.
 LinEq1:  Iter=  1 NonCon=     1 RMS=1.55D-03 Max=2.87D-02 NDo=     1
 LinEq1:  Iter=  2 NonCon=     1 RMS=6.34D-04 Max=1.67D-02 NDo=     1
 LinEq1:  Iter=  3 NonCon=     1 RMS=2.90D-04 Max=8.32D-03 NDo=     1
 LinEq1:  Iter=  4 NonCon=     1 RMS=8.91D-05 Max=2.02D-03 NDo=     1
 LinEq1:  Iter=  5 NonCon=     1 RMS=3.66D-05 Max=1.75D-03 NDo=     1
 LinEq1:  Iter=  6 NonCon=     1 RMS=1.51D-05 Max=5.96D-04 NDo=     1
 LinEq1:  Iter=  7 NonCon=     1 RMS=5.74D-06 Max=9.74D-05 NDo=     1
 LinEq1:  Iter=  8 NonCon=     1 RMS=2.29D-06 Max=5.22D-05 NDo=     1
 LinEq1:  Iter=  9 NonCon=     1 RMS=8.21D-07 Max=2.14D-05 NDo=     1
 LinEq1:  Iter= 10 NonCon=     1 RMS=4.15D-07 Max=1.55D-05 NDo=     1
 LinEq1:  Iter= 11 NonCon=     1 RMS=1.55D-07 Max=5.76D-06 NDo=     1
 LinEq1:  Iter= 12 NonCon=     1 RMS=5.56D-08 Max=8.42D-07 NDo=     1
 LinEq1:  Iter= 13 NonCon=     1 RMS=1.72D-08 Max=3.50D-07 NDo=     1
 LinEq1:  Iter= 14 NonCon=     1 RMS=5.64D-09 Max=1.38D-07 NDo=     1
 LinEq1:  Iter= 15 NonCon=     1 RMS=2.13D-09 Max=5.07D-08 NDo=     1
 LinEq1:  Iter= 16 NonCon=     1 RMS=7.93D-10 Max=1.19D-08 NDo=     1
 LinEq1:  Iter= 17 NonCon=     1 RMS=2.61D-10 Max=3.70D-09 NDo=     1
 LinEq1:  Iter= 18 NonCon=     1 RMS=9.22D-11 Max=1.04D-09 NDo=     1
 LinEq1:  Iter= 19 NonCon=     0 RMS=3.14D-11 Max=4.91D-10 NDo=     1
 Linear equations converged to 1.000D-10 1.000D-09 after    19 iterations.
 End of Minotr F.D. properties file   721 does not exist.
 End of Minotr F.D. properties file   722 does not exist.
 End of Minotr F.D. properties file   788 does not exist.

 **********************************************************************

            Population analysis using the SCF Density.

 **********************************************************************

 Alpha  occ. eigenvalues --  -20.60011 -20.59596 -15.85156 -15.63154 -15.56817
 Alpha  occ. eigenvalues --  -11.35754 -11.30641 -11.30031 -11.29860 -11.27694
 Alpha  occ. eigenvalues --  -11.24577 -11.23846 -11.23377 -11.22831  -1.58619
 Alpha  occ. eigenvalues --   -1.38205  -1.28495  -1.22720  -1.13342  -1.08536
 Alpha  occ. eigenvalues --   -1.01786  -1.00686  -0.93658  -0.88972  -0.84887
 Alpha  occ. eigenvalues --   -0.81625  -0.78095  -0.77042  -0.74282  -0.71136
 Alpha  occ. eigenvalues --   -0.70710  -0.69424  -0.67229  -0.64433  -0.63224
 Alpha  occ. eigenvalues --   -0.61670  -0.60391  -0.57415  -0.56449  -0.54862
 Alpha  occ. eigenvalues --   -0.53634  -0.50685  -0.49785  -0.48600  -0.47815
 Alpha  occ. eigenvalues --   -0.47635  -0.46148  -0.45662  -0.43991  -0.42098
 Alpha  occ. eigenvalues --   -0.39943  -0.33573
 Alpha virt. eigenvalues --    0.07633   0.11524   0.18236   0.21268   0.23338
 Alpha virt. eigenvalues --    0.24245   0.26060   0.27801   0.28602   0.28847
 Alpha virt. eigenvalues --    0.29472   0.30908   0.31873   0.32310   0.33340
 Alpha virt. eigenvalues --    0.33811   0.34600   0.35694   0.37632   0.38657
 Alpha virt. eigenvalues --    0.40688   0.41642   0.44504   0.45223   0.45541
 Alpha virt. eigenvalues --    0.46623   0.49060   0.53236   0.57511   0.58686
 Alpha virt. eigenvalues --    0.63359   0.68984   0.69250   0.72208   0.74091
 Alpha virt. eigenvalues --    0.74819   0.75762   0.75870   0.77813   0.79094
 Alpha virt. eigenvalues --    0.80804   0.83347   0.84883   0.85331   0.88116
 Alpha virt. eigenvalues --    0.89169   0.90353   0.90481   0.91658   0.93832
 Alpha virt. eigenvalues --    0.94888   0.97207   0.98730   1.00490   1.01721
 Alpha virt. eigenvalues --    1.03253   1.05042   1.06521   1.07212   1.08418
 Alpha virt. eigenvalues --    1.10007   1.10504   1.11129   1.11943   1.13263
 Alpha virt. eigenvalues --    1.13735   1.14066   1.15197   1.16062   1.17058
 Alpha virt. eigenvalues --    1.17314   1.19275   1.20645   1.21349   1.22059
 Alpha virt. eigenvalues --    1.23290   1.24115   1.25561   1.27268   1.27733
 Alpha virt. eigenvalues --    1.31025   1.31455   1.34158   1.36026   1.38912
 Alpha virt. eigenvalues --    1.40555   1.43629   1.45155   1.47445   1.51658
 Alpha virt. eigenvalues --    1.53013   1.55167   1.60443   1.61904   1.65458
 Alpha virt. eigenvalues --    1.68397   1.71206   1.72847   1.73938   1.76189
 Alpha virt. eigenvalues --    1.77642   1.78112   1.84366   1.88681   1.90928
 Alpha virt. eigenvalues --    1.92082   1.96275   1.97040   1.99369   1.99943
 Alpha virt. eigenvalues --    2.02914   2.04490   2.05651   2.09382   2.12314
 Alpha virt. eigenvalues --    2.13610   2.14631   2.17792   2.18598   2.20007
 Alpha virt. eigenvalues --    2.20646   2.22184   2.24442   2.25415   2.26276
 Alpha virt. eigenvalues --    2.29459   2.32284   2.32928   2.35270   2.35870
 Alpha virt. eigenvalues --    2.38823   2.39482   2.40788   2.42966   2.45748
 Alpha virt. eigenvalues --    2.48609   2.50624   2.51248   2.56549   2.57658
 Alpha virt. eigenvalues --    2.60755   2.63146   2.65755   2.68492   2.69489
 Alpha virt. eigenvalues --    2.69734   2.70394   2.74051   2.75631   2.83029
 Alpha virt. eigenvalues --    2.84766   2.87311   2.88953   2.91929   2.95775
 Alpha virt. eigenvalues --    2.96969   2.97972   3.02142   3.04058   3.05792
 Alpha virt. eigenvalues --    3.07438   3.13053   3.18748   3.20894   3.26488
 Alpha virt. eigenvalues --    3.29506   3.33772   3.37031   3.42740   3.59701
 Alpha virt. eigenvalues --    4.08495   4.21821   4.26860   4.32830   4.43456
 Alpha virt. eigenvalues --    4.52660   4.59716   4.60625   4.70906   4.76979
 Alpha virt. eigenvalues --    4.96512   4.99276   5.03033   5.09952
          Condensed to atoms (all electrons):
               1          2          3          4          5          6
     1  O    8.323741   0.302249  -0.084863  -0.086671   0.008900   0.000393
     2  N    0.302249   5.720222   0.311588   0.251750  -0.043884   0.001068
     3  O   -0.084863   0.311588   8.291959  -0.080775   0.002769  -0.000019
     4  C   -0.086671   0.251750  -0.080775   5.251615   0.568304  -0.050255
     5  C    0.008900  -0.043884   0.002769   0.568304   4.661940   0.309637
     6  N    0.000393   0.001068  -0.000019  -0.050255   0.309637   7.185936
     7  C   -0.000000  -0.000091   0.000004   0.003967  -0.029588   0.200829
     8  H   -0.000000   0.000002  -0.000000  -0.000168   0.002330  -0.049462
     9  C    0.000000  -0.000004  -0.000000   0.000453   0.001764  -0.056919
    10  C    0.000000   0.000000  -0.000000  -0.000019  -0.000067   0.003359
    11  C   -0.000000  -0.000000  -0.000000  -0.000015   0.000016  -0.000155
    12  C   -0.000000   0.000001  -0.000000  -0.000102  -0.000143   0.003607
    13  C   -0.000001  -0.000026  -0.000024  -0.009937   0.000411  -0.044865
    14  H    0.000001  -0.000050  -0.000007   0.002632   0.004570  -0.005465
    15  N   -0.000024   0.001881   0.000065  -0.063138  -0.003729   0.002167
    16  C    0.001492  -0.025653   0.005061   0.317195  -0.037089  -0.001123
    17  H    0.009494  -0.003208   0.000066  -0.029854   0.379896  -0.032630
    18  H    0.000010  -0.000041   0.000000   0.001258  -0.024338   0.328377
    19  H    0.000000   0.000000   0.000000  -0.000833   0.000642   0.000622
    20  H    0.000000  -0.000000   0.000000  -0.000027   0.000019  -0.001582
    21  H   -0.000000  -0.000000   0.000000   0.000000   0.000001  -0.000060
    22  H   -0.000000   0.000000  -0.000000  -0.000000  -0.000002  -0.000097
    23  H    0.000000  -0.000000  -0.000000   0.000024  -0.000001  -0.000024
    24  H    0.000000   0.000000  -0.000000   0.000000  -0.000000   0.000004
    25  H    0.000000  -0.000000   0.000000   0.000020  -0.000001  -0.000070
    26  H    0.000000  -0.000000  -0.000000   0.000005  -0.000001  -0.000067
    27  H   -0.000049   0.000226   0.003837  -0.071324   0.002213   0.000052
               7          8          9         10         11         12
     1  O   -0.000000  -0.000000   0.000000   0.000000  -0.000000  -0.000000
     2  N   -0.000091   0.000002  -0.000004   0.000000  -0.000000   0.000001
     3  O    0.000004  -0.000000  -0.000000  -0.000000  -0.000000  -0.000000
     4  C    0.003967  -0.000168   0.000453  -0.000019  -0.000015  -0.000102
     5  C   -0.029588   0.002330   0.001764  -0.000067   0.000016  -0.000143
     6  N    0.200829  -0.049462  -0.056919   0.003359  -0.000155   0.003607
     7  C    5.006123   0.416350   0.341092  -0.049405  -0.007700  -0.064132
     8  H    0.416350   0.547128  -0.060383   0.001380  -0.000304  -0.002943
     9  C    0.341092  -0.060383   5.180692   0.317985  -0.053101  -0.006077
    10  C   -0.049405   0.001380   0.317985   5.127077   0.332720  -0.060234
    11  C   -0.007700  -0.000304  -0.053101   0.332720   5.124206   0.330595
    12  C   -0.064132  -0.002943  -0.006077  -0.060234   0.330595   5.137271
    13  C    0.330783  -0.039880  -0.051048  -0.001618  -0.047979   0.368032
    14  H   -0.040403  -0.000944   0.003857  -0.000389   0.003950  -0.040714
    15  N   -0.058410   0.004013  -0.012719   0.001473  -0.007772  -0.074097
    16  C   -0.002428   0.000015  -0.000802  -0.000037   0.000007   0.002530
    17  H    0.001502  -0.000027  -0.000063   0.000001   0.000000   0.000001
    18  H   -0.028881  -0.002789   0.000843  -0.000120   0.000011  -0.000138
    19  H   -0.035078   0.004088   0.386193  -0.032726  -0.002250   0.000616
    20  H   -0.041608  -0.001825   0.397248  -0.037354   0.004135  -0.000363
    21  H    0.004048  -0.000080  -0.035836   0.400100  -0.035860   0.004217
    22  H   -0.004249   0.003516  -0.045647   0.395929  -0.045611  -0.001238
    23  H    0.000429   0.000033  -0.001997  -0.040117   0.396706  -0.036648
    24  H   -0.000142  -0.000099   0.004392  -0.038477   0.400300  -0.037872
    25  H    0.004985  -0.000004  -0.000373   0.004097  -0.033906   0.395423
    26  H   -0.004467   0.001579   0.001050  -0.002409  -0.042287   0.394658
    27  H   -0.000406   0.000009  -0.000058   0.000005   0.000005  -0.000023
              13         14         15         16         17         18
     1  O   -0.000001   0.000001  -0.000024   0.001492   0.009494   0.000010
     2  N   -0.000026  -0.000050   0.001881  -0.025653  -0.003208  -0.000041
     3  O   -0.000024  -0.000007   0.000065   0.005061   0.000066   0.000000
     4  C   -0.009937   0.002632  -0.063138   0.317195  -0.029854   0.001258
     5  C    0.000411   0.004570  -0.003729  -0.037089   0.379896  -0.024338
     6  N   -0.044865  -0.005465   0.002167  -0.001123  -0.032630   0.328377
     7  C    0.330783  -0.040403  -0.058410  -0.002428   0.001502  -0.028881
     8  H   -0.039880  -0.000944   0.004013   0.000015  -0.000027  -0.002789
     9  C   -0.051048   0.003857  -0.012719  -0.000802  -0.000063   0.000843
    10  C   -0.001618  -0.000389   0.001473  -0.000037   0.000001  -0.000120
    11  C   -0.047979   0.003950  -0.007772   0.000007   0.000000   0.000011
    12  C    0.368032  -0.040714  -0.074097   0.002530   0.000001  -0.000138
    13  C    5.021803   0.403141   0.242698  -0.070456  -0.000052   0.003722
    14  H    0.403141   0.517732  -0.035998  -0.004607   0.000057   0.000011
    15  N    0.242698  -0.035998   6.933325   0.591730  -0.000048  -0.000124
    16  C   -0.070456  -0.004607   0.591730   4.684627   0.001657  -0.000176
    17  H   -0.000052   0.000057  -0.000048   0.001657   0.392680  -0.002049
    18  H    0.003722   0.000011  -0.000124  -0.000176  -0.002049   0.325777
    19  H   -0.006199   0.000064   0.006902   0.002497   0.000011  -0.000127
    20  H    0.003873  -0.000050   0.000079  -0.000030  -0.000002   0.002815
    21  H   -0.000382   0.000009  -0.000031   0.000002  -0.000000  -0.000000
    22  H    0.000323  -0.000044   0.000003  -0.000001   0.000000   0.000002
    23  H   -0.005868   0.000007   0.006751   0.000069   0.000000   0.000000
    24  H    0.004148  -0.000058   0.000041   0.000005   0.000000  -0.000000
    25  H   -0.034476  -0.002661   0.000816  -0.000057  -0.000000   0.000002
    26  H   -0.044772  -0.000890   0.004174  -0.000054   0.000000  -0.000001
    27  H    0.004947  -0.000164  -0.038471   0.403871  -0.000060   0.000002
              19         20         21         22         23         24
     1  O    0.000000   0.000000  -0.000000  -0.000000   0.000000   0.000000
     2  N    0.000000  -0.000000  -0.000000   0.000000  -0.000000   0.000000
     3  O    0.000000   0.000000   0.000000  -0.000000  -0.000000  -0.000000
     4  C   -0.000833  -0.000027   0.000000  -0.000000   0.000024   0.000000
     5  C    0.000642   0.000019   0.000001  -0.000002  -0.000001  -0.000000
     6  N    0.000622  -0.001582  -0.000060  -0.000097  -0.000024   0.000004
     7  C   -0.035078  -0.041608   0.004048  -0.004249   0.000429  -0.000142
     8  H    0.004088  -0.001825  -0.000080   0.003516   0.000033  -0.000099
     9  C    0.386193   0.397248  -0.035836  -0.045647  -0.001997   0.004392
    10  C   -0.032726  -0.037354   0.400100   0.395929  -0.040117  -0.038477
    11  C   -0.002250   0.004135  -0.035860  -0.045611   0.396706   0.400300
    12  C    0.000616  -0.000363   0.004217  -0.001238  -0.036648  -0.037872
    13  C   -0.006199   0.003873  -0.000382   0.000323  -0.005868   0.004148
    14  H    0.000064  -0.000050   0.000009  -0.000044   0.000007  -0.000058
    15  N    0.006902   0.000079  -0.000031   0.000003   0.006751   0.000041
    16  C    0.002497  -0.000030   0.000002  -0.000001   0.000069   0.000005
    17  H    0.000011  -0.000002  -0.000000   0.000000   0.000000   0.000000
    18  H   -0.000127   0.002815  -0.000000   0.000002   0.000000  -0.000000
    19  H    0.507279  -0.023950  -0.002593   0.003762   0.001644  -0.000071
    20  H   -0.023950   0.549610  -0.002625  -0.002956  -0.000049  -0.000090
    21  H   -0.002593  -0.002625   0.526314  -0.024708  -0.002816  -0.002065
    22  H    0.003762  -0.002956  -0.024708   0.568986   0.004063  -0.003594
    23  H    0.001644  -0.000049  -0.002816   0.004063   0.509917  -0.025006
    24  H   -0.000071  -0.000090  -0.002065  -0.003594  -0.025006   0.541136
    25  H   -0.000027   0.000011  -0.000086  -0.000082  -0.002086  -0.002384
    26  H    0.000023  -0.000035  -0.000074   0.002461   0.003820  -0.002759
    27  H    0.000080   0.000000  -0.000000   0.000000  -0.000021  -0.000000
              25         26         27
     1  O    0.000000   0.000000  -0.000049
     2  N   -0.000000  -0.000000   0.000226
     3  O    0.000000  -0.000000   0.003837
     4  C    0.000020   0.000005  -0.071324
     5  C   -0.000001  -0.000001   0.002213
     6  N   -0.000070  -0.000067   0.000052
     7  C    0.004985  -0.004467  -0.000406
     8  H   -0.000004   0.001579   0.000009
     9  C   -0.000373   0.001050  -0.000058
    10  C    0.004097  -0.002409   0.000005
    11  C   -0.033906  -0.042287   0.000005
    12  C    0.395423   0.394658  -0.000023
    13  C   -0.034476  -0.044772   0.004947
    14  H   -0.002661  -0.000890  -0.000164
    15  N    0.000816   0.004174  -0.038471
    16  C   -0.000057  -0.000054   0.403871
    17  H   -0.000000   0.000000  -0.000060
    18  H    0.000002  -0.000001   0.000002
    19  H   -0.000027   0.000023   0.000080
    20  H    0.000011  -0.000035   0.000000
    21  H   -0.000086  -0.000074  -0.000000
    22  H   -0.000082   0.002461   0.000000
    23  H   -0.002086   0.003820  -0.000021
    24  H   -0.002384  -0.002759  -0.000000
    25  H    0.510149  -0.023105  -0.000011
    26  H   -0.023105   0.560964   0.000001
    27  H   -0.000011   0.000001   0.463293
 Mulliken charges:
               1
     1  O   -0.474671
     2  N    0.483967
     3  O   -0.449662
     4  C   -0.004105
     5  C    0.195431
     6  N   -0.793258
     7  C    0.056877
     8  H    0.178464
     9  C   -0.310542
    10  C   -0.321155
    11  C   -0.315712
    12  C   -0.312228
    13  C   -0.026300
    14  H    0.196412
    15  N   -0.501558
    16  C    0.131752
    17  H    0.282628
    18  H    0.395953
    19  H    0.189428
    20  H    0.154756
    21  H    0.172524
    22  H    0.149183
    23  H    0.191167
    24  H    0.162590
    25  H    0.183827
    26  H    0.152187
    27  H    0.232045
 Sum of Mulliken charges =  -0.00000
 Mulliken charges with hydrogens summed into heavy atoms:
               1
     1  O   -0.474671
     2  N    0.483967
     3  O   -0.449662
     4  C   -0.004105
     5  C    0.478059
     6  N   -0.397305
     7  C    0.235341
     9  C    0.033642
    10  C    0.000552
    11  C    0.038044
    12  C    0.023786
    13  C    0.170113
    15  N   -0.501558
    16  C    0.363797
 Electronic spatial extent (au):  <R**2>=           3111.5563
 Charge=             -0.0000 electrons
 Dipole moment (field-independent basis, Debye):
    X=              5.2191    Y=              4.4558    Z=              0.2300  Tot=              6.8663
 Quadrupole moment (field-independent basis, Debye-Ang):
   XX=           -104.5793   YY=            -79.8581   ZZ=            -82.8258
   XY=             -1.6592   XZ=              0.1396   YZ=              1.5932
 Traceless Quadrupole moment (field-independent basis, Debye-Ang):
   XX=            -15.4916   YY=              9.2297   ZZ=              6.2619
   XY=             -1.6592   XZ=              0.1396   YZ=              1.5932
 Octapole moment (field-independent basis, Debye-Ang**2):
  XXX=             95.8164  YYY=             35.4050  ZZZ=             -4.4926  XYY=             -3.8286
  XXY=             11.7228  XXZ=              3.8699  XZZ=             -6.1928  YZZ=             -3.2100
  YYZ=             -4.2430  XYZ=             -8.0579
 Hexadecapole moment (field-independent basis, Debye-Ang**3):
 XXXX=          -3518.8153 YYYY=           -606.1068 ZZZZ=           -314.0237 XXXY=            -37.8099
 XXXZ=            -14.8043 YYYX=            -12.0905 YYYZ=             38.4946 ZZZX=              1.5011
 ZZZY=             39.9182 XXYY=           -644.3920 XXZZ=           -550.0662 YYZZ=           -165.6217
 XXYZ=             39.8233 YYXZ=              9.5643 ZZXY=              3.0052
 N-N= 9.182983791825D+02 E-N=-3.382627226409D+03  KE= 6.588862396331D+02
 Calling FoFJK, ICntrl=  10002127 FMM=F ISym2X=0 I1Cent= 0 IOpClX= 0 NMat=1 NMatS=1 NMatT=0.
 -------------------------------------------------------------------
 Center     Atomic                   Forces (Hartrees/Bohr)
 Number     Number              X              Y              Z
 -------------------------------------------------------------------
      1        8          -0.008443322    0.015688098   -0.002883101
      2        7           0.039989283    0.012545479   -0.002432495
      3        8           0.000008820   -0.019980311    0.004163145
      4        6          -0.001963077    0.010563797    0.007171359
      5        6           0.003876083   -0.018238323   -0.004898171
      6        7           0.015930813   -0.008431558   -0.004819675
      7        6          -0.005168223    0.005583617    0.002060529
      8        1          -0.010263927   -0.002480410   -0.007433316
      9        6          -0.003821014   -0.000015088   -0.002053927
     10        6           0.002820049   -0.000805787    0.000976776
     11        6          -0.000914532   -0.004764080   -0.001904938
     12        6           0.000751295   -0.009158198   -0.002142900
     13        6           0.008646873   -0.001129512    0.004142585
     14        1           0.000865312    0.003279753   -0.010396573
     15        7           0.000023231   -0.000623172    0.001943283
     16        6          -0.019393601    0.009655229    0.005462030
     17        1           0.008160286   -0.006080140   -0.005260543
     18        1          -0.017600332   -0.001345424    0.005857003
     19        1           0.003093091    0.006575614    0.007054908
     20        1          -0.003257831   -0.007114809    0.003310489
     21        1          -0.004319352    0.003303880    0.009355929
     22        1          -0.004004651   -0.004669643   -0.006978032
     23        1           0.003971228    0.006974291    0.008667136
     24        1          -0.009389215    0.002384429   -0.002358826
     25        1          -0.000805597    0.010323657   -0.003434937
     26        1          -0.004802056   -0.005184432   -0.003900346
     27        1           0.006010368    0.003143044    0.000732610
 -------------------------------------------------------------------
 Cartesian Forces:  Max     0.039989283 RMS     0.008466436

 GradGradGradGradGradGradGradGradGradGradGradGradGradGradGradGradGradGrad
 Berny optimization.
 FormGI is forming the generalized inverse of G from B-inverse, IUseBI=4.
 Internal  Forces:  Max     0.033342751 RMS     0.006641502
 Search for a local minimum.
 Step number   1 out of a maximum of   20
 All quantities printed in internal units (Hartrees-Bohrs-Radians)
 Mixed Optimization -- RFO/linear search
 Second derivative matrix not updated -- first step.
 ITU=  0
     Eigenvalues ---    0.00231   0.00770   0.01059   0.01153   0.01205
     Eigenvalues ---    0.01480   0.01534   0.01612   0.01983   0.02027
     Eigenvalues ---    0.02104   0.02685   0.03662   0.04507   0.04695
     Eigenvalues ---    0.04838   0.05077   0.05138   0.05303   0.05885
     Eigenvalues ---    0.06266   0.07214   0.07699   0.07721   0.07865
     Eigenvalues ---    0.07994   0.08048   0.08050   0.10458   0.11737
     Eigenvalues ---    0.12266   0.13424   0.15199   0.15663   0.15990
     Eigenvalues ---    0.16000   0.20092   0.22002   0.23222   0.24976
     Eigenvalues ---    0.25000   0.25000   0.25357   0.26193   0.26652
     Eigenvalues ---    0.27982   0.28082   0.28462   0.30742   0.31467
     Eigenvalues ---    0.31756   0.32046   0.32239   0.32290   0.32380
     Eigenvalues ---    0.32388   0.32403   0.32515   0.32526   0.32584
     Eigenvalues ---    0.33362   0.33555   0.33587   0.35330   0.43881
     Eigenvalues ---    0.44560   0.49331   0.67137   0.90544   0.91320
     Eigenvalues --- 1000.000001000.000001000.000001000.000001000.00000
     Eigenvalues --- 1000.000001000.000001000.000001000.000001000.00000
     Eigenvalues --- 1000.000001000.000001000.000001000.000001000.00000
     Eigenvalues --- 1000.000001000.000001000.000001000.000001000.00000
     Eigenvalues --- 1000.000001000.000001000.000001000.000001000.00000
     Eigenvalues --- 1000.000001000.000001000.000001000.000001000.00000
     Eigenvalues --- 1000.000001000.000001000.000001000.000001000.00000
     Eigenvalues --- 1000.000001000.000001000.000001000.000001000.00000
     Eigenvalues --- 1000.000001000.000001000.000001000.000001000.00000
     Eigenvalues --- 1000.000001000.000001000.000001000.000001000.00000
     Eigenvalues --- 1000.000001000.000001000.000001000.000001000.00000
     Eigenvalues --- 1000.000001000.000001000.000001000.000001000.00000
     Eigenvalues --- 1000.000001000.000001000.000001000.000001000.00000
     Eigenvalues --- 1000.000001000.000001000.000001000.000001000.00000
     Eigenvalues --- 1000.000001000.000001000.000001000.000001000.00000
     Eigenvalues --- 1000.000001000.000001000.000001000.000001000.00000
     Eigenvalues --- 1000.000001000.000001000.000001000.000001000.00000
     Eigenvalues --- 1000.000001000.000001000.000001000.000001000.00000
     Eigenvalues --- 1000.00000
 RFO step:  Lambda=-2.23788151D-02 EMin= 2.30608788D-03
 Linear search not attempted -- first point.
 Iteration  1 RMS(Cart)=  0.05502774 RMS(Int)=  0.00121368
 Iteration  2 RMS(Cart)=  0.00132061 RMS(Int)=  0.00024689
 Iteration  3 RMS(Cart)=  0.00000126 RMS(Int)=  0.00024689
 Iteration  4 RMS(Cart)=  0.00000000 RMS(Int)=  0.00024689
 Iteration  1 RMS(Cart)=  0.00003187 RMS(Int)=  0.00002374
 Iteration  2 RMS(Cart)=  0.00001480 RMS(Int)=  0.00002646
 Iteration  3 RMS(Cart)=  0.00000739 RMS(Int)=  0.00002933
 Iteration  4 RMS(Cart)=  0.00000406 RMS(Int)=  0.00003102
 Iteration  5 RMS(Cart)=  0.00000248 RMS(Int)=  0.00003195
 Iteration  6 RMS(Cart)=  0.00000169 RMS(Int)=  0.00003249
 Iteration  7 RMS(Cart)=  0.00000127 RMS(Int)=  0.00003282
 Iteration  8 RMS(Cart)=  0.00000102 RMS(Int)=  0.00003304
 Iteration  9 RMS(Cart)=  0.00000087 RMS(Int)=  0.00003319
 Variable       Old X    -DE/DX   Delta X   Delta X   Delta X     New X
                                 (Linear)    (Quad)   (Total)
    R1        2.32683   0.01755   0.00000   0.01891   0.01891   2.34575
    R2        2.32331   0.01939   0.00000   0.02073   0.02073   2.34403
    R3        2.86509  -0.03252   0.00000  -0.09862  -0.09862   2.76647
    R4        2.64115  -0.03334   0.00000  -0.07171  -0.07148   2.56966
    R5        2.80416  -0.02120   0.00000  -0.06068  -0.06048   2.74367
    R6        2.58976  -0.02324   0.00000  -0.04492  -0.04481   2.54495
    R7        2.08420  -0.01062   0.00000  -0.02983  -0.02983   2.05437
    R8        2.82488  -0.01965   0.00000  -0.05454  -0.05463   2.77025
    R9        1.93297  -0.00672   0.00000  -0.01458  -0.01458   1.91839
   R10        2.11831  -0.01200   0.00000  -0.03560  -0.03560   2.08270
   R11        2.92748  -0.01287   0.00000  -0.04405  -0.04407   2.88340
   R12        2.90363  -0.00416   0.00000  -0.00801  -0.00806   2.89557
   R13        2.91144  -0.00461   0.00000  -0.01436  -0.01437   2.89706
   R14        2.09911  -0.00991   0.00000  -0.02851  -0.02851   2.07060
   R15        2.09892  -0.00807   0.00000  -0.02322  -0.02322   2.07569
   R16        2.90431  -0.00187   0.00000  -0.00729  -0.00734   2.89698
   R17        2.10141  -0.01057   0.00000  -0.03052  -0.03052   2.07089
   R18        2.10317  -0.00901   0.00000  -0.02609  -0.02609   2.07708
   R19        2.91755  -0.00912   0.00000  -0.02903  -0.02901   2.88855
   R20        2.10409  -0.01165   0.00000  -0.03380  -0.03380   2.07029
   R21        2.10112  -0.00995   0.00000  -0.02871  -0.02871   2.07241
   R22        2.93529  -0.01058   0.00000  -0.03659  -0.03658   2.89871
   R23        2.10154  -0.01075   0.00000  -0.03106  -0.03106   2.07049
   R24        2.09788  -0.00786   0.00000  -0.02259  -0.02259   2.07530
   R25        2.10759  -0.00931   0.00000  -0.02715  -0.02715   2.08045
   R26        2.76914  -0.00564   0.00000  -0.01228  -0.01255   2.75658
   R27        2.44227  -0.00602   0.00000  -0.00837  -0.00840   2.43386
   R28        2.08033  -0.00547   0.00000  -0.01528  -0.01528   2.06505
    A1        2.17178   0.00712   0.00000   0.02582   0.02493   2.19671
    A2        2.06430  -0.00033   0.00000  -0.00152  -0.00241   2.06189
    A3        2.04703  -0.00678   0.00000  -0.02520  -0.02609   2.02095
    A4        2.02424  -0.00495   0.00000  -0.01561  -0.01604   2.00820
    A5        2.02646  -0.00384   0.00000  -0.01149  -0.01195   2.01451
    A6        2.23151   0.00876   0.00000   0.02533   0.02542   2.25693
    A7        2.19740   0.00713   0.00000   0.02353   0.02385   2.22125
    A8        2.06149  -0.00284   0.00000  -0.00752  -0.00775   2.05374
    A9        2.02332  -0.00425   0.00000  -0.01526  -0.01551   2.00781
   A10        2.25349  -0.00619   0.00000  -0.02162  -0.02163   2.23186
   A11        2.11282  -0.01202   0.00000  -0.07057  -0.07087   2.04195
   A12        1.87259   0.01834   0.00000   0.09930   0.09946   1.97204
   A13        1.83805  -0.00177   0.00000  -0.01863  -0.01843   1.81962
   A14        2.00622  -0.00109   0.00000  -0.01288  -0.01285   1.99338
   A15        1.96847   0.00128   0.00000   0.00249   0.00193   1.97040
   A16        1.85227   0.00276   0.00000   0.02446   0.02427   1.87654
   A17        1.84922   0.00086   0.00000   0.01888   0.01877   1.86799
   A18        1.93568  -0.00173   0.00000  -0.00999  -0.00968   1.92600
   A19        1.91007   0.00027   0.00000  -0.00442  -0.00455   1.90552
   A20        1.92237  -0.00075   0.00000  -0.01334  -0.01331   1.90907
   A21        1.92287  -0.00171   0.00000  -0.00718  -0.00719   1.91568
   A22        1.91931  -0.00043   0.00000   0.00573   0.00568   1.92499
   A23        1.90463   0.00302   0.00000   0.02480   0.02482   1.92945
   A24        1.88440  -0.00037   0.00000  -0.00517  -0.00543   1.87896
   A25        1.94054  -0.00086   0.00000   0.00578   0.00564   1.94618
   A26        1.91889  -0.00066   0.00000  -0.00681  -0.00682   1.91208
   A27        1.90496   0.00027   0.00000  -0.00303  -0.00309   1.90188
   A28        1.91611   0.00076   0.00000   0.00717   0.00722   1.92333
   A29        1.89850   0.00173   0.00000   0.01125   0.01129   1.90979
   A30        1.88378  -0.00122   0.00000  -0.01486  -0.01495   1.86884
   A31        1.94462   0.00065   0.00000   0.00508   0.00523   1.94985
   A32        1.90245   0.00063   0.00000   0.00614   0.00608   1.90852
   A33        1.91738   0.00039   0.00000   0.00537   0.00534   1.92272
   A34        1.90675  -0.00119   0.00000  -0.01452  -0.01457   1.89217
   A35        1.91532  -0.00044   0.00000   0.00024   0.00014   1.91546
   A36        1.87596  -0.00006   0.00000  -0.00269  -0.00272   1.87325
   A37        1.94703  -0.00293   0.00000  -0.01829  -0.01833   1.92870
   A38        1.90609   0.00250   0.00000   0.01696   0.01680   1.92289
   A39        1.91100   0.00141   0.00000   0.01352   0.01351   1.92451
   A40        1.90621   0.00019   0.00000  -0.00315  -0.00298   1.90323
   A41        1.91169  -0.00024   0.00000  -0.00487  -0.00481   1.90688
   A42        1.88060  -0.00085   0.00000  -0.00368  -0.00387   1.87673
   A43        1.84619   0.00461   0.00000   0.02403   0.02408   1.87027
   A44        1.93721  -0.00434   0.00000  -0.03079  -0.03122   1.90599
   A45        1.98629   0.00108   0.00000   0.01303   0.01323   1.99951
   A46        1.88115   0.00227   0.00000   0.03063   0.03092   1.91207
   A47        1.89166  -0.00420   0.00000  -0.02987  -0.02993   1.86173
   A48        1.91672   0.00077   0.00000  -0.00470  -0.00451   1.91221
   A49        2.08618  -0.00661   0.00000  -0.01716  -0.01736   2.06883
   A50        2.25041  -0.00369   0.00000  -0.01664  -0.01676   2.23365
   A51        1.97605   0.00536   0.00000   0.02759   0.02703   2.00308
   A52        2.05673  -0.00167   0.00000  -0.01096  -0.01149   2.04523
    D1        0.47986  -0.00306   0.00000  -0.03872  -0.03810   0.44176
    D2       -2.61799  -0.00250   0.00000   0.00000  -0.00000  -2.61799
    D3       -2.67453  -0.00256   0.00000  -0.11189  -0.11153  -2.78606
    D4        0.51081  -0.00200   0.00000  -0.07316  -0.07344   0.43737
    D5        3.07797   0.00021   0.00000   0.01649   0.01654   3.09451
    D6       -0.01379  -0.00060   0.00000  -0.00185  -0.00187  -0.01566
    D7       -0.11338  -0.00086   0.00000  -0.02883  -0.02928  -0.14266
    D8        3.07805  -0.00167   0.00000  -0.04716  -0.04769   3.03036
    D9       -2.74900  -0.00147   0.00000  -0.04569  -0.04630  -2.79530
   D10        0.39276   0.00096   0.00000   0.00875   0.00859   0.40134
   D11        0.44241  -0.00038   0.00000  -0.00023  -0.00025   0.44216
   D12       -2.69903   0.00206   0.00000   0.05421   0.05464  -2.64439
   D13       -0.08578   0.00013   0.00000   0.02673   0.02692  -0.05886
   D14        2.69851   0.00398   0.00000   0.07237   0.07162   2.77012
   D15        3.00694   0.00096   0.00000   0.04488   0.04507   3.05201
   D16       -0.49196   0.00481   0.00000   0.09052   0.08977  -0.40219
   D17       -2.51879  -0.00071   0.00000  -0.01722  -0.01682  -2.53561
   D18        1.73242  -0.00235   0.00000  -0.02810  -0.02775   1.70466
   D19       -0.51004  -0.00008   0.00000  -0.00447  -0.00441  -0.51445
   D20        0.94200   0.00016   0.00000  -0.03337  -0.03376   0.90825
   D21       -1.08997  -0.00148   0.00000  -0.04424  -0.04469  -1.13467
   D22        2.95075   0.00079   0.00000  -0.02061  -0.02135   2.92940
   D23        2.94354   0.00221   0.00000   0.02576   0.02568   2.96922
   D24       -1.22761   0.00138   0.00000   0.02159   0.02152  -1.20609
   D25        0.84933  -0.00061   0.00000   0.00242   0.00243   0.85176
   D26        0.91970   0.00318   0.00000   0.03966   0.03968   0.95937
   D27        3.03173   0.00234   0.00000   0.03550   0.03552   3.06725
   D28       -1.17451   0.00035   0.00000   0.01632   0.01643  -1.15808
   D29       -1.08093   0.00148   0.00000   0.00881   0.00877  -1.07215
   D30        1.03110   0.00065   0.00000   0.00465   0.00462   1.03572
   D31        3.10805  -0.00134   0.00000  -0.01453  -0.01448   3.09358
   D32       -2.89906  -0.00101   0.00000  -0.01353  -0.01328  -2.91234
   D33       -0.86334   0.00210   0.00000   0.02086   0.02071  -0.84263
   D34        1.30939   0.00050   0.00000   0.00000  -0.00000   1.30939
   D35       -0.89705  -0.00197   0.00000  -0.02337  -0.02323  -0.92028
   D36        1.13867   0.00115   0.00000   0.01102   0.01076   1.14943
   D37       -2.97178  -0.00045   0.00000  -0.00983  -0.00995  -2.98173
   D38        1.10548   0.00091   0.00000   0.01096   0.01109   1.11657
   D39        3.14120   0.00403   0.00000   0.04535   0.04508  -3.09690
   D40       -0.96925   0.00242   0.00000   0.02449   0.02437  -0.94488
   D41        0.95665   0.00070   0.00000   0.00000   0.00001   0.95667
   D42        3.08231   0.00063   0.00000   0.00828   0.00823   3.09054
   D43       -1.13771  -0.00109   0.00000  -0.01561  -0.01557  -1.15329
   D44       -1.15724   0.00173   0.00000   0.01570   0.01578  -1.14146
   D45        0.96842   0.00166   0.00000   0.02398   0.02400   0.99242
   D46        3.03158  -0.00006   0.00000   0.00010   0.00019   3.03178
   D47        3.06200   0.00063   0.00000   0.00377   0.00374   3.06574
   D48       -1.09553   0.00056   0.00000   0.01204   0.01196  -1.08357
   D49        0.96763  -0.00116   0.00000  -0.01184  -0.01185   0.95579
   D50       -0.92192  -0.00073   0.00000   0.00000   0.00001  -0.92191
   D51        1.18361  -0.00138   0.00000  -0.01083  -0.01084   1.17277
   D52       -3.04827  -0.00087   0.00000  -0.00738  -0.00742  -3.05569
   D53       -3.04920   0.00017   0.00000  -0.00013  -0.00010  -3.04930
   D54       -0.94366  -0.00049   0.00000  -0.01096  -0.01095  -0.95462
   D55        1.10764   0.00003   0.00000  -0.00751  -0.00753   1.10011
   D56        1.17627   0.00020   0.00000   0.00710   0.00714   1.18341
   D57       -3.00138  -0.00046   0.00000  -0.00373  -0.00372  -3.00510
   D58       -0.95008   0.00005   0.00000  -0.00028  -0.00029  -0.95037
   D59        0.98879  -0.00085   0.00000  -0.01170  -0.01177   0.97702
   D60        3.09761  -0.00083   0.00000  -0.01605  -0.01622   3.08139
   D61       -1.13022   0.00042   0.00000  -0.00276  -0.00274  -1.13296
   D62       -1.11422  -0.00126   0.00000  -0.01301  -0.01301  -1.12724
   D63        0.99460  -0.00124   0.00000  -0.01736  -0.01747   0.97713
   D64        3.04995   0.00001   0.00000  -0.00406  -0.00398   3.04597
   D65        3.11632  -0.00023   0.00000  -0.00136  -0.00137   3.11495
   D66       -1.05804  -0.00020   0.00000  -0.00572  -0.00583  -1.06386
   D67        0.99732   0.00104   0.00000   0.00758   0.00765   1.00497
   D68       -1.05457  -0.00004   0.00000  -0.00054  -0.00044  -1.05501
   D69       -3.12785   0.00148   0.00000   0.00745   0.00707  -3.12079
   D70        1.08182   0.00160   0.00000   0.01240   0.01227   1.09409
   D71        3.11986  -0.00141   0.00000  -0.00794  -0.00776   3.11210
   D72        1.04658   0.00010   0.00000   0.00005  -0.00025   1.04633
   D73       -1.02694   0.00022   0.00000   0.00500   0.00495  -1.02198
   D74        1.06403  -0.00036   0.00000   0.00118   0.00140   1.06543
   D75       -1.00925   0.00116   0.00000   0.00917   0.00890  -1.00034
   D76       -3.08276   0.00128   0.00000   0.01412   0.01411  -3.06865
   D77       -1.17215   0.00383   0.00000   0.00000   0.00000  -1.17215
   D78        3.06244   0.00023   0.00000  -0.01787  -0.01769   3.04475
   D79        1.01155  -0.00050   0.00000  -0.03476  -0.03502   0.97653
   D80        0.16858   0.00125   0.00000   0.01479   0.01453   0.18311
   D81       -2.97318  -0.00128   0.00000  -0.04178  -0.04150  -3.01468
         Item               Value     Threshold  Converged?
 Maximum Force            0.033059     0.000450     NO 
 RMS     Force            0.006706     0.000300     NO 
 Maximum Displacement     0.256986     0.001800     NO 
 RMS     Displacement     0.055400     0.001200     NO 
 Predicted change in Energy=-1.264214D-02
 GradGradGradGradGradGradGradGradGradGradGradGradGradGradGradGradGradGrad

                          Input orientation:                          
 ---------------------------------------------------------------------
 Center     Atomic      Atomic             Coordinates (Angstroms)
 Number     Number       Type             X           Y           Z
 ---------------------------------------------------------------------
      1          8           0       -3.863419    0.684299   -0.410519
      2          7           0       -3.122373   -0.244838   -0.052164
      3          8           0       -3.481229   -1.405755    0.197054
      4          6           0       -1.678708   -0.003916   -0.021434
      5          6           0       -1.315050    1.296613    0.138107
      6          7           0       -0.065441    1.786156    0.249934
      7          6           0        1.193934    1.037173    0.294944
      8          1           0        1.831210    1.618710    0.980773
      9          6           0        1.919374    0.951662   -1.044678
     10          6           0        3.320152    0.369620   -0.822594
     11          6           0        3.259788   -0.978569   -0.095355
     12          6           0        2.445530   -0.889152    1.195172
     13          6           0        1.035493   -0.359346    0.905264
     14          1           0        0.470461   -0.281085    1.846884
     15          7           0        0.393878   -1.334304    0.030248
     16          6           0       -0.847145   -1.167577   -0.271196
     17          1           0       -2.107636    2.036924    0.212881
     18          1           0        0.065444    2.769236    0.033168
     19          1           0        1.347057    0.314494   -1.728092
     20          1           0        1.984180    1.950815   -1.496337
     21          1           0        3.827621    0.256763   -1.787304
     22          1           0        3.911889    1.079622   -0.227737
     23          1           0        2.791819   -1.722935   -0.748929
     24          1           0        4.273128   -1.332421    0.129639
     25          1           0        2.367257   -1.877376    1.661803
     26          1           0        2.942303   -0.222831    1.913000
     27          1           0       -1.338525   -1.970952   -0.825544
 ---------------------------------------------------------------------
                    Distance matrix (angstroms):
                    1          2          3          4          5
     1  O    0.000000
     2  N    1.241315   0.000000
     3  O    2.209873   1.240409   0.000000
     4  C    2.323357   1.463952   2.293898   0.000000
     5  C    2.677704   2.383000   3.463899   1.359808   0.000000
     6  N    4.009355   3.682531   4.675329   2.425002   1.346730
     7  C    5.118497   4.516032   5.275853   3.071813   2.527233
     8  H    5.936128   5.392379   6.163084   3.994604   3.273039
     9  C    5.823601   5.275974   6.022110   3.860874   3.461137
    10  C    7.202258   6.517457   7.102845   5.076415   4.823626
    11  C    7.321512   6.424345   6.760865   5.034298   5.114696
    12  C    6.697524   5.742171   6.032378   4.390115   4.476262
    13  C    5.178785   4.268212   4.690129   2.889980   2.975867
    14  H    4.980999   4.064007   4.427490   2.861182   2.932081
    15  N    4.732189   3.682084   3.879353   2.463375   3.139075
    16  C    3.542141   2.464971   2.685960   1.451890   2.541397
    17  H    2.302389   2.511251   3.706622   2.098550   1.087126
    18  H    4.469875   4.387950   5.480537   3.276495   2.021236
    19  H    5.387190   4.805974   5.475197   3.488456   3.396185
    20  H    6.080911   5.743119   6.633613   4.406026   3.739560
    21  H    7.824987   7.180858   7.753768   5.788429   5.588879
    22  H    7.787496   7.160018   7.811257   5.698367   5.244218
    23  H    7.085301   6.135790   6.351899   4.844573   5.174058
    24  H    8.400138   7.477253   7.754996   6.100172   6.175729
    25  H    7.048263   5.978202   6.047537   4.765812   5.094629
    26  H    7.248412   6.375159   6.753187   5.014349   4.856337
    27  H    3.687506   2.599943   2.440560   2.152103   3.406781
                    6          7          8          9         10
     6  N    0.000000
     7  C    1.465956   0.000000
     8  H    2.039472   1.102119   0.000000
     9  C    2.512347   1.525832   2.134286   0.000000
    10  C    3.823497   2.493055   2.651284   1.533060   0.000000
    11  C    4.338212   2.912611   3.153529   2.534506   1.533015
    12  C    3.788894   2.467312   2.590893   2.946585   2.533940
    13  C    2.498938   1.532272   2.133441   2.510430   2.955766
    14  H    2.666632   2.160957   2.492189   3.461234   3.958569
    15  N    3.161726   2.516755   3.419022   2.950973   3.491959
    16  C    3.099545   3.057358   4.062562   3.569744   4.475866
    17  H    2.057868   3.450594   4.034733   4.356151   5.771741
    18  H    1.015167   2.083761   2.310757   2.811118   4.133233
    19  H    2.841395   2.153692   3.045215   1.095712   2.171651
    20  H    2.697688   2.160537   2.503951   1.098409   2.176908
    21  H    4.652452   3.446898   3.674616   2.162357   1.095867
    22  H    4.067740   2.768082   2.465834   2.157286   1.099141
    23  H    4.634154   3.355757   3.883455   2.828798   2.159478
    24  H    5.344452   3.888925   3.923846   3.483707   2.170681
    25  H    4.618751   3.426307   3.601911   3.940697   3.482704
    26  H    3.980997   2.694904   2.344109   3.342705   2.824402
    27  H    4.110141   4.088723   5.118171   4.382191   5.213593
                   11         12         13         14         15
    11  C    0.000000
    12  C    1.528552   0.000000
    13  C    2.516380   1.533931   0.000000
    14  H    3.469744   2.166881   1.100924   0.000000
    15  N    2.890635   2.400934   1.458721   2.101262   0.000000
    16  C    4.115039   3.615172   2.362546   2.647304   1.287946
    17  H    6.164208   5.500740   4.012576   3.832717   4.201917
    18  H    4.926094   4.516510   3.389627   3.571844   4.116664
    19  H    2.827788   3.346771   2.736000   3.728752   2.592073
    20  H    3.488728   3.939858   3.464757   4.295329   3.956202
    21  H    2.170523   3.481157   3.927530   4.976658   4.198283
    22  H    2.163079   2.837419   3.409981   4.242523   4.274342
    23  H    1.095552   2.143510   2.771355   3.769069   2.551132
    24  H    1.096672   2.161472   3.468537   4.302849   3.880524
    25  H    2.166118   1.095654   2.156470   2.486008   2.617465
    26  H    2.169200   1.098200   2.161040   2.473412   3.357767
    27  H    4.760513   4.424099   3.350960   3.642794   2.034433
                   16         17         18         19         20
    16  C    0.000000
    17  H    3.477355   0.000000
    18  H    4.052648   2.300185   0.000000
    19  H    3.022185   4.320769   3.281818   0.000000
    20  H    4.386541   4.435290   2.586648   1.771210   0.000000
    21  H    5.116714   6.511297   4.876537   2.481942   2.520466
    22  H    5.263098   6.111076   4.209276   3.068362   2.466655
    23  H    3.711969   6.250302   5.312664   2.682762   3.835015
    24  H    5.138583   7.216201   5.876862   3.837367   4.320037
    25  H    3.817418   6.119296   5.435237   4.163710   4.977513
    26  H    4.474726   5.787813   4.556595   4.011368   4.155276
    27  H    1.092780   4.211049   5.017759   3.640083   5.183685
                   21         22         23         24         25
    21  H    0.000000
    22  H    1.765346   0.000000
    23  H    2.463800   3.062764   0.000000
    24  H    2.529556   2.464988   1.765972   0.000000
    25  H    4.310863   3.834068   2.452698   2.505363   0.000000
    26  H    3.834846   2.686863   3.059219   2.486496   1.769547
    27  H    5.707605   6.101657   4.138493   5.728066   4.464131
                   26         27
    26  H    0.000000
    27  H    5.374108   0.000000
 Symmetry turned off by external request.
 Stoichiometry    C9H13N3O2
 Framework group  C1[X(C9H13N3O2)]
 Deg. of freedom    75
 Full point group                 C1      NOp   1
 Rotational constants (GHZ):           1.6768641           0.4230222           0.3728625
 Standard basis: 6-31G(d) (6D, 7F)
   236 basis functions,   444 primitive gaussians,   236 cartesian basis functions
    52 alpha electrons       52 beta electrons
       nuclear repulsion energy       932.0096584378 Hartrees.
 NAtoms=   27 NActive=   27 NUniq=   27 SFac= 1.00D+00 NAtFMM=   60 NAOKFM=F Big=F
 Integral buffers will be    131072 words long.
 Raffenetti 1 integral format.
 Two-electron integral symmetry is turned off.
 One-electron integrals computed using PRISM.
 NBasis=   236 RedAO= T EigKep=  1.32D-03  NBF=   236
 NBsUse=   236 1.00D-06 EigRej= -1.00D+00 NBFU=   236
 Initial guess from the checkpoint file:  "/home/alexey/tmp/Gau-1159629.chk"
 B after Tr=     0.052225    0.002653   -0.002315
         Rot=    0.999996   -0.002246    0.001697    0.000462 Ang=  -0.33 deg.
 ExpMin= 1.61D-01 ExpMax= 5.48D+03 ExpMxC= 8.25D+02 IAcc=3 IRadAn=         5 AccDes= 0.00D+00
 Harris functional with IExCor=  205 and IRadAn=       5 diagonalized for initial guess.
 HarFok:  IExCor=  205 AccDes= 0.00D+00 IRadAn=         5 IDoV= 1 UseB2=F ITyADJ=14
 ICtDFT=  3500011 ScaDFX=  1.000000  1.000000  1.000000  1.000000
 FoFCou: FMM=F IPFlag=           0 FMFlag=      100000 FMFlg1=           0
         NFxFlg=           0 DoJE=T BraDBF=F KetDBF=T FulRan=T
         wScrn=  0.000000 ICntrl=       500 IOpCl=  0 I1Cent=   200000004 NGrid=           0
         NMat0=    1 NMatS0=      1 NMatT0=    0 NMatD0=    1 NMtDS0=    0 NMtDT0=    0
 Symmetry not used in FoFCou.
 Keep R1 ints in memory in canonical form, NReq=397720213.
 Requested convergence on RMS density matrix=1.00D-08 within 128 cycles.
 Requested convergence on MAX density matrix=1.00D-06.
 Requested convergence on             energy=1.00D-06.
 No special actions if energy rises.
 SCF Done:  E(RHF) =  -661.296024042     A.U. after   15 cycles
            NFock= 15  Conv=0.41D-08     -V/T= 2.0025
 ExpMin= 1.61D-01 ExpMax= 5.48D+03 ExpMxC= 8.25D+02 IAcc=3 IRadAn=         5 AccDes= 0.00D+00
 HarFok:  IExCor=  205 AccDes= 0.00D+00 IRadAn=         5 IDoV=-2 UseB2=F ITyADJ=14
 ICtDFT= 12500011 ScaDFX=  1.000000  1.000000  1.000000  1.000000
 Range of M.O.s used for correlation:    15   236
 NBasis=   236 NAE=    52 NBE=    52 NFC=    14 NFV=     0
 NROrb=    222 NOA=    38 NOB=    38 NVA=   184 NVB=   184
 Fully direct method using O(ONN) memory.
 JobTyp=1 Pass  1:  I=  15 to  52 NPSUse=  4 ParTrn=T ParDer=T DoDerP=T.
 Spin components of T(2) and E(2):
     alpha-alpha T2 =       0.9130816129D-01 E2=     -0.2724037816D+00
     alpha-beta  T2 =       0.4921915161D+00 E2=     -0.1489003483D+01
     beta-beta   T2 =       0.9130816129D-01 E2=     -0.2724037816D+00
 ANorm=    0.1294143670D+01
 E2 =    -0.2033811046D+01 EUMP2 =    -0.66332983508770D+03
          IDoAtm=111111111111111111111111111
          Differentiating once with respect to electric field.
                with respect to dipole field.
          Differentiating once with respect to nuclear coordinates.
 Keep R1 ints in memory in canonical form, NReq=397723379.
          There are     1 degrees of freedom in the 1st order CPHF.  IDoFFX=0 NUNeed=     1.
 LinEq1:  Iter=  0 NonCon=     1 RMS=4.55D-03 Max=1.02D-01 NDo=     1
 AX will form     1 AO Fock derivatives at one time.
 LinEq1:  Iter=  1 NonCon=     1 RMS=1.53D-03 Max=2.62D-02 NDo=     1
 LinEq1:  Iter=  2 NonCon=     1 RMS=6.41D-04 Max=1.73D-02 NDo=     1
 LinEq1:  Iter=  3 NonCon=     1 RMS=2.79D-04 Max=7.39D-03 NDo=     1
 LinEq1:  Iter=  4 NonCon=     1 RMS=8.71D-05 Max=1.73D-03 NDo=     1
 LinEq1:  Iter=  5 NonCon=     1 RMS=3.59D-05 Max=1.59D-03 NDo=     1
 LinEq1:  Iter=  6 NonCon=     1 RMS=1.40D-05 Max=4.99D-04 NDo=     1
 LinEq1:  Iter=  7 NonCon=     1 RMS=5.43D-06 Max=8.29D-05 NDo=     1
 LinEq1:  Iter=  8 NonCon=     1 RMS=2.17D-06 Max=5.16D-05 NDo=     1
 LinEq1:  Iter=  9 NonCon=     1 RMS=7.98D-07 Max=1.79D-05 NDo=     1
 LinEq1:  Iter= 10 NonCon=     1 RMS=4.11D-07 Max=1.78D-05 NDo=     1
[...]
                   16         17         18         19         20
    16  C    0.000000
    17  H    3.465077   0.000000
    18  H    4.095947   2.239130   0.000000
    19  H    2.993544   4.270151   3.517522   0.000000
    20  H    4.378223   4.416362   2.886264   1.768426   0.000000
    21  H    5.097935   6.487446   5.089579   2.499403   2.520992
    22  H    5.249397   6.093025   4.313644   3.070295   2.461624
    23  H    3.693928   6.227385   5.424388   2.704368   3.843014
    24  H    5.132391   7.201928   5.937691   3.849661   4.317131
    25  H    3.819008   6.111376   5.369623   4.171843   4.984951
    26  H    4.492466   5.803341   4.481340   4.034436   4.180373
    27  H    1.091296   4.209629   5.091846   3.598693   5.162017
                   21         22         23         24         25
    21  H    0.000000
    22  H    1.758871   0.000000
    23  H    2.469659   3.062335   0.000000
    24  H    2.517378   2.459810   1.764564   0.000000
    25  H    4.311958   3.838721   2.444665   2.519289   0.000000
    26  H    3.845769   2.702863   3.060523   2.492353   1.768034
    27  H    5.666141   6.070013   4.097767   5.700189   4.452776
                   26         27
    26  H    0.000000
    27  H    5.378606   0.000000
 Symmetry turned off by external request.
 Stoichiometry    C9H13N3O2
 Framework group  C1[X(C9H13N3O2)]
 Deg. of freedom    75
 Full point group                 C1      NOp   1
 Rotational constants (GHZ):           1.6672389           0.4219447           0.3734571

 **********************************************************************

            Population analysis using the SCF Density.

 **********************************************************************

 Alpha  occ. eigenvalues --  -20.59450 -20.59200 -15.84628 -15.63990 -15.56090
 Alpha  occ. eigenvalues --  -11.35001 -11.29748 -11.29576 -11.28552 -11.27118
 Alpha  occ. eigenvalues --  -11.23678 -11.23170 -11.22664 -11.22061  -1.57134
 Alpha  occ. eigenvalues --   -1.36804  -1.30871  -1.23098  -1.14730  -1.09860
 Alpha  occ. eigenvalues --   -1.02769  -1.01266  -0.94536  -0.89673  -0.85514
 Alpha  occ. eigenvalues --   -0.82517  -0.78555  -0.77511  -0.75203  -0.72010
 Alpha  occ. eigenvalues --   -0.70149  -0.69032  -0.67505  -0.65015  -0.63695
 Alpha  occ. eigenvalues --   -0.62422  -0.60267  -0.57672  -0.56963  -0.55101
 Alpha  occ. eigenvalues --   -0.54591  -0.50700  -0.50309  -0.48719  -0.48080
 Alpha  occ. eigenvalues --   -0.47544  -0.46154  -0.46035  -0.43595  -0.41691
 Alpha  occ. eigenvalues --   -0.39907  -0.33697
 Alpha virt. eigenvalues --    0.07605   0.11649   0.17309   0.21765   0.24011
 Alpha virt. eigenvalues --    0.25517   0.27022   0.28547   0.29053   0.29504
 Alpha virt. eigenvalues --    0.30254   0.31681   0.32014   0.32763   0.33903
 Alpha virt. eigenvalues --    0.34367   0.35824   0.37369   0.38619   0.40354
 Alpha virt. eigenvalues --    0.41556   0.42347   0.44954   0.46039   0.46790
 Alpha virt. eigenvalues --    0.47567   0.48601   0.53738   0.57516   0.58934
 Alpha virt. eigenvalues --    0.63550   0.69491   0.69851   0.72922   0.74236
 Alpha virt. eigenvalues --    0.75007   0.75783   0.76755   0.78731   0.79281
 Alpha virt. eigenvalues --    0.81604   0.84546   0.85582   0.85822   0.88601
 Alpha virt. eigenvalues --    0.89386   0.91187   0.91709   0.92733   0.94417
 Alpha virt. eigenvalues --    0.95452   0.98028   0.99480   1.01829   1.02007
 Alpha virt. eigenvalues --    1.03702   1.05863   1.06772   1.07950   1.08622
 Alpha virt. eigenvalues --    1.10663   1.11224   1.11867   1.12145   1.13884
 Alpha virt. eigenvalues --    1.14623   1.15022   1.15794   1.16608   1.18524
 Alpha virt. eigenvalues --    1.18791   1.20602   1.21866   1.22962   1.23487
 Alpha virt. eigenvalues --    1.24439   1.25482   1.26531   1.28469   1.29324
 Alpha virt. eigenvalues --    1.31099   1.33759   1.36012   1.37489   1.40001
 Alpha virt. eigenvalues --    1.40698   1.43745   1.45461   1.50837   1.53242
 Alpha virt. eigenvalues --    1.55591   1.57588   1.60820   1.63578   1.66056
 Alpha virt. eigenvalues --    1.68076   1.69019   1.73309   1.75410   1.76966
 Alpha virt. eigenvalues --    1.79257   1.82988   1.86544   1.90148   1.92418
 Alpha virt. eigenvalues --    1.93618   1.96077   1.99199   2.01714   2.02470
 Alpha virt. eigenvalues --    2.04963   2.05733   2.07903   2.09849   2.13792
 Alpha virt. eigenvalues --    2.14646   2.15277   2.19338   2.20310   2.21414
 Alpha virt. eigenvalues --    2.22611   2.24728   2.25597   2.28173   2.29609
 Alpha virt. eigenvalues --    2.32060   2.33472   2.34184   2.36867   2.38001
 Alpha virt. eigenvalues --    2.39995   2.40297   2.43518   2.44775   2.47519
 Alpha virt. eigenvalues --    2.50595   2.52650   2.53711   2.55403   2.62304
 Alpha virt. eigenvalues --    2.62551   2.65337   2.67185   2.70497   2.71233
 Alpha virt. eigenvalues --    2.72042   2.72567   2.76022   2.78146   2.84339
 Alpha virt. eigenvalues --    2.88068   2.89179   2.92159   2.94755   2.96914
 Alpha virt. eigenvalues --    2.99782   3.00787   3.03328   3.05351   3.08162
 Alpha virt. eigenvalues --    3.09387   3.15409   3.20476   3.22699   3.26705
 Alpha virt. eigenvalues --    3.32627   3.36906   3.38677   3.50731   3.65186
 Alpha virt. eigenvalues --    4.10845   4.25655   4.28143   4.37156   4.46514
 Alpha virt. eigenvalues --    4.56063   4.62097   4.62820   4.73528   4.78640
 Alpha virt. eigenvalues --    4.99151   5.00911   5.05050   5.11167
          Condensed to atoms (all electrons):
               1          2          3          4          5          6
     1  O    8.339585   0.298651  -0.078830  -0.090180   0.006195   0.000625
     2  N    0.298651   5.761011   0.302247   0.249069  -0.051966   0.001268
     3  O   -0.078830   0.302247   8.307933  -0.085107   0.004214  -0.000021
     4  C   -0.090180   0.249069  -0.085107   5.239748   0.559532  -0.047916
     5  C    0.006195  -0.051966   0.004214   0.559532   4.692847   0.318579
     6  N    0.000625   0.001268  -0.000021  -0.047916   0.318579   7.194383
     7  C   -0.000002  -0.000129   0.000005   0.005001  -0.030923   0.171403
     8  H   -0.000000   0.000002  -0.000000  -0.000262   0.003233  -0.050267
     9  C   -0.000000  -0.000004  -0.000000   0.000837   0.000640  -0.062526
    10  C    0.000000   0.000000   0.000000  -0.000041  -0.000055   0.003776
    11  C   -0.000000  -0.000000  -0.000000  -0.000027   0.000027  -0.000189
    12  C   -0.000000   0.000002  -0.000000  -0.000135  -0.000183   0.003846
    13  C   -0.000001  -0.000042  -0.000030  -0.011557  -0.000699  -0.047724
    14  H    0.000001  -0.000095  -0.000008   0.002448   0.005689  -0.006715
    15  N   -0.000029   0.002611   0.000219  -0.065701  -0.005706   0.001893
    16  C    0.001887  -0.024502   0.001880   0.321416  -0.044393  -0.002155
    17  H    0.014094  -0.005785   0.000158  -0.026461   0.378135  -0.033684
    18  H    0.000010  -0.000057   0.000001   0.001626  -0.030525   0.338227
    19  H    0.000000  -0.000004   0.000000  -0.001331   0.001230  -0.000356
    20  H    0.000000  -0.000000   0.000000  -0.000076   0.000141  -0.000300
    21  H   -0.000000   0.000000  -0.000000   0.000001   0.000001  -0.000078
    22  H   -0.000000   0.000000  -0.000000  -0.000000  -0.000003  -0.000116
    23  H    0.000000  -0.000000  -0.000000   0.000040  -0.000001  -0.000030
    24  H    0.000000   0.000000   0.000000   0.000000  -0.000000   0.000006
    25  H    0.000000  -0.000000   0.000000   0.000024  -0.000000  -0.000089
    26  H    0.000000  -0.000000  -0.000000   0.000006  -0.000003  -0.000060
    27  H   -0.000010  -0.000420   0.004985  -0.070106   0.002329   0.000029
               7          8          9         10         11         12
     1  O   -0.000002  -0.000000  -0.000000   0.000000  -0.000000  -0.000000
     2  N   -0.000129   0.000002  -0.000004   0.000000  -0.000000   0.000002
     3  O    0.000005  -0.000000  -0.000000   0.000000  -0.000000  -0.000000
     4  C    0.005001  -0.000262   0.000837  -0.000041  -0.000027  -0.000135
     5  C   -0.030923   0.003233   0.000640  -0.000055   0.000027  -0.000183
     6  N    0.171403  -0.050267  -0.062526   0.003776  -0.000189   0.003846
     7  C    5.019354   0.418017   0.351170  -0.054669  -0.009005  -0.060761
     8  H    0.418017   0.537960  -0.054764   0.000692  -0.000310  -0.002330
     9  C    0.351170  -0.054764   5.157501   0.324926  -0.050453  -0.005238
    10  C   -0.054669   0.000692   0.324926   5.119217   0.336973  -0.061130
    11  C   -0.009005  -0.000310  -0.050453   0.336973   5.120054   0.336005
    12  C   -0.060761  -0.002330  -0.005238  -0.061130   0.336005   5.118737
    13  C    0.336853  -0.037696  -0.060944  -0.000143  -0.050837   0.371500
    14  H   -0.046750  -0.000755   0.004425  -0.000403   0.004191  -0.036244
    15  N   -0.057707   0.003836  -0.014190   0.001564  -0.013117  -0.081934
    16  C   -0.002461   0.000037  -0.001312  -0.000033   0.000021   0.002818
    17  H    0.001756  -0.000056  -0.000064   0.000001   0.000000   0.000000
    18  H   -0.021393  -0.004555   0.001385  -0.000083   0.000004  -0.000113
    19  H   -0.036990   0.004351   0.390436  -0.032184  -0.002211   0.000680
    20  H   -0.042458  -0.002051   0.399513  -0.035273   0.003929  -0.000416
    21  H    0.004601  -0.000076  -0.036357   0.402390  -0.034926   0.004361
    22  H   -0.004867   0.003562  -0.046947   0.397750  -0.045394  -0.001045
    23  H    0.000571   0.000035  -0.001955  -0.039022   0.399228  -0.037893
    24  H   -0.000131  -0.000103   0.004388  -0.038434   0.402353  -0.038689
    25  H    0.005141  -0.000023  -0.000426   0.004195  -0.033407   0.398348
    26  H   -0.003938   0.001682   0.000976  -0.002250  -0.041470   0.396704
    27  H   -0.000425   0.000009  -0.000059   0.000007   0.000012  -0.000041
              13         14         15         16         17         18
     1  O   -0.000001   0.000001  -0.000029   0.001887   0.014094   0.000010
     2  N   -0.000042  -0.000095   0.002611  -0.024502  -0.005785  -0.000057
     3  O   -0.000030  -0.000008   0.000219   0.001880   0.000158   0.000001
     4  C   -0.011557   0.002448  -0.065701   0.321416  -0.026461   0.001626
     5  C   -0.000699   0.005689  -0.005706  -0.044393   0.378135  -0.030525
     6  N   -0.047724  -0.006715   0.001893  -0.002155  -0.033684   0.338227
     7  C    0.336853  -0.046750  -0.057707  -0.002461   0.001756  -0.021393
     8  H   -0.037696  -0.000755   0.003836   0.000037  -0.000056  -0.004555
     9  C   -0.060944   0.004425  -0.014190  -0.001312  -0.000064   0.001385
    10  C   -0.000143  -0.000403   0.001564  -0.000033   0.000001  -0.000083
    11  C   -0.050837   0.004191  -0.013117   0.000021   0.000000   0.000004
    12  C    0.371500  -0.036244  -0.081934   0.002818   0.000000  -0.000113
    13  C    5.040301   0.403677   0.247710  -0.072117  -0.000037   0.002926
    14  H    0.403677   0.526242  -0.037721  -0.004444   0.000085  -0.000115
    15  N    0.247710  -0.037721   6.958454   0.589343  -0.000057  -0.000134
    16  C   -0.072117  -0.004444   0.589343   4.702951   0.002077  -0.000191
    17  H   -0.000037   0.000085  -0.000057   0.002077   0.385520  -0.002897
    18  H    0.002926  -0.000115  -0.000134  -0.000191  -0.002897   0.310857
    19  H   -0.007469   0.000106   0.007561   0.003036   0.000016  -0.000151
    20  H    0.004359  -0.000066   0.000124  -0.000035   0.000001   0.000779
    21  H   -0.000442   0.000010  -0.000042   0.000003  -0.000000   0.000001
    22  H    0.000057  -0.000054   0.000019  -0.000002   0.000000   0.000001
    23  H   -0.007508   0.000003   0.008533   0.000102   0.000000   0.000000
    24  H    0.004705  -0.000057   0.000132   0.000007   0.000000  -0.000000
    25  H   -0.035585  -0.002833   0.000409  -0.000018  -0.000000   0.000002
    26  H   -0.047360  -0.001030   0.004880  -0.000066   0.000000  -0.000000
    27  H    0.005244  -0.000166  -0.038928   0.405687  -0.000082   0.000001
              19         20         21         22         23         24
     1  O    0.000000   0.000000  -0.000000  -0.000000   0.000000   0.000000
     2  N   -0.000004  -0.000000   0.000000   0.000000  -0.000000   0.000000
     3  O    0.000000   0.000000  -0.000000  -0.000000  -0.000000   0.000000
     4  C   -0.001331  -0.000076   0.000001  -0.000000   0.000040   0.000000
     5  C    0.001230   0.000141   0.000001  -0.000003  -0.000001  -0.000000
     6  N   -0.000356  -0.000300  -0.000078  -0.000116  -0.000030   0.000006
     7  C   -0.036990  -0.042458   0.004601  -0.004867   0.000571  -0.000131
     8  H    0.004351  -0.002051  -0.000076   0.003562   0.000035  -0.000103
     9  C    0.390436   0.399513  -0.036357  -0.046947  -0.001955   0.004388
    10  C   -0.032184  -0.035273   0.402390   0.397750  -0.039022  -0.038434
    11  C   -0.002211   0.003929  -0.034926  -0.045394   0.399228   0.402353
    12  C    0.000680  -0.000416   0.004361  -0.001045  -0.037893  -0.038689
    13  C   -0.007469   0.004359  -0.000442   0.000057  -0.007508   0.004705
    14  H    0.000106  -0.000066   0.000010  -0.000054   0.000003  -0.000057
    15  N    0.007561   0.000124  -0.000042   0.000019   0.008533   0.000132
    16  C    0.003036  -0.000035   0.000003  -0.000002   0.000102   0.000007
    17  H    0.000016   0.000001  -0.000000   0.000000   0.000000   0.000000
    18  H   -0.000151   0.000779   0.000001   0.000001   0.000000  -0.000000
    19  H    0.505461  -0.024719  -0.002785   0.003965   0.001515  -0.000067
    20  H   -0.024719   0.540714  -0.002706  -0.002983  -0.000045  -0.000083
    21  H   -0.002785  -0.002706   0.524300  -0.027425  -0.002898  -0.002246
    22  H    0.003965  -0.002983  -0.027425   0.571450   0.004138  -0.003654
    23  H    0.001515  -0.000045  -0.002898   0.004138   0.499145  -0.025476
    24  H   -0.000067  -0.000083  -0.002246  -0.003654  -0.025476   0.538256
    25  H   -0.000029   0.000012  -0.000087  -0.000080  -0.002309  -0.002300
    26  H    0.000019  -0.000030  -0.000081   0.002383   0.004068  -0.003027
    27  H    0.000092   0.000000  -0.000000   0.000000  -0.000035  -0.000000
              25         26         27
     1  O    0.000000   0.000000  -0.000010
     2  N   -0.000000  -0.000000  -0.000420
     3  O    0.000000  -0.000000   0.004985
     4  C    0.000024   0.000006  -0.070106
     5  C   -0.000000  -0.000003   0.002329
     6  N   -0.000089  -0.000060   0.000029
     7  C    0.005141  -0.003938  -0.000425
     8  H   -0.000023   0.001682   0.000009
     9  C   -0.000426   0.000976  -0.000059
    10  C    0.004195  -0.002250   0.000007
    11  C   -0.033407  -0.041470   0.000012
    12  C    0.398348   0.396704  -0.000041
    13  C   -0.035585  -0.047360   0.005244
    14  H   -0.002833  -0.001030  -0.000166
    15  N    0.000409   0.004880  -0.038928
    16  C   -0.000018  -0.000066   0.405687
    17  H   -0.000000   0.000000  -0.000082
    18  H    0.000002  -0.000000   0.000001
    19  H   -0.000029   0.000019   0.000092
    20  H    0.000012  -0.000030   0.000000
    21  H   -0.000087  -0.000081  -0.000000
    22  H   -0.000080   0.002383   0.000000
    23  H   -0.002309   0.004068  -0.000035
    24  H   -0.002300  -0.003027  -0.000000
    25  H    0.505969  -0.024083  -0.000013
    26  H   -0.024083   0.562429   0.000001
    27  H   -0.000013   0.000001   0.451367
 Mulliken charges:
               1
     1  O   -0.491995
     2  N    0.468144
     3  O   -0.457646
     4  C    0.019152
     5  C    0.191664
     6  N   -0.781810
     7  C    0.058736
     8  H    0.179831
     9  C   -0.300957
    10  C   -0.327772
    11  C   -0.321449
    12  C   -0.306847
    13  C   -0.037138
    14  H    0.190577
    15  N   -0.512021
    16  C    0.120462
    17  H    0.287281
    18  H    0.404395
    19  H    0.189826
    20  H    0.161670
    21  H    0.174481
    22  H    0.149248
    23  H    0.199795
    24  H    0.164422
    25  H    0.187182
    26  H    0.150250
    27  H    0.240519
 Sum of Mulliken charges =  -0.00000
 Mulliken charges with hydrogens summed into heavy atoms:
               1
     1  O   -0.491995
     2  N    0.468144
     3  O   -0.457646
     4  C    0.019152
     5  C    0.478945
     6  N   -0.377415
     7  C    0.238567
     9  C    0.050539
    10  C   -0.004043
    11  C    0.042768
    12  C    0.030585
    13  C    0.153438
    15  N   -0.512021
    16  C    0.360982
 Electronic spatial extent (au):  <R**2>=           2995.6146
 Charge=             -0.0000 electrons
 Dipole moment (field-independent basis, Debye):
    X=              5.2664    Y=              4.8903    Z=              1.0298  Tot=              7.2602
 Quadrupole moment (field-independent basis, Debye-Ang):
   XX=           -105.2007   YY=            -78.7398   ZZ=            -82.2890
   XY=             -1.9557   XZ=             -1.1134   YZ=              3.3526
 Traceless Quadrupole moment (field-independent basis, Debye-Ang):
   XX=            -16.4575   YY=             10.0034   ZZ=              6.4542
   XY=             -1.9557   XZ=             -1.1134   YZ=              3.3526
 Octapole moment (field-independent basis, Debye-Ang**2):
  XXX=             86.3673  YYY=             37.9587  ZZZ=             -1.4494  XYY=             -5.6484
  XXY=             11.2942  XXZ=              9.6661  XZZ=             -8.2580  YZZ=             -2.0432
  YYZ=              3.3628  XYZ=             -6.1637
 Hexadecapole moment (field-independent basis, Debye-Ang**3):
 XXXX=          -3338.6474 YYYY=           -587.6263 ZZZZ=           -317.3679 XXXY=            -29.2131
 XXXZ=            -55.5568 YYYX=             -7.8524 YYYZ=             52.1089 ZZZX=            -18.3709
 ZZZY=             37.0101 XXYY=           -621.3332 XXZZ=           -528.2877 YYZZ=           -161.4373
 XXYZ=             31.4727 YYXZ=             -0.0034 ZZXY=              5.8771
 N-N= 9.314844230837D+02 E-N=-3.409672881419D+03  KE= 6.596247558424D+02
 Unable to Open any file for archive entry.
 1\1\GINC-LOTUS\FOpt\RMP2-FC\6-31G(d)\C9H13N3O2\ALEXEY\30-Jun-2023\0\\#
 MP2/6-31G* SCF=Tight Opt=(ModRedun, MaxCycle=20 ) NoSymm\\MolName:\\0,
 1\O,-3.84083311,0.7042277865,-0.5001944031\N,-3.1087128389,-0.23823744
 31,-0.1388041215\O,-3.5191244521,-1.3951213621,0.0837011081\C,-1.68218
 907,-0.0214043624,0.0096580363\C,-1.3006449575,1.28676149,0.1502471076
 \N,-0.0567704039,1.78332302,0.2416408247\C,1.2032571597,1.0532941062,0
 .2821969535\H,1.8542458082,1.6461224528,0.9421289446\C,1.9018021501,0.
 933166972,-1.0711794777\C,3.3010108262,0.3449083173,-0.8556706465\C,3.
 2561970473,-0.9842828555,-0.0973805325\C,2.466991513,-0.8682528936,1.2
 083486564\C,1.0553665977,-0.3420138949,0.9245083445\H,0.4818458242,-0.
 2313023442,1.8583229912\N,0.4066154352,-1.3267268484,0.0638027721\C,-0
 .8419908539,-1.1746122901,-0.238710928\H,-2.0949443109,2.0278950796,0.
 1865118666\H,0.0031645722,2.7843614462,0.3850069423\H,1.3043725166,0.2
 894045432,-1.7256817539\H,1.96564883,1.9197489224,-1.5467327489\H,3.80
 07504047,0.213319264,-1.822231455\H,3.9033732372,1.0693017366,-0.28913
 38708\H,2.7756874818,-1.7449593531,-0.720593552\H,4.2762368603,-1.3291
 723235,0.1095622253\H,2.3844783445,-1.8479416991,1.6903681887\H,2.9792
 159199,-0.1977843532,1.912204868\H,-1.3140605315,-1.9929931135,-0.7849
 063401\\Version=ES64L-G16RevC.02\HF=-661.2978487\MP2=-663.3334458\RMSD
 =3.257e-09\RMSF=7.270e-04\Dipole=1.9369924,1.7292877,0.3757915\PG=C01 
 [X(C9H13N3O2)]\\@
 The archive entry for this job was punched.


 ORIGINALITY CONSISTS NOT IN SAYING WHAT NO ONE HAS EVER SAID BEFORE, 
 BUT IN SAYING WHAT YOU THINK YOUR SELF.

                                    -- JAMES F. STEPHEN
 Job cpu time:       0 days  1 hours 21 minutes 46.4 seconds.
 Elapsed time:       0 days  0 hours 24 minutes 28.4 seconds.
 File lengths (MBytes):  RWF=     36 Int=      0 D2E=      0 Chk=      7 Scr=      1
 Normal termination of Gaussian 16 at Fri Jun 30 14:56:02 2023.
