 Entering Gaussian System, Link 0=g16
 Initial command:
 /home/alexey/programs//g16/l1.exe "/home/alexey/tmp/Gau-1048221.inp" -scrdir="/home/alexey/tmp/"
 Entering Link 1 = /home/alexey/programs//g16/l1.exe PID=   1048223.
  
 Copyright (c) 1988-2021, Gaussian, Inc.  All Rights Reserved.
  
 This is part of the Gaussian(R) 16 program.  It is based on
 the Gaussian(R) 09 system (copyright 2009, Gaussian, Inc.),
 the Gaussian(R) 03 system (copyright 2003, Gaussian, Inc.),
 the Gaussian(R) 98 system (copyright 1998, Gaussian, Inc.),
 the Gaussian(R) 94 system (copyright 1995, Gaussian, Inc.),
 the Gaussian 92(TM) system (copyright 1992, Gaussian, Inc.),
 the Gaussian 90(TM) system (copyright 1990, Gaussian, Inc.),
 the Gaussian 88(TM) system (copyright 1988, Gaussian, Inc.),
 the Gaussian 86(TM) system (copyright 1986, Carnegie Mellon
 University), and the Gaussian 82(TM) system (copyright 1983,
 Carnegie Mellon University). Gaussian is a federally registered
 trademark of Gaussian, Inc.
  
 This software contains proprietary and confidential information,
 including trade secrets, belonging to Gaussian, Inc.
  
 This software is provided under written license and may be
 used, copied, transmitted, or stored only in accord with that
 written license.
  
 The following legend is applicable only to US Government
 contracts under FAR:
  
                    RESTRICTED RIGHTS LEGEND
  
 Use, reproduction and disclosure by the US Government is
 subject to restrictions as set forth in subparagraphs (a)
 and (c) of the Commercial Computer Software - Restricted
 Rights clause in FAR 52.227-19.
  
 Gaussian, Inc.
 340 Quinnipiac St., Bldg. 40, Wallingford CT 06492
  
  
 ---------------------------------------------------------------
 Warning -- This program may not be used in any manner that
 competes with the business of Gaussian, Inc. or will provide
 assistance to any competitor of Gaussian, Inc.  The licensee
 of this program is prohibited from giving any competitor of
 Gaussian, Inc. access to this program.  By using this program,
 the user acknowledges that Gaussian, Inc. is engaged in the
 business of creating and licensing software in the field of
 computational chemistry and represents and warrants to the
 licensee that it is not a competitor of Gaussian, Inc. and that
 it will not use this program in any manner prohibited above.
 ---------------------------------------------------------------
  

 Cite this work as:
 Gaussian 16, Revision C.02,
 M. J. Frisch, G. W. Trucks, H. B. Schlegel, G. E. Scuseria, 
 M. A. Robb, J. R. Cheeseman, G. Scalmani, V. Barone, 
 G. A. Petersson, H. Nakatsuji, X. Li, M. Caricato, A. V. Marenich, 
 J. Bloino, B. G. Janesko, R. Gomperts, B. Mennucci, H. P. Hratchian, 
 J. V. Ortiz, A. F. Izmaylov, J. L. Sonnenberg, D. Williams-Young, 
 F. Ding, F. Lipparini, F. Egidi, J. Goings, B. Peng, A. Petrone, 
 T. Henderson, D. Ranasinghe, V. G. Zakrzewski, J. Gao, N. Rega, 
 G. Zheng, W. Liang, M. Hada, M. Ehara, K. Toyota, R. Fukuda, 
 J. Hasegawa, M. Ishida, T. Nakajima, Y. Honda, O. Kitao, H. Nakai, 
 T. Vreven, K. Throssell, J. A. Montgomery, Jr., J. E. Peralta, 
 F. Ogliaro, M. J. Bearpark, J. J. Heyd, E. N. Brothers, K. N. Kudin, 
 V. N. Staroverov, T. A. Keith, R. Kobayashi, J. Normand, 
 K. Raghavachari, A. P. Rendell, J. C. Burant, S. S. Iyengar, 
 J. Tomasi, M. Cossi, J. M. Millam, M. Klene, C. Adamo, R. Cammi, 
 J. W. Ochterski, R. L. Martin, K. Morokuma, O. Farkas, 
 J. B. Foresman, and D. J. Fox, Gaussian, Inc., Wallingford CT, 2019.
 
 ******************************************
 Gaussian 16:  ES64L-G16RevC.02  7-Dec-2021
                30-Jun-2023 
 ******************************************
 %mem=8GB
 %NPROCS=4
 Will use up to    4 processors via shared memory.
 %NoSave
 ---------------------------------------------------------
 #MP2/6-31G* SCF=Tight Opt=(ModRedun, MaxCycle=20 ) NoSymm
 ---------------------------------------------------------
 1/6=20,18=120,19=15,38=1/1,3;
 2/9=110,12=2,15=1,17=6,18=5,40=1/2;
 3/5=1,6=6,7=1,11=9,25=1,30=1,71=1/1,2,3;
 4//1;
 5/5=2,32=2,38=5/2;
 8/6=4,10=2/1;
 9/15=2,16=-3/6;
 10/5=1,31=1/2;
 6/7=2,8=2,9=2,10=2/1;
 7/12=2,30=1/1,2,3,16;
 1/6=20,18=20,19=15/3(2);
 2/9=110,15=1/2;
 99//99;
 2/9=110,15=1/2;
 3/5=1,6=6,7=1,11=9,25=1,30=1,71=1/1,2,3;
 4/5=5,16=3,69=1/1;
 5/5=2,32=2,38=5/2;
 8/6=4,10=2/1;
 9/15=2,16=-3/6;
 10/5=1,31=1/2;
 7/12=2,30=1/1,2,3,16;
 1/6=20,18=20,19=15/3(-8);
 2/9=110,15=1/2;
 6/7=2,8=2,9=2,10=2/1;
 99/9=10/99;
 --------
 MolName:
 --------
 Symbolic Z-matrix:
 Charge =  0 Multiplicity = 1
 8                    0    -3.60857  -1.44677   0.00949 
 7                    0    -3.25066  -0.27148  -0.04247 
 8                    0    -4.02575   0.68192  -0.12507 
 6                    0    -1.75426   0.00821  -0.04296 
 6                    0    -1.36928   1.31308   0.28181 
 7                    0    -0.08166   1.76459   0.41206 
 6                    0     1.19723   0.99181   0.37312 
 1                    0     1.86283   1.48258   1.12992 
 6                    0     1.9586    1.05511  -0.97453 
 6                    0     3.37093   0.46668  -0.7937 
 6                    0     3.31007  -0.95463  -0.21214 
 6                    0     2.46473  -0.99984   1.07902 
 6                    0     1.0273   -0.46191   0.83992 
 1                    0     0.48031  -0.50937   1.81069 
 7                    0     0.36905  -1.32376  -0.14511 
 6                    0    -0.87314  -1.12026  -0.4386 
 1                    0    -2.15988   2.05048   0.49934 
 1                    0     0.1517    2.74864   0.25884 
 1                    0     1.40719   0.48562  -1.75267 
 1                    0     2.0443    2.10824  -1.31691 
 1                    0     3.9034    0.45151  -1.76982 
 1                    0     3.94974   1.11407  -0.09763 
 1                    0     2.86107  -1.63699  -0.9688 
 1                    0     4.33846  -1.3206   -0.00072 
 1                    0     2.40706  -2.04943   1.44199 
 1                    0     2.96052  -0.39578   1.86755 
 1                    0    -1.38129  -1.86974  -1.06461 
 
 The following ModRedundant input section has been read:
 D       1       2       4      16 F                                           
 D       7      13      15      16 F                                           
 D       7       9      10      11 F                                           
 D       9      10      11      12 F                                           
 D       6       7      13      15 F                                           
 

 GradGradGradGradGradGradGradGradGradGradGradGradGradGradGradGradGradGrad
 Berny optimization.
 Initialization pass.
                           ----------------------------
                           !    Initial Parameters    !
                           ! (Angstroms and Degrees)  !
 --------------------------                            --------------------------
 ! Name  Definition              Value          Derivative Info.                !
 --------------------------------------------------------------------------------
 ! R1    R(1,2)                  1.2297         estimate D2E/DX2                !
 ! R2    R(2,3)                  1.2315         estimate D2E/DX2                !
 ! R3    R(2,4)                  1.5223         estimate D2E/DX2                !
 ! R4    R(4,5)                  1.3987         estimate D2E/DX2                !
 ! R5    R(4,16)                 1.4854         estimate D2E/DX2                !
 ! R6    R(5,6)                  1.3707         estimate D2E/DX2                !
 ! R7    R(5,17)                 1.1028         estimate D2E/DX2                !
 ! R8    R(6,7)                  1.4947         estimate D2E/DX2                !
 ! R9    R(6,18)                 1.0229         estimate D2E/DX2                !
 ! R10   R(7,8)                  1.121          estimate D2E/DX2                !
 ! R11   R(7,9)                  1.5491         estimate D2E/DX2                !
 ! R12   R(7,13)                 1.5363         estimate D2E/DX2                !
 ! R13   R(9,10)                 1.5407         estimate D2E/DX2                !
 ! R14   R(9,19)                 1.1108         estimate D2E/DX2                !
 ! R15   R(9,20)                 1.1107         estimate D2E/DX2                !
 ! R16   R(10,11)                1.5369         estimate D2E/DX2                !
 ! R17   R(10,21)                1.112          estimate D2E/DX2                !
 ! R18   R(10,22)                1.1129         estimate D2E/DX2                !
 ! R19   R(11,12)                1.5439         estimate D2E/DX2                !
 ! R20   R(11,23)                1.1134         estimate D2E/DX2                !
 ! R21   R(11,24)                1.1119         estimate D2E/DX2                !
 ! R22   R(12,13)                1.5533         estimate D2E/DX2                !
 ! R23   R(12,25)                1.1121         estimate D2E/DX2                !
 ! R24   R(12,26)                1.1102         estimate D2E/DX2                !
 ! R25   R(13,14)                1.1153         estimate D2E/DX2                !
 ! R26   R(13,15)                1.465          estimate D2E/DX2                !
 ! R27   R(15,16)                1.2925         estimate D2E/DX2                !
 ! R28   R(16,27)                1.1008         estimate D2E/DX2                !
 ! A1    A(1,2,3)              124.0273         estimate D2E/DX2                !
 ! A2    A(1,2,4)              117.4981         estimate D2E/DX2                !
 ! A3    A(3,2,4)              118.4518         estimate D2E/DX2                !
 ! A4    A(2,4,5)              116.224          estimate D2E/DX2                !
 ! A5    A(2,4,16)             116.334          estimate D2E/DX2                !
 ! A6    A(5,4,16)             127.3965         estimate D2E/DX2                !
 ! A7    A(4,5,6)              126.0102         estimate D2E/DX2                !
 ! A8    A(4,5,17)             118.1832         estimate D2E/DX2                !
 ! A9    A(6,5,17)             115.7509         estimate D2E/DX2                !
 ! A10   A(5,6,7)              129.1211         estimate D2E/DX2                !
 ! A11   A(5,6,18)             121.1297         estimate D2E/DX2                !
 ! A12   A(7,6,18)             107.354          estimate D2E/DX2                !
 ! A13   A(6,7,8)              105.3126         estimate D2E/DX2                !
 ! A14   A(6,7,9)              114.9635         estimate D2E/DX2                !
 ! A15   A(6,7,13)             112.7472         estimate D2E/DX2                !
 ! A16   A(8,7,9)              106.1168         estimate D2E/DX2                !
 ! A17   A(8,7,13)             105.9512         estimate D2E/DX2                !
 ! A18   A(9,7,13)             110.9384         estimate D2E/DX2                !
 ! A19   A(7,9,10)             109.4405         estimate D2E/DX2                !
 ! A20   A(7,9,19)             110.1503         estimate D2E/DX2                !
 ! A21   A(7,9,20)             110.1712         estimate D2E/DX2                !
 ! A22   A(10,9,19)            109.9665         estimate D2E/DX2                !
 ! A23   A(10,9,20)            109.1224         estimate D2E/DX2                !
 ! A24   A(19,9,20)            107.9673         estimate D2E/DX2                !
 ! A25   A(9,10,11)            111.1815         estimate D2E/DX2                !
 ! A26   A(9,10,21)            109.9459         estimate D2E/DX2                !
 ! A27   A(9,10,22)            109.1469         estimate D2E/DX2                !
 ! A28   A(11,10,21)           109.7858         estimate D2E/DX2                !
 ! A29   A(11,10,22)           108.7764         estimate D2E/DX2                !
 ! A30   A(21,10,22)           107.9333         estimate D2E/DX2                !
 ! A31   A(10,11,12)           111.4205         estimate D2E/DX2                !
 ! A32   A(10,11,23)           109.0001         estimate D2E/DX2                !
 ! A33   A(10,11,24)           109.8601         estimate D2E/DX2                !
 ! A34   A(12,11,23)           109.2428         estimate D2E/DX2                !
 ! A35   A(12,11,24)           109.7407         estimate D2E/DX2                !
 ! A36   A(23,11,24)           107.4868         estimate D2E/DX2                !
 ! A37   A(11,12,13)           111.5806         estimate D2E/DX2                !
 ! A38   A(11,12,25)           109.2071         estimate D2E/DX2                !
 ! A39   A(11,12,26)           109.4838         estimate D2E/DX2                !
 ! A40   A(13,12,25)           109.2146         estimate D2E/DX2                !
 ! A41   A(13,12,26)           109.5223         estimate D2E/DX2                !
 ! A42   A(25,12,26)           107.7506         estimate D2E/DX2                !
 ! A43   A(7,13,12)            105.7904         estimate D2E/DX2                !
 ! A44   A(7,13,14)            111.039          estimate D2E/DX2                !
 ! A45   A(7,13,15)            113.7076         estimate D2E/DX2                !
 ! A46   A(12,13,14)           107.7668         estimate D2E/DX2                !
 ! A47   A(12,13,15)           108.3943         estimate D2E/DX2                !
 ! A48   A(14,13,15)           109.8672         estimate D2E/DX2                !
 ! A49   A(13,15,16)           119.4629         estimate D2E/DX2                !
 ! A50   A(4,16,15)            128.9936         estimate D2E/DX2                !
 ! A51   A(4,16,27)            113.2589         estimate D2E/DX2                !
 ! A52   A(15,16,27)           117.7471         estimate D2E/DX2                !
 ! D1    D(1,2,4,5)           -162.2689         estimate D2E/DX2                !
 ! D2    D(1,2,4,16)            20.0007         Frozen                          !
 ! D3    D(3,2,4,5)             19.3956         estimate D2E/DX2                !
 ! D4    D(3,2,4,16)          -158.3349         estimate D2E/DX2                !
 ! D5    D(2,4,5,6)            176.2484         estimate D2E/DX2                !
 ! D6    D(2,4,5,17)            -0.9103         estimate D2E/DX2                !
 ! D7    D(16,4,5,6)            -6.312          estimate D2E/DX2                !
 ! D8    D(16,4,5,17)          176.5293         estimate D2E/DX2                !
 ! D9    D(2,4,16,15)         -156.0483         estimate D2E/DX2                !
 ! D10   D(2,4,16,27)           23.7205         estimate D2E/DX2                !
 ! D11   D(5,4,16,15)           26.5145         estimate D2E/DX2                !
 ! D12   D(5,4,16,27)         -153.7166         estimate D2E/DX2                !
 ! D13   D(4,5,6,7)             -6.2544         estimate D2E/DX2                !
 ! D14   D(4,5,6,18)           153.8519         estimate D2E/DX2                !
 ! D15   D(17,5,6,7)           170.965          estimate D2E/DX2                !
 ! D16   D(17,5,6,18)          -28.9286         estimate D2E/DX2                !
 ! D17   D(5,6,7,8)           -143.2444         estimate D2E/DX2                !
 ! D18   D(5,6,7,9)            100.3362         estimate D2E/DX2                !
 ! D19   D(5,6,7,13)           -28.1718         estimate D2E/DX2                !
 ! D20   D(18,6,7,8)            54.5237         estimate D2E/DX2                !
 ! D21   D(18,6,7,9)           -61.8957         estimate D2E/DX2                !
 ! D22   D(18,6,7,13)          169.5963         estimate D2E/DX2                !
 ! D23   D(6,7,9,10)           168.6798         estimate D2E/DX2                !
 ! D24   D(6,7,9,19)           -70.3068         estimate D2E/DX2                !
 ! D25   D(6,7,9,20)            48.6962         estimate D2E/DX2                !
 ! D26   D(8,7,9,10)            52.7204         estimate D2E/DX2                !
 ! D27   D(8,7,9,19)           173.7338         estimate D2E/DX2                !
 ! D28   D(8,7,9,20)           -67.2631         estimate D2E/DX2                !
 ! D29   D(13,7,9,10)          -61.9154         estimate D2E/DX2                !
 ! D30   D(13,7,9,19)           59.098          estimate D2E/DX2                !
 ! D31   D(13,7,9,20)          178.1011         estimate D2E/DX2                !
 ! D32   D(6,7,13,12)         -166.1401         estimate D2E/DX2                !
 ! D33   D(6,7,13,14)          -49.4905         estimate D2E/DX2                !
 ! D34   D(6,7,13,15)           75.0218         Frozen                          !
 ! D35   D(8,7,13,12)          -51.4528         estimate D2E/DX2                !
 ! D36   D(8,7,13,14)           65.1969         estimate D2E/DX2                !
 ! D37   D(8,7,13,15)         -170.2908         estimate D2E/DX2                !
 ! D38   D(9,7,13,12)           63.2865         estimate D2E/DX2                !
 ! D39   D(9,7,13,14)          179.9362         estimate D2E/DX2                !
 ! D40   D(9,7,13,15)          -55.5515         estimate D2E/DX2                !
 ! D41   D(7,9,10,11)           54.8123         Frozen                          !
 ! D42   D(7,9,10,21)          176.6033         estimate D2E/DX2                !
 ! D43   D(7,9,10,22)          -65.1846         estimate D2E/DX2                !
 ! D44   D(19,9,10,11)         -66.3125         estimate D2E/DX2                !
 ! D45   D(19,9,10,21)          55.4785         estimate D2E/DX2                !
 ! D46   D(19,9,10,22)         173.6907         estimate D2E/DX2                !
 ! D47   D(20,9,10,11)         175.4366         estimate D2E/DX2                !
 ! D48   D(20,9,10,21)         -62.7725         estimate D2E/DX2                !
 ! D49   D(20,9,10,22)          55.4397         estimate D2E/DX2                !
 ! D50   D(9,10,11,12)         -52.8228         Frozen                          !
 ! D51   D(9,10,11,23)          67.8084         estimate D2E/DX2                !
 ! D52   D(9,10,11,24)        -174.6578         estimate D2E/DX2                !
 ! D53   D(21,10,11,12)       -174.707          estimate D2E/DX2                !
 ! D54   D(21,10,11,23)        -54.0758         estimate D2E/DX2                !
 ! D55   D(21,10,11,24)         63.458          estimate D2E/DX2                !
 ! D56   D(22,10,11,12)         67.3936         estimate D2E/DX2                !
 ! D57   D(22,10,11,23)       -171.9752         estimate D2E/DX2                !
 ! D58   D(22,10,11,24)        -54.4414         estimate D2E/DX2                !
 ! D59   D(10,11,12,13)         56.6265         estimate D2E/DX2                !
 ! D60   D(10,11,12,25)        177.4619         estimate D2E/DX2                !
 ! D61   D(10,11,12,26)        -64.7819         estimate D2E/DX2                !
 ! D62   D(23,11,12,13)        -63.8621         estimate D2E/DX2                !
 ! D63   D(23,11,12,25)         56.9733         estimate D2E/DX2                !
 ! D64   D(23,11,12,26)        174.7295         estimate D2E/DX2                !
 ! D65   D(24,11,12,13)        178.5307         estimate D2E/DX2                !
 ! D66   D(24,11,12,25)        -60.6339         estimate D2E/DX2                !
 ! D67   D(24,11,12,26)         57.1223         estimate D2E/DX2                !
 ! D68   D(11,12,13,7)         -60.3643         estimate D2E/DX2                !
 ! D69   D(11,12,13,14)       -179.2053         estimate D2E/DX2                !
 ! D70   D(11,12,13,15)         61.9373         estimate D2E/DX2                !
 ! D71   D(25,12,13,7)         178.8047         estimate D2E/DX2                !
 ! D72   D(25,12,13,14)         59.9637         estimate D2E/DX2                !
 ! D73   D(25,12,13,15)        -58.8937         estimate D2E/DX2                !
 ! D74   D(26,12,13,7)          61.0217         estimate D2E/DX2                !
 ! D75   D(26,12,13,14)        -57.8192         estimate D2E/DX2                !
 ! D76   D(26,12,13,15)       -176.6766         estimate D2E/DX2                !
 ! D77   D(7,13,15,16)         -67.16           Frozen                          !
 ! D78   D(12,13,15,16)        175.5024         estimate D2E/DX2                !
 ! D79   D(14,13,15,16)         57.9804         estimate D2E/DX2                !
 ! D80   D(13,15,16,4)           8.664          estimate D2E/DX2                !
 ! D81   D(13,15,16,27)       -171.0961         estimate D2E/DX2                !
 --------------------------------------------------------------------------------
 Trust Radius=3.00D-01 FncErr=1.00D-07 GrdErr=1.00D-07 EigMax=2.50D+02 EigMin=1.00D-04
 Number of steps in this run=     20 maximum allowed number of steps=    162.
 GradGradGradGradGradGradGradGradGradGradGradGradGradGradGradGradGradGrad

                          Input orientation:                          
 ---------------------------------------------------------------------
 Center     Atomic      Atomic             Coordinates (Angstroms)
 Number     Number       Type             X           Y           Z
 ---------------------------------------------------------------------
      1          8           0       -3.608570   -1.446770    0.009490
      2          7           0       -3.250660   -0.271480   -0.042470
      3          8           0       -4.025750    0.681920   -0.125070
      4          6           0       -1.754260    0.008210   -0.042960
      5          6           0       -1.369280    1.313080    0.281810
      6          7           0       -0.081660    1.764590    0.412060
      7          6           0        1.197230    0.991810    0.373120
      8          1           0        1.862830    1.482580    1.129920
      9          6           0        1.958600    1.055110   -0.974530
     10          6           0        3.370930    0.466680   -0.793700
     11          6           0        3.310070   -0.954630   -0.212140
     12          6           0        2.464730   -0.999840    1.079020
     13          6           0        1.027300   -0.461910    0.839920
     14          1           0        0.480310   -0.509370    1.810690
     15          7           0        0.369050   -1.323760   -0.145110
     16          6           0       -0.873140   -1.120260   -0.438600
     17          1           0       -2.159880    2.050480    0.499340
     18          1           0        0.151700    2.748640    0.258840
     19          1           0        1.407190    0.485620   -1.752670
     20          1           0        2.044300    2.108240   -1.316910
     21          1           0        3.903400    0.451510   -1.769820
     22          1           0        3.949740    1.114070   -0.097630
     23          1           0        2.861070   -1.636990   -0.968800
     24          1           0        4.338460   -1.320600   -0.000720
     25          1           0        2.407060   -2.049430    1.441990
     26          1           0        2.960520   -0.395780    1.867550
     27          1           0       -1.381290   -1.869740   -1.064610
 ---------------------------------------------------------------------
                    Distance matrix (angstroms):
                    1          2          3          4          5
     1  O    0.000000
     2  N    1.229677   0.000000
     3  O    2.173354   1.231486   0.000000
     4  C    2.357580   1.522314   2.370716   0.000000
     5  C    3.564456   2.481044   2.760570   1.398703   0.000000
     6  N    4.786856   3.794040   4.125110   2.467692   1.370690
     7  C    5.401353   4.642450   5.255830   3.138771   2.588151
     8  H    6.306558   5.531637   6.073832   4.078327   3.345827
     9  C    6.182320   5.455728   6.055848   3.968520   3.566472
    10  C    7.281471   6.704825   7.429958   5.200132   4.933833
    11  C    6.939661   6.598383   7.516657   5.157821   5.223295
    12  C    6.182929   5.869747   6.812083   4.480500   4.548052
    13  C    4.811533   4.372164   5.269997   2.955937   3.034085
    14  H    4.565302   4.172641   5.046872   2.949103   3.013268
    15  N    3.982524   3.770959   4.830882   2.508590   3.187001
    16  C    2.791052   2.555376   3.644874   1.485378   2.585786
    17  H    3.816990   2.621995   2.396730   2.151623   1.102781
    18  H    5.639439   4.559382   4.676517   3.351675   2.091588
    19  H    5.656606   5.019318   5.674897   3.625713   3.540139
    20  H    6.808258   5.943388   6.348258   4.523509   3.852365
    21  H    7.949786   7.395068   8.101217   5.931920   5.722992
    22  H    7.981067   7.332704   7.987237   5.810467   5.336249
    23  H    6.545951   6.330557   7.315567   4.986495   5.306863
    24  H    7.948038   7.661406   8.601486   6.236085   6.292407
    25  H    6.213136   6.113471   7.162192   4.873966   5.187797
    26  H    6.907236   6.499414   7.344382   5.103176   4.917514
    27  H    2.508659   2.663409   3.793003   2.170155   3.455913
                    6          7          8          9         10
     6  N    0.000000
     7  C    1.494746   0.000000
     8  H    2.091864   1.120993   0.000000
     9  C    2.566837   1.549145   2.149561   0.000000
    10  C    3.880568   2.522341   2.647023   1.540657   0.000000
    11  C    4.391767   2.931766   3.136179   2.539048   1.536892
    12  C    3.817199   2.464046   2.554855   2.948907   2.545380
    13  C    2.523917   1.536255   2.136177   2.541830   3.003930
    14  H    2.728162   2.198664   2.518467   3.519999   4.011384
    15  N    3.170407   2.513227   3.425292   2.978864   3.554944
    16  C    3.110052   3.066947   4.089078   3.610846   4.544954
    17  H    2.099607   3.522343   4.111245   4.486082   5.896629
    18  H    1.022882   2.047595   2.299925   2.766610   4.083947
    19  H    2.922070   2.195289   3.083969   1.110799   2.185465
    20  H    2.761727   2.195483   2.532066   1.110699   2.174492
    21  H    4.729216   3.493919   3.692631   2.186108   1.112009
    22  H    4.115233   2.795150   2.449055   2.176481   1.112946
    23  H    4.705017   3.388171   3.890093   2.839346   2.171646
    24  H    5.406130   3.918459   3.907033   3.500862   2.181582
    25  H    4.669179   3.443154   3.587293   3.959653   3.501166
    26  H    4.005060   2.695908   2.297228   3.344599   2.827459
    27  H    4.132547   4.111484   5.155417   4.440465   5.302438
                   11         12         13         14         15
    11  C    0.000000
    12  C    1.543936   0.000000
    13  C    2.561375   1.553301   0.000000
    14  H    3.506799   2.171134   1.115278   0.000000
    15  N    2.964852   2.448529   1.465047   2.121500   0.000000
    16  C    4.192608   3.668657   2.383214   2.695240   1.292511
    17  H    6.281500   5.570233   4.072618   3.904238   4.265712
    18  H    4.889921   4.480391   3.378159   3.623652   4.098153
    19  H    2.840511   3.368004   2.786333   3.814007   2.633598
    20  H    3.493403   3.946822   3.505977   4.368046   3.994772
    21  H    2.180742   3.506006   3.989615   5.045878   4.275850
    22  H    2.168366   2.838728   3.450126   4.279508   4.332045
    23  H    1.113441   2.180966   2.831076   3.829505   2.643245
    24  H    1.111854   2.186227   3.522471   4.338735   3.972037
    25  H    2.179486   1.112076   2.187795   2.494011   2.683089
    26  H    2.181653   1.110169   2.190374   2.483461   3.409936
    27  H    4.855202   4.488178   3.377947   3.685582   2.051162
                   16         17         18         19         20
    16  C    0.000000
    17  H    3.548101   0.000000
    18  H    4.062648   2.426658   0.000000
    19  H    3.083105   4.499369   3.277756   0.000000
    20  H    4.439155   4.580091   2.544609   1.796856   0.000000
    21  H    5.201725   6.668520   4.844329   2.496502   2.531034
    22  H    5.326224   6.209726   4.150180   3.098172   2.470975
    23  H    3.806895   6.400219   5.299201   2.689552   3.849031
    24  H    5.233799   7.337756   5.844232   3.863173   4.330412
    25  H    3.893544   6.209251   5.432124   4.199056   5.002934
    26  H    4.532124   5.837352   4.512737   4.036792   4.153355
    27  H    1.100829   4.291884   5.042917   3.714400   5.255725
                   21         22         23         24         25
    21  H    0.000000
    22  H    1.799264   0.000000
    23  H    2.467776   3.084229   0.000000
    24  H    2.541528   2.467410   1.794425   0.000000
    25  H    4.336987   3.841617   2.487597   2.518514   0.000000
    26  H    3.851932   2.668358   3.097640   2.498888   1.794987
    27  H    5.814935   6.185309   4.249820   5.843711   4.546089
                   26         27
    26  H    0.000000
    27  H    5.442558   0.000000
 Symmetry turned off by external request.
 Stoichiometry    C9H13N3O2
 Framework group  C1[X(C9H13N3O2)]
 Deg. of freedom    75
 Full point group                 C1      NOp   1
 Rotational constants (GHZ):           1.6729809           0.4016467           0.3557985
 Standard basis: 6-31G(d) (6D, 7F)
   236 basis functions,   444 primitive gaussians,   236 cartesian basis functions
    52 alpha electrons       52 beta electrons
       nuclear repulsion energy       917.8437253105 Hartrees.
 NAtoms=   27 NActive=   27 NUniq=   27 SFac= 1.00D+00 NAtFMM=   60 NAOKFM=F Big=F
 Integral buffers will be    131072 words long.
 Raffenetti 1 integral format.
 Two-electron integral symmetry is turned off.
 One-electron integrals computed using PRISM.
 NBasis=   236 RedAO= T EigKep=  1.45D-03  NBF=   236
 NBsUse=   236 1.00D-06 EigRej= -1.00D+00 NBFU=   236
 ExpMin= 1.61D-01 ExpMax= 5.48D+03 ExpMxC= 8.25D+02 IAcc=3 IRadAn=         5 AccDes= 0.00D+00
 Harris functional with IExCor=  205 and IRadAn=       5 diagonalized for initial guess.
 HarFok:  IExCor=  205 AccDes= 0.00D+00 IRadAn=         5 IDoV= 1 UseB2=F ITyADJ=14
 ICtDFT=  3500011 ScaDFX=  1.000000  1.000000  1.000000  1.000000
 FoFCou: FMM=F IPFlag=           0 FMFlag=      100000 FMFlg1=           0
         NFxFlg=           0 DoJE=T BraDBF=F KetDBF=T FulRan=T
         wScrn=  0.000000 ICntrl=       500 IOpCl=  0 I1Cent=   200000004 NGrid=           0
         NMat0=    1 NMatS0=      1 NMatT0=    0 NMatD0=    1 NMtDS0=    0 NMtDT0=    0
 Symmetry not used in FoFCou.
 Keep R1 ints in memory in canonical form, NReq=397720213.
 Requested convergence on RMS density matrix=1.00D-08 within 128 cycles.
 Requested convergence on MAX density matrix=1.00D-06.
 Requested convergence on             energy=1.00D-06.
 No special actions if energy rises.
 SCF Done:  E(RHF) =  -661.280683181     A.U. after   17 cycles
            NFock= 17  Conv=0.48D-08     -V/T= 2.0037
 ExpMin= 1.61D-01 ExpMax= 5.48D+03 ExpMxC= 8.25D+02 IAcc=3 IRadAn=         5 AccDes= 0.00D+00
 HarFok:  IExCor=  205 AccDes= 0.00D+00 IRadAn=         5 IDoV=-2 UseB2=F ITyADJ=14
 ICtDFT= 12500011 ScaDFX=  1.000000  1.000000  1.000000  1.000000
 Range of M.O.s used for correlation:    15   236
 NBasis=   236 NAE=    52 NBE=    52 NFC=    14 NFV=     0
 NROrb=    222 NOA=    38 NOB=    38 NVA=   184 NVB=   184
 Fully direct method using O(ONN) memory.
 JobTyp=1 Pass  1:  I=  15 to  52 NPSUse=  4 ParTrn=T ParDer=T DoDerP=T.
 Spin components of T(2) and E(2):
     alpha-alpha T2 =       0.9194589175D-01 E2=     -0.2717586923D+00
     alpha-beta  T2 =       0.4997865375D+00 E2=     -0.1493881714D+01
     beta-beta   T2 =       0.9194589175D-01 E2=     -0.2717586923D+00
 ANorm=    0.1297566307D+01
 E2 =    -0.2037399098D+01 EUMP2 =    -0.66331808227928D+03
          IDoAtm=111111111111111111111111111
          Differentiating once with respect to electric field.
                with respect to dipole field.
          Differentiating once with respect to nuclear coordinates.
 Keep R1 ints in memory in canonical form, NReq=397723379.
          There are     1 degrees of freedom in the 1st order CPHF.  IDoFFX=0 NUNeed=     1.
 LinEq1:  Iter=  0 NonCon=     1 RMS=4.59D-03 Max=1.07D-01 NDo=     1
 AX will form     1 AO Fock derivatives at one time.
 LinEq1:  Iter=  1 NonCon=     1 RMS=1.55D-03 Max=2.86D-02 NDo=     1
 LinEq1:  Iter=  2 NonCon=     1 RMS=6.37D-04 Max=1.69D-02 NDo=     1
 LinEq1:  Iter=  3 NonCon=     1 RMS=2.92D-04 Max=8.75D-03 NDo=     1
 LinEq1:  Iter=  4 NonCon=     1 RMS=8.98D-05 Max=2.06D-03 NDo=     1
 LinEq1:  Iter=  5 NonCon=     1 RMS=3.71D-05 Max=1.82D-03 NDo=     1
 LinEq1:  Iter=  6 NonCon=     1 RMS=1.52D-05 Max=5.85D-04 NDo=     1
 LinEq1:  Iter=  7 NonCon=     1 RMS=5.83D-06 Max=9.62D-05 NDo=     1
 LinEq1:  Iter=  8 NonCon=     1 RMS=2.32D-06 Max=5.61D-05 NDo=     1
 LinEq1:  Iter=  9 NonCon=     1 RMS=8.48D-07 Max=2.32D-05 NDo=     1
 LinEq1:  Iter= 10 NonCon=     1 RMS=4.26D-07 Max=1.56D-05 NDo=     1
 LinEq1:  Iter= 11 NonCon=     1 RMS=1.56D-07 Max=5.64D-06 NDo=     1
 LinEq1:  Iter= 12 NonCon=     1 RMS=5.58D-08 Max=8.52D-07 NDo=     1
 LinEq1:  Iter= 13 NonCon=     1 RMS=1.77D-08 Max=4.24D-07 NDo=     1
 LinEq1:  Iter= 14 NonCon=     1 RMS=5.86D-09 Max=1.61D-07 NDo=     1
 LinEq1:  Iter= 15 NonCon=     1 RMS=2.18D-09 Max=5.22D-08 NDo=     1
 LinEq1:  Iter= 16 NonCon=     1 RMS=7.91D-10 Max=1.12D-08 NDo=     1
 LinEq1:  Iter= 17 NonCon=     1 RMS=2.60D-10 Max=3.79D-09 NDo=     1
 LinEq1:  Iter= 18 NonCon=     1 RMS=9.06D-11 Max=1.08D-09 NDo=     1
 LinEq1:  Iter= 19 NonCon=     0 RMS=3.08D-11 Max=4.45D-10 NDo=     1
 Linear equations converged to 1.000D-10 1.000D-09 after    19 iterations.
 End of Minotr F.D. properties file   721 does not exist.
 End of Minotr F.D. properties file   722 does not exist.
 End of Minotr F.D. properties file   788 does not exist.

 **********************************************************************

            Population analysis using the SCF Density.

 **********************************************************************

 Alpha  occ. eigenvalues --  -20.59927 -20.59470 -15.85215 -15.63250 -15.56839
 Alpha  occ. eigenvalues --  -11.35817 -11.30565 -11.30061 -11.29978 -11.27699
 Alpha  occ. eigenvalues --  -11.24606 -11.23865 -11.23393 -11.22845  -1.58540
 Alpha  occ. eigenvalues --   -1.38083  -1.28545  -1.22730  -1.13308  -1.08449
 Alpha  occ. eigenvalues --   -1.01802  -1.00680  -0.93620  -0.88972  -0.84915
 Alpha  occ. eigenvalues --   -0.81583  -0.78055  -0.76999  -0.74306  -0.71117
 Alpha  occ. eigenvalues --   -0.70545  -0.69573  -0.67314  -0.64406  -0.63250
 Alpha  occ. eigenvalues --   -0.61658  -0.60386  -0.57426  -0.56465  -0.54880
 Alpha  occ. eigenvalues --   -0.53615  -0.50701  -0.49585  -0.48561  -0.47768
 Alpha  occ. eigenvalues --   -0.47656  -0.46134  -0.45689  -0.43989  -0.42106
 Alpha  occ. eigenvalues --   -0.39957  -0.33691
 Alpha virt. eigenvalues --    0.07471   0.11647   0.18207   0.21331   0.23398
 Alpha virt. eigenvalues --    0.24261   0.26193   0.27810   0.28577   0.28860
 Alpha virt. eigenvalues --    0.29676   0.30967   0.31860   0.32288   0.33334
 Alpha virt. eigenvalues --    0.33791   0.34431   0.35565   0.37612   0.38616
 Alpha virt. eigenvalues --    0.40664   0.41653   0.44451   0.45247   0.45599
 Alpha virt. eigenvalues --    0.46344   0.49378   0.53191   0.57548   0.58840
 Alpha virt. eigenvalues --    0.63358   0.69067   0.69234   0.72198   0.74067
 Alpha virt. eigenvalues --    0.74885   0.75721   0.75854   0.77779   0.79182
 Alpha virt. eigenvalues --    0.80736   0.83493   0.84954   0.85330   0.88050
 Alpha virt. eigenvalues --    0.89121   0.90294   0.90617   0.91717   0.93889
 Alpha virt. eigenvalues --    0.95016   0.97209   0.98773   1.00435   1.01821
 Alpha virt. eigenvalues --    1.03026   1.05052   1.06510   1.07085   1.08537
 Alpha virt. eigenvalues --    1.09803   1.10481   1.11203   1.11960   1.13252
 Alpha virt. eigenvalues --    1.13821   1.14144   1.15302   1.16235   1.17137
 Alpha virt. eigenvalues --    1.17643   1.19668   1.21098   1.21842   1.22415
 Alpha virt. eigenvalues --    1.23396   1.24229   1.25559   1.27438   1.28204
 Alpha virt. eigenvalues --    1.29933   1.30949   1.33341   1.36057   1.39608
 Alpha virt. eigenvalues --    1.41828   1.45259   1.46140   1.47973   1.52320
 Alpha virt. eigenvalues --    1.53307   1.54974   1.60524   1.63301   1.63943
 Alpha virt. eigenvalues --    1.68558   1.71036   1.72772   1.73826   1.76728
 Alpha virt. eigenvalues --    1.77866   1.78464   1.84348   1.88948   1.91736
 Alpha virt. eigenvalues --    1.92411   1.96157   1.96979   1.99225   2.00146
 Alpha virt. eigenvalues --    2.02918   2.04917   2.05408   2.09107   2.12349
 Alpha virt. eigenvalues --    2.13190   2.14195   2.17750   2.18703   2.19656
 Alpha virt. eigenvalues --    2.20677   2.22017   2.24253   2.25231   2.26294
 Alpha virt. eigenvalues --    2.29327   2.32311   2.33099   2.35367   2.36113
 Alpha virt. eigenvalues --    2.38886   2.39499   2.41176   2.42802   2.45891
 Alpha virt. eigenvalues --    2.48649   2.50571   2.51125   2.56655   2.57424
 Alpha virt. eigenvalues --    2.60740   2.63013   2.65844   2.68540   2.69233
 Alpha virt. eigenvalues --    2.69707   2.70189   2.74489   2.76186   2.82045
 Alpha virt. eigenvalues --    2.84624   2.87135   2.89755   2.91263   2.96125
 Alpha virt. eigenvalues --    2.96769   2.97998   3.02090   3.03865   3.05705
 Alpha virt. eigenvalues --    3.07234   3.12885   3.18962   3.21659   3.26889
 Alpha virt. eigenvalues --    3.29909   3.33772   3.36913   3.43139   3.59764
 Alpha virt. eigenvalues --    4.09102   4.22059   4.30133   4.33298   4.43182
 Alpha virt. eigenvalues --    4.52616   4.59685   4.60310   4.70855   4.77134
 Alpha virt. eigenvalues --    4.96427   4.99251   5.02912   5.09953
          Condensed to atoms (all electrons):
               1          2          3          4          5          6
     1  O    8.294661   0.312973  -0.087177  -0.079840   0.003215  -0.000016
     2  N    0.312973   5.702888   0.304805   0.257863  -0.044820   0.000961
     3  O   -0.087177   0.304805   8.327752  -0.086793   0.008494   0.000430
     4  C   -0.079840   0.257863  -0.086793   5.249095   0.566571  -0.049144
     5  C    0.003215  -0.044820   0.008494   0.566571   4.667285   0.308512
     6  N   -0.000016   0.000961   0.000430  -0.049144   0.308512   7.188175
     7  C    0.000003  -0.000091   0.000000   0.004031  -0.029381   0.199459
     8  H   -0.000000   0.000002  -0.000000  -0.000171   0.002300  -0.049729
     9  C   -0.000000  -0.000003   0.000000   0.000457   0.001722  -0.056534
    10  C   -0.000000   0.000000  -0.000000  -0.000019  -0.000065   0.003346
    11  C   -0.000000  -0.000000  -0.000000  -0.000015   0.000015  -0.000155
    12  C   -0.000000   0.000002  -0.000000  -0.000101  -0.000135   0.003604
    13  C   -0.000022  -0.000025  -0.000001  -0.010172   0.000425  -0.044580
    14  H   -0.000005  -0.000051   0.000001   0.002794   0.004677  -0.005511
    15  N    0.000103   0.001786  -0.000019  -0.062139  -0.003582   0.001999
    16  C    0.004330  -0.026003   0.001652   0.318017  -0.039051  -0.001169
    17  H    0.000098  -0.003599   0.010737  -0.028547   0.378623  -0.033238
    18  H    0.000000  -0.000038   0.000009   0.001110  -0.024388   0.328361
    19  H    0.000000   0.000000   0.000000  -0.000799   0.000643   0.000633
    20  H    0.000000  -0.000000   0.000000  -0.000026   0.000023  -0.001651
    21  H    0.000000  -0.000000  -0.000000   0.000000   0.000001  -0.000059
    22  H   -0.000000   0.000000  -0.000000  -0.000000  -0.000002  -0.000097
    23  H    0.000000  -0.000000   0.000000   0.000024  -0.000000  -0.000024
    24  H    0.000000   0.000000   0.000000   0.000000  -0.000000   0.000004
    25  H    0.000000  -0.000000   0.000000   0.000019  -0.000001  -0.000071
    26  H    0.000000  -0.000000   0.000000   0.000006  -0.000001  -0.000067
    27  H    0.004518  -0.000003  -0.000033  -0.069010   0.002227   0.000051
               7          8          9         10         11         12
     1  O    0.000003  -0.000000  -0.000000  -0.000000  -0.000000  -0.000000
     2  N   -0.000091   0.000002  -0.000003   0.000000  -0.000000   0.000002
     3  O    0.000000  -0.000000   0.000000  -0.000000  -0.000000  -0.000000
     4  C    0.004031  -0.000171   0.000457  -0.000019  -0.000015  -0.000101
     5  C   -0.029381   0.002300   0.001722  -0.000065   0.000015  -0.000135
     6  N    0.199459  -0.049729  -0.056534   0.003346  -0.000155   0.003604
     7  C    5.004873   0.416562   0.340901  -0.049370  -0.007702  -0.064116
     8  H    0.416562   0.547253  -0.060467   0.001428  -0.000317  -0.002896
     9  C    0.340901  -0.060467   5.180983   0.317957  -0.053077  -0.006146
    10  C   -0.049370   0.001428   0.317957   5.126920   0.332735  -0.060194
    11  C   -0.007702  -0.000317  -0.053077   0.332735   5.124081   0.330627
    12  C   -0.064116  -0.002896  -0.006146  -0.060194   0.330627   5.137121
    13  C    0.331549  -0.040137  -0.050700  -0.001679  -0.047942   0.368142
    14  H   -0.040344  -0.000943   0.003862  -0.000390   0.003952  -0.040737
    15  N   -0.058220   0.004029  -0.012805   0.001467  -0.007756  -0.074124
    16  C   -0.002417   0.000021  -0.000857  -0.000031   0.000005   0.002525
    17  H    0.001466  -0.000023  -0.000064   0.000001   0.000000   0.000001
    18  H   -0.028688  -0.002725   0.000843  -0.000121   0.000011  -0.000137
    19  H   -0.035037   0.004093   0.386070  -0.032644  -0.002257   0.000622
    20  H   -0.041625  -0.001839   0.397247  -0.037360   0.004137  -0.000362
    21  H    0.004045  -0.000080  -0.035836   0.400126  -0.035849   0.004214
    22  H   -0.004234   0.003512  -0.045667   0.395952  -0.045615  -0.001234
    23  H    0.000428   0.000033  -0.002000  -0.040103   0.396706  -0.036636
    24  H   -0.000141  -0.000099   0.004394  -0.038478   0.400302  -0.037871
    25  H    0.004982  -0.000004  -0.000371   0.004096  -0.033911   0.395437
    26  H   -0.004462   0.001593   0.001045  -0.002406  -0.042299   0.394665
    27  H   -0.000404   0.000009  -0.000058   0.000005   0.000005  -0.000021
              13         14         15         16         17         18
     1  O   -0.000022  -0.000005   0.000103   0.004330   0.000098   0.000000
     2  N   -0.000025  -0.000051   0.001786  -0.026003  -0.003599  -0.000038
     3  O   -0.000001   0.000001  -0.000019   0.001652   0.010737   0.000009
     4  C   -0.010172   0.002794  -0.062139   0.318017  -0.028547   0.001110
     5  C    0.000425   0.004677  -0.003582  -0.039051   0.378623  -0.024388
     6  N   -0.044580  -0.005511   0.001999  -0.001169  -0.033238   0.328361
     7  C    0.331549  -0.040344  -0.058220  -0.002417   0.001466  -0.028688
     8  H   -0.040137  -0.000943   0.004029   0.000021  -0.000023  -0.002725
     9  C   -0.050700   0.003862  -0.012805  -0.000857  -0.000064   0.000843
    10  C   -0.001679  -0.000390   0.001467  -0.000031   0.000001  -0.000121
    11  C   -0.047942   0.003952  -0.007756   0.000005   0.000000   0.000011
    12  C    0.368142  -0.040737  -0.074124   0.002525   0.000001  -0.000137
    13  C    5.022905   0.402731   0.241225  -0.070173  -0.000047   0.003704
    14  H    0.402731   0.518655  -0.035944  -0.004688   0.000060   0.000011
    15  N    0.241225  -0.035944   6.935375   0.588784  -0.000052  -0.000122
    16  C   -0.070173  -0.004688   0.588784   4.692014   0.001661  -0.000192
    17  H   -0.000047   0.000060  -0.000052   0.001661   0.389152  -0.001963
    18  H    0.003704   0.000011  -0.000122  -0.000192  -0.001963   0.325081
    19  H   -0.006240   0.000065   0.006940   0.002519   0.000011  -0.000127
    20  H    0.003868  -0.000049   0.000079  -0.000030  -0.000002   0.002847
    21  H   -0.000379   0.000009  -0.000030   0.000002  -0.000000  -0.000000
    22  H    0.000321  -0.000044   0.000003  -0.000001   0.000000   0.000002
    23  H   -0.005863   0.000008   0.006756   0.000065   0.000000   0.000000
    24  H    0.004145  -0.000058   0.000042   0.000005   0.000000  -0.000000
    25  H   -0.034474  -0.002659   0.000788  -0.000059  -0.000000   0.000002
    26  H   -0.044791  -0.000896   0.004180  -0.000055   0.000000  -0.000001
    27  H    0.004921  -0.000168  -0.039017   0.403101  -0.000059   0.000002
              19         20         21         22         23         24
     1  O    0.000000   0.000000   0.000000  -0.000000   0.000000   0.000000
     2  N    0.000000  -0.000000  -0.000000   0.000000  -0.000000   0.000000
     3  O    0.000000   0.000000  -0.000000  -0.000000   0.000000   0.000000
     4  C   -0.000799  -0.000026   0.000000  -0.000000   0.000024   0.000000
     5  C    0.000643   0.000023   0.000001  -0.000002  -0.000000  -0.000000
     6  N    0.000633  -0.001651  -0.000059  -0.000097  -0.000024   0.000004
     7  C   -0.035037  -0.041625   0.004045  -0.004234   0.000428  -0.000141
     8  H    0.004093  -0.001839  -0.000080   0.003512   0.000033  -0.000099
     9  C    0.386070   0.397247  -0.035836  -0.045667  -0.002000   0.004394
    10  C   -0.032644  -0.037360   0.400126   0.395952  -0.040103  -0.038478
    11  C   -0.002257   0.004137  -0.035849  -0.045615   0.396706   0.400302
    12  C    0.000622  -0.000362   0.004214  -0.001234  -0.036636  -0.037871
    13  C   -0.006240   0.003868  -0.000379   0.000321  -0.005863   0.004145
    14  H    0.000065  -0.000049   0.000009  -0.000044   0.000008  -0.000058
    15  N    0.006940   0.000079  -0.000030   0.000003   0.006756   0.000042
    16  C    0.002519  -0.000030   0.000002  -0.000001   0.000065   0.000005
    17  H    0.000011  -0.000002  -0.000000   0.000000   0.000000   0.000000
    18  H   -0.000127   0.002847  -0.000000   0.000002   0.000000  -0.000000
    19  H    0.507047  -0.023984  -0.002592   0.003759   0.001642  -0.000070
    20  H   -0.023984   0.549840  -0.002620  -0.002961  -0.000049  -0.000090
    21  H   -0.002592  -0.002620   0.526171  -0.024699  -0.002814  -0.002062
    22  H    0.003759  -0.002961  -0.024699   0.568904   0.004062  -0.003595
    23  H    0.001642  -0.000049  -0.002814   0.004062   0.509745  -0.024996
    24  H   -0.000070  -0.000090  -0.002062  -0.003595  -0.024996   0.541059
    25  H   -0.000027   0.000011  -0.000086  -0.000082  -0.002089  -0.002381
    26  H    0.000023  -0.000035  -0.000074   0.002463   0.003820  -0.002763
    27  H    0.000078   0.000000  -0.000000   0.000000  -0.000021  -0.000000
              25         26         27
     1  O    0.000000   0.000000   0.004518
     2  N   -0.000000  -0.000000  -0.000003
     3  O    0.000000   0.000000  -0.000033
     4  C    0.000019   0.000006  -0.069010
     5  C   -0.000001  -0.000001   0.002227
     6  N   -0.000071  -0.000067   0.000051
     7  C    0.004982  -0.004462  -0.000404
     8  H   -0.000004   0.001593   0.000009
     9  C   -0.000371   0.001045  -0.000058
    10  C    0.004096  -0.002406   0.000005
    11  C   -0.033911  -0.042299   0.000005
    12  C    0.395437   0.394665  -0.000021
    13  C   -0.034474  -0.044791   0.004921
    14  H   -0.002659  -0.000896  -0.000168
    15  N    0.000788   0.004180  -0.039017
    16  C   -0.000059  -0.000055   0.403101
    17  H   -0.000000   0.000000  -0.000059
    18  H    0.000002  -0.000001   0.000002
    19  H   -0.000027   0.000023   0.000078
    20  H    0.000011  -0.000035   0.000000
    21  H   -0.000086  -0.000074  -0.000000
    22  H   -0.000082   0.002463   0.000000
    23  H   -0.002089   0.003820  -0.000021
    24  H   -0.002381  -0.002763  -0.000000
    25  H    0.510204  -0.023099  -0.000010
    26  H   -0.023099   0.560958   0.000001
    27  H   -0.000010   0.000001   0.458656
 Mulliken charges:
               1
     1  O   -0.452842
     2  N    0.493354
     3  O   -0.479857
     4  C   -0.013213
     5  C    0.196692
     6  N   -0.793492
     7  C    0.057933
     8  H    0.178596
     9  C   -0.310894
    10  C   -0.321174
    11  C   -0.315681
    12  C   -0.312250
    13  C   -0.026712
    14  H    0.195661
    15  N   -0.499747
    16  C    0.130026
    17  H    0.285783
    18  H    0.396516
    19  H    0.189633
    20  H    0.154631
    21  H    0.172613
    22  H    0.149253
    23  H    0.191306
    24  H    0.162654
    25  H    0.183785
    26  H    0.152194
    27  H    0.235232
 Sum of Mulliken charges =  -0.00000
 Mulliken charges with hydrogens summed into heavy atoms:
               1
     1  O   -0.452842
     2  N    0.493354
     3  O   -0.479857
     4  C   -0.013213
     5  C    0.482475
     6  N   -0.396976
     7  C    0.236529
     9  C    0.033369
    10  C    0.000692
    11  C    0.038279
    12  C    0.023729
    13  C    0.168950
    15  N   -0.499747
    16  C    0.365258
 Electronic spatial extent (au):  <R**2>=           3119.4404
 Charge=             -0.0000 electrons
 Dipole moment (field-independent basis, Debye):
    X=              5.2998    Y=              4.4523    Z=              0.6287  Tot=              6.9503
 Quadrupole moment (field-independent basis, Debye-Ang):
   XX=           -105.0645   YY=            -80.3815   ZZ=            -82.2018
   XY=             -1.7211   XZ=              0.3294   YZ=              1.1036
 Traceless Quadrupole moment (field-independent basis, Debye-Ang):
   XX=            -15.8486   YY=              8.8344   ZZ=              7.0141
   XY=             -1.7211   XZ=              0.3294   YZ=              1.1036
 Octapole moment (field-independent basis, Debye-Ang**2):
  XXX=             99.0164  YYY=             36.4028  ZZZ=             -4.6349  XYY=             -1.2119
  XXY=             11.0820  XXZ=              3.0573  XZZ=             -8.7155  YZZ=             -3.0138
  YYZ=              0.7574  XYZ=             -5.1098
 Hexadecapole moment (field-independent basis, Debye-Ang**3):
 XXXX=          -3542.5771 YYYY=           -622.4255 ZZZZ=           -297.6194 XXXY=            -36.7139
 XXXZ=              4.6429 YYYX=            -18.3062 YYYZ=             19.5683 ZZZX=             14.8990
 ZZZY=             14.8500 XXYY=           -656.7217 XXZZ=           -540.5764 YYZZ=           -164.7179
 XXYZ=             17.8509 YYXZ=             10.0428 ZZXY=              3.4656
 N-N= 9.178437253105D+02 E-N=-3.381706217591D+03  KE= 6.588692826198D+02
 Calling FoFJK, ICntrl=  10002127 FMM=F ISym2X=0 I1Cent= 0 IOpClX= 0 NMat=1 NMatS=1 NMatT=0.
 -------------------------------------------------------------------
 Center     Atomic                   Forces (Hartrees/Bohr)
 Number     Number              X              Y              Z
 -------------------------------------------------------------------
      1        8           0.001559683   -0.019927845    0.000590464
      2        7           0.039744371    0.013250413   -0.003685908
      3        8          -0.006945192    0.016069231    0.001671924
      4        6          -0.002659420    0.009355183    0.009451303
      5        6           0.003468831   -0.017124243   -0.006013854
      6        7           0.015343575   -0.009028211   -0.006152447
      7        6          -0.004899968    0.005250302    0.002728854
      8        1          -0.010206828   -0.001687841   -0.007628107
      9        6          -0.003878857    0.000189809   -0.002063518
     10        6           0.002830225   -0.000889594    0.000919965
     11        6          -0.000984633   -0.004565607   -0.002415099
     12        6           0.000771595   -0.008809858   -0.003015209
     13        6           0.008782901   -0.001774672    0.004349691
     14        1           0.000842686    0.004442316   -0.009903382
     15        7          -0.000035236    0.000126049    0.001435884
     16        6          -0.020336786    0.008040934    0.005441698
     17        1           0.007628817   -0.005698942   -0.006265239
     18        1          -0.017581879   -0.001821277    0.006057238
     19        1           0.003118707    0.005821532    0.007712219
     20        1          -0.003246923   -0.007389950    0.002559914
     21        1          -0.004313839    0.002324010    0.009651078
     22        1          -0.004013982   -0.003921384   -0.007417729
     23        1           0.004002716    0.006050206    0.009332816
     24        1          -0.009388792    0.002625968   -0.002080530
     25        1          -0.000796005    0.010610493   -0.002333932
     26        1          -0.004805609   -0.004763885   -0.004400496
     27        1           0.005999838    0.003246864    0.001472402
 -------------------------------------------------------------------
 Cartesian Forces:  Max     0.039744371 RMS     0.008449603

 GradGradGradGradGradGradGradGradGradGradGradGradGradGradGradGradGradGrad
 Berny optimization.
 FormGI is forming the generalized inverse of G from B-inverse, IUseBI=4.
 Internal  Forces:  Max     0.035499966 RMS     0.006777257
 Search for a local minimum.
 Step number   1 out of a maximum of   20
 All quantities printed in internal units (Hartrees-Bohrs-Radians)
 Mixed Optimization -- RFO/linear search
 Second derivative matrix not updated -- first step.
 ITU=  0
     Eigenvalues ---    0.00233   0.00770   0.01052   0.01149   0.01200
     Eigenvalues ---    0.01481   0.01533   0.01607   0.01977   0.02021
     Eigenvalues ---    0.02095   0.02687   0.03663   0.04507   0.04695
     Eigenvalues ---    0.04838   0.05079   0.05138   0.05304   0.05889
     Eigenvalues ---    0.06266   0.07215   0.07700   0.07723   0.07868
     Eigenvalues ---    0.07994   0.08050   0.08052   0.10458   0.11737
     Eigenvalues ---    0.12267   0.13452   0.15224   0.15698   0.15990
     Eigenvalues ---    0.16000   0.20090   0.21976   0.23193   0.24981
     Eigenvalues ---    0.25000   0.25000   0.25363   0.26198   0.26651
     Eigenvalues ---    0.27980   0.28082   0.28467   0.30145   0.31463
     Eigenvalues ---    0.31706   0.32048   0.32238   0.32290   0.32381
     Eigenvalues ---    0.32388   0.32405   0.32516   0.32526   0.32582
     Eigenvalues ---    0.33376   0.33438   0.33591   0.35350   0.43881
     Eigenvalues ---    0.44389   0.49248   0.67071   0.90470   0.91221
     Eigenvalues --- 1000.000001000.000001000.000001000.000001000.00000
     Eigenvalues --- 1000.000001000.000001000.000001000.000001000.00000
     Eigenvalues --- 1000.000001000.000001000.000001000.000001000.00000
     Eigenvalues --- 1000.000001000.000001000.000001000.000001000.00000
     Eigenvalues --- 1000.000001000.000001000.000001000.000001000.00000
     Eigenvalues --- 1000.000001000.000001000.000001000.000001000.00000
     Eigenvalues --- 1000.000001000.000001000.000001000.000001000.00000
     Eigenvalues --- 1000.000001000.000001000.000001000.000001000.00000
     Eigenvalues --- 1000.000001000.000001000.000001000.000001000.00000
     Eigenvalues --- 1000.000001000.000001000.000001000.000001000.00000
     Eigenvalues --- 1000.000001000.000001000.000001000.000001000.00000
     Eigenvalues --- 1000.000001000.000001000.000001000.000001000.00000
     Eigenvalues --- 1000.000001000.000001000.000001000.000001000.00000
     Eigenvalues --- 1000.000001000.000001000.000001000.000001000.00000
     Eigenvalues --- 1000.000001000.000001000.000001000.000001000.00000
     Eigenvalues --- 1000.000001000.000001000.000001000.000001000.00000
     Eigenvalues --- 1000.000001000.000001000.000001000.000001000.00000
     Eigenvalues --- 1000.000001000.000001000.000001000.000001000.00000
     Eigenvalues --- 1000.00000
 RFO step:  Lambda=-2.34903823D-02 EMin= 2.33084458D-03
 Linear search not attempted -- first point.
 Iteration  1 RMS(Cart)=  0.05519933 RMS(Int)=  0.00125019
 Iteration  2 RMS(Cart)=  0.00131267 RMS(Int)=  0.00029968
 Iteration  3 RMS(Cart)=  0.00000163 RMS(Int)=  0.00029967
 Iteration  4 RMS(Cart)=  0.00000000 RMS(Int)=  0.00029967
 Iteration  1 RMS(Cart)=  0.00002870 RMS(Int)=  0.00002126
 Iteration  2 RMS(Cart)=  0.00001422 RMS(Int)=  0.00002366
 Iteration  3 RMS(Cart)=  0.00000750 RMS(Int)=  0.00002629
 Iteration  4 RMS(Cart)=  0.00000431 RMS(Int)=  0.00002792
 Iteration  5 RMS(Cart)=  0.00000276 RMS(Int)=  0.00002889
 Iteration  6 RMS(Cart)=  0.00000199 RMS(Int)=  0.00002950
 Iteration  7 RMS(Cart)=  0.00000156 RMS(Int)=  0.00002992
 Iteration  8 RMS(Cart)=  0.00000128 RMS(Int)=  0.00003022
 Iteration  9 RMS(Cart)=  0.00000109 RMS(Int)=  0.00003045
 Iteration 10 RMS(Cart)=  0.00000093 RMS(Int)=  0.00003063
 Variable       Old X    -DE/DX   Delta X   Delta X   Delta X     New X
                                 (Linear)    (Quad)   (Total)
    R1        2.32375   0.01862   0.00000   0.01990   0.01990   2.34365
    R2        2.32717   0.01670   0.00000   0.01799   0.01799   2.34516
    R3        2.87676  -0.03550   0.00000  -0.10925  -0.10925   2.76750
    R4        2.64317  -0.03412   0.00000  -0.07344  -0.07321   2.56995
    R5        2.80696  -0.02152   0.00000  -0.06151  -0.06131   2.74565
    R6        2.59023  -0.02386   0.00000  -0.04614  -0.04604   2.54419
    R7        2.08395  -0.01052   0.00000  -0.02944  -0.02944   2.05452
    R8        2.82466  -0.01951   0.00000  -0.05412  -0.05421   2.77045
    R9        1.93297  -0.00667   0.00000  -0.01443  -0.01443   1.91854
   R10        2.11837  -0.01195   0.00000  -0.03534  -0.03534   2.08303
   R11        2.92746  -0.01293   0.00000  -0.04411  -0.04413   2.88333
   R12        2.90310  -0.00429   0.00000  -0.00838  -0.00843   2.89467
   R13        2.91142  -0.00462   0.00000  -0.01434  -0.01436   2.89706
   R14        2.09911  -0.00994   0.00000  -0.02850  -0.02850   2.07061
   R15        2.09892  -0.00805   0.00000  -0.02307  -0.02307   2.07584
   R16        2.90431  -0.00185   0.00000  -0.00719  -0.00724   2.89706
   R17        2.10139  -0.01057   0.00000  -0.03043  -0.03043   2.07097
   R18        2.10316  -0.00901   0.00000  -0.02600  -0.02600   2.07716
   R19        2.91762  -0.00910   0.00000  -0.02883  -0.02881   2.88881
   R20        2.10410  -0.01166   0.00000  -0.03372  -0.03372   2.07037
   R21        2.10110  -0.00994   0.00000  -0.02861  -0.02861   2.07249
   R22        2.93531  -0.01057   0.00000  -0.03645  -0.03643   2.89888
   R23        2.10152  -0.01073   0.00000  -0.03091  -0.03091   2.07061
   R24        2.09792  -0.00786   0.00000  -0.02251  -0.02251   2.07540
   R25        2.10757  -0.00922   0.00000  -0.02681  -0.02681   2.08076
   R26        2.76854  -0.00543   0.00000  -0.01163  -0.01191   2.75663
   R27        2.44249  -0.00603   0.00000  -0.00829  -0.00832   2.43417
   R28        2.08027  -0.00582   0.00000  -0.01619  -0.01619   2.06408
    A1        2.16468   0.00927   0.00000   0.03473   0.03315   2.19783
    A2        2.05073  -0.00768   0.00000  -0.02724  -0.02882   2.02191
    A3        2.06737  -0.00153   0.00000  -0.00479  -0.00636   2.06101
    A4        2.02849  -0.00594   0.00000  -0.01926  -0.01958   2.00891
    A5        2.03041  -0.00385   0.00000  -0.01159  -0.01193   2.01848
    A6        2.22349   0.00974   0.00000   0.02973   0.02998   2.25347
    A7        2.19929   0.00655   0.00000   0.02116   0.02146   2.22075
    A8        2.06269  -0.00305   0.00000  -0.00906  -0.00929   2.05339
    A9        2.02023  -0.00346   0.00000  -0.01127  -0.01151   2.00872
   A10        2.25359  -0.00588   0.00000  -0.02035  -0.02039   2.23319
   A11        2.11411  -0.01225   0.00000  -0.07101  -0.07133   2.04279
   A12        1.87368   0.01830   0.00000   0.09858   0.09873   1.97241
   A13        1.83805  -0.00169   0.00000  -0.01818  -0.01799   1.82006
   A14        2.00649  -0.00111   0.00000  -0.01258  -0.01256   1.99393
   A15        1.96781   0.00117   0.00000   0.00221   0.00171   1.96952
   A16        1.85209   0.00272   0.00000   0.02417   0.02399   1.87608
   A17        1.84920   0.00083   0.00000   0.01812   0.01798   1.86717
   A18        1.93624  -0.00161   0.00000  -0.00953  -0.00922   1.92702
   A19        1.91010   0.00021   0.00000  -0.00450  -0.00464   1.90546
   A20        1.92249  -0.00075   0.00000  -0.01310  -0.01306   1.90942
   A21        1.92285  -0.00168   0.00000  -0.00713  -0.00713   1.91572
   A22        1.91928  -0.00041   0.00000   0.00568   0.00564   1.92492
   A23        1.90455   0.00303   0.00000   0.02452   0.02453   1.92908
   A24        1.88438  -0.00038   0.00000  -0.00506  -0.00531   1.87907
   A25        1.94048  -0.00086   0.00000   0.00564   0.00551   1.94599
   A26        1.91892  -0.00068   0.00000  -0.00679  -0.00681   1.91211
   A27        1.90497   0.00029   0.00000  -0.00297  -0.00303   1.90194
   A28        1.91612   0.00077   0.00000   0.00710   0.00714   1.92327
   A29        1.89851   0.00172   0.00000   0.01115   0.01119   1.90969
   A30        1.88379  -0.00122   0.00000  -0.01461  -0.01469   1.86910
   A31        1.94465   0.00064   0.00000   0.00501   0.00514   1.94980
   A32        1.90241   0.00063   0.00000   0.00602   0.00596   1.90837
   A33        1.91742   0.00039   0.00000   0.00529   0.00527   1.92269
   A34        1.90665  -0.00116   0.00000  -0.01423  -0.01428   1.89236
   A35        1.91534  -0.00046   0.00000   0.00017   0.00008   1.91542
   A36        1.87600  -0.00007   0.00000  -0.00262  -0.00265   1.87335
   A37        1.94745  -0.00295   0.00000  -0.01799  -0.01803   1.92942
   A38        1.90602   0.00252   0.00000   0.01693   0.01678   1.92280
   A39        1.91085   0.00140   0.00000   0.01321   0.01319   1.92404
   A40        1.90615   0.00019   0.00000  -0.00300  -0.00284   1.90331
   A41        1.91153  -0.00023   0.00000  -0.00487  -0.00482   1.90671
   A42        1.88060  -0.00086   0.00000  -0.00378  -0.00397   1.87663
   A43        1.84639   0.00458   0.00000   0.02367   0.02371   1.87010
   A44        1.93800  -0.00434   0.00000  -0.03096  -0.03137   1.90662
   A45        1.98457   0.00097   0.00000   0.01251   0.01270   1.99728
   A46        1.88089   0.00225   0.00000   0.03015   0.03044   1.91133
   A47        1.89184  -0.00405   0.00000  -0.02904  -0.02910   1.86274
   A48        1.91754   0.00079   0.00000  -0.00403  -0.00386   1.91368
   A49        2.08502  -0.00645   0.00000  -0.01569  -0.01599   2.06904
   A50        2.25136  -0.00435   0.00000  -0.01852  -0.01865   2.23272
   A51        1.97674   0.00557   0.00000   0.02782   0.02729   2.00403
   A52        2.05507  -0.00121   0.00000  -0.00913  -0.00964   2.04543
    D1       -2.83213  -0.00089   0.00000  -0.02724  -0.02674  -2.85887
    D2        0.34908  -0.00009   0.00000   0.00000  -0.00000   0.34908
    D3        0.33852  -0.00332   0.00000  -0.12644  -0.12614   0.21237
    D4       -2.76347  -0.00251   0.00000  -0.09921  -0.09940  -2.86287
    D5        3.07611   0.00037   0.00000   0.01093   0.01098   3.08709
    D6       -0.01589  -0.00058   0.00000  -0.00991  -0.00994  -0.02583
    D7       -0.11017  -0.00096   0.00000  -0.02108  -0.02144  -0.13161
    D8        3.08102  -0.00191   0.00000  -0.04192  -0.04236   3.03865
    D9       -2.72356  -0.00173   0.00000  -0.04115  -0.04166  -2.76522
   D10        0.41400   0.00077   0.00000   0.01242   0.01228   0.42628
   D11        0.46277  -0.00036   0.00000  -0.00895  -0.00893   0.45384
   D12       -2.68286   0.00214   0.00000   0.04462   0.04501  -2.63785
   D13       -0.10916   0.00003   0.00000   0.02374   0.02397  -0.08519
   D14        2.68522   0.00392   0.00000   0.07004   0.06920   2.75442
   D15        2.98390   0.00097   0.00000   0.04416   0.04446   3.02836
   D16       -0.50490   0.00486   0.00000   0.09046   0.08969  -0.41521
   D17       -2.50009  -0.00072   0.00000  -0.01797  -0.01758  -2.51767
   D18        1.75120  -0.00235   0.00000  -0.02894  -0.02861   1.72259
   D19       -0.49169  -0.00014   0.00000  -0.00599  -0.00596  -0.49765
   D20        0.95162   0.00004   0.00000  -0.03535  -0.03577   0.91584
   D21       -1.08028  -0.00160   0.00000  -0.04632  -0.04680  -1.12708
   D22        2.96001   0.00062   0.00000  -0.02337  -0.02415   2.93587
   D23        2.94402   0.00227   0.00000   0.02522   0.02513   2.96915
   D24       -1.22709   0.00142   0.00000   0.02110   0.02102  -1.20607
   D25        0.84991  -0.00056   0.00000   0.00225   0.00225   0.85216
   D26        0.92014   0.00316   0.00000   0.03859   0.03860   0.95874
   D27        3.03223   0.00231   0.00000   0.03447   0.03449   3.06671
   D28       -1.17396   0.00033   0.00000   0.01562   0.01572  -1.15824
   D29       -1.08063   0.00147   0.00000   0.00856   0.00853  -1.07210
   D30        1.03146   0.00062   0.00000   0.00444   0.00442   1.03587
   D31        3.10845  -0.00136   0.00000  -0.01441  -0.01435   3.09410
   D32       -2.89969  -0.00102   0.00000  -0.01309  -0.01285  -2.91254
   D33       -0.86377   0.00206   0.00000   0.02046   0.02031  -0.84346
   D34        1.30938   0.00040   0.00000   0.00000  -0.00001   1.30937
   D35       -0.89802  -0.00196   0.00000  -0.02299  -0.02287  -0.92089
   D36        1.13790   0.00113   0.00000   0.01055   0.01029   1.14819
   D37       -2.97214  -0.00053   0.00000  -0.00990  -0.01002  -2.98216
   D38        1.10456   0.00092   0.00000   0.01081   0.01093   1.11549
   D39        3.14048   0.00401   0.00000   0.04436   0.04409  -3.09862
   D40       -0.96956   0.00235   0.00000   0.02390   0.02378  -0.94578
   D41        0.95665   0.00068   0.00000   0.00000   0.00001   0.95666
   D42        3.08231   0.00061   0.00000   0.00810   0.00806   3.09036
   D43       -1.13769  -0.00111   0.00000  -0.01544  -0.01540  -1.15309
   D44       -1.15737   0.00173   0.00000   0.01548   0.01556  -1.14182
   D45        0.96828   0.00166   0.00000   0.02358   0.02360   0.99189
   D46        3.03147  -0.00006   0.00000   0.00005   0.00014   3.03162
   D47        3.06195   0.00061   0.00000   0.00361   0.00357   3.06552
   D48       -1.09559   0.00055   0.00000   0.01170   0.01162  -1.08397
   D49        0.96761  -0.00117   0.00000  -0.01183  -0.01184   0.95576
   D50       -0.92193  -0.00076   0.00000   0.00000   0.00001  -0.92192
   D51        1.18348  -0.00139   0.00000  -0.01061  -0.01062   1.17286
   D52       -3.04835  -0.00088   0.00000  -0.00720  -0.00723  -3.05559
   D53       -3.04921   0.00015   0.00000  -0.00000   0.00002  -3.04919
   D54       -0.94380  -0.00048   0.00000  -0.01061  -0.01061  -0.95441
   D55        1.10755   0.00003   0.00000  -0.00720  -0.00722   1.10033
   D56        1.17624   0.00017   0.00000   0.00702   0.00705   1.18329
   D57       -3.00153  -0.00046   0.00000  -0.00359  -0.00357  -3.00511
   D58       -0.95018   0.00005   0.00000  -0.00018  -0.00019  -0.95037
   D59        0.98832  -0.00084   0.00000  -0.01166  -0.01172   0.97660
   D60        3.09729  -0.00081   0.00000  -0.01566  -0.01582   3.08148
   D61       -1.13066   0.00043   0.00000  -0.00270  -0.00268  -1.13334
   D62       -1.11460  -0.00126   0.00000  -0.01295  -0.01295  -1.12756
   D63        0.99437  -0.00123   0.00000  -0.01695  -0.01705   0.97732
   D64        3.04960   0.00001   0.00000  -0.00399  -0.00391   3.04569
   D65        3.11595  -0.00023   0.00000  -0.00151  -0.00152   3.11443
   D66       -1.05826  -0.00021   0.00000  -0.00551  -0.00562  -1.06388
   D67        0.99697   0.00103   0.00000   0.00745   0.00752   1.00449
   D68       -1.05356   0.00000   0.00000  -0.00026  -0.00017  -1.05372
   D69       -3.12772   0.00153   0.00000   0.00834   0.00797  -3.11975
   D70        1.08101   0.00157   0.00000   0.01230   0.01219   1.09320
   D71        3.12073  -0.00139   0.00000  -0.00790  -0.00773   3.11300
   D72        1.04656   0.00014   0.00000   0.00070   0.00041   1.04697
   D73       -1.02789   0.00018   0.00000   0.00466   0.00462  -1.02326
   D74        1.06503  -0.00033   0.00000   0.00126   0.00146   1.06649
   D75       -1.00914   0.00120   0.00000   0.00986   0.00960  -0.99954
   D76       -3.08359   0.00124   0.00000   0.01382   0.01382  -3.06977
   D77       -1.17216   0.00378   0.00000   0.00000  -0.00001  -1.17217
   D78        3.06309   0.00019   0.00000  -0.01768  -0.01753   3.04556
   D79        1.01195  -0.00062   0.00000  -0.03483  -0.03508   0.97687
   D80        0.15121   0.00162   0.00000   0.01962   0.01933   0.17054
   D81       -2.98619  -0.00099   0.00000  -0.03606  -0.03579  -3.02198
         Item               Value     Threshold  Converged?
 Maximum Force            0.035500     0.000450     NO 
 RMS     Force            0.006851     0.000300     NO 
 Maximum Displacement     0.267975     0.001800     NO 
 RMS     Displacement     0.055415     0.001200     NO 
 Predicted change in Energy=-1.335755D-02
 GradGradGradGradGradGradGradGradGradGradGradGradGradGradGradGradGradGrad

                          Input orientation:                          
 ---------------------------------------------------------------------
 Center     Atomic      Atomic             Coordinates (Angstroms)
 Number     Number       Type             X           Y           Z
 ---------------------------------------------------------------------
      1          8           0       -3.472822   -1.435651   -0.030521
      2          7           0       -3.124858   -0.245906   -0.069752
      3          8           0       -3.883944    0.735718   -0.052352
      4          6           0       -1.681132   -0.001679   -0.042021
      5          6           0       -1.317403    1.273542    0.259649
      6          7           0       -0.067264    1.750683    0.408258
      7          6           0        1.192914    1.002057    0.379359
      8          1           0        1.827268    1.508570    1.125071
      9          6           0        1.924261    1.057869   -0.958570
     10          6           0        3.324707    0.456707   -0.792365
     11          6           0        3.262385   -0.960308   -0.210596
     12          6           0        2.442166   -1.006874    1.078576
     13          6           0        1.032807   -0.449885    0.840469
     14          1           0        0.465008   -0.470560    1.783641
     15          7           0        0.394446   -1.326095   -0.135589
     16          6           0       -0.845372   -1.127455   -0.423016
     17          1           0       -2.110408    1.998141    0.427320
     18          1           0        0.062321    2.750599    0.289504
     19          1           0        1.355875    0.495583   -1.707817
     20          1           0        1.990337    2.099001   -1.302602
     21          1           0        3.836540    0.445681   -1.761345
     22          1           0        3.913021    1.100760   -0.123569
     23          1           0        2.798134   -1.632275   -0.940842
     24          1           0        4.275091   -1.335222   -0.019170
     25          1           0        2.362851   -2.038638    1.438814
     26          1           0        2.935671   -0.419304    1.864312
     27          1           0       -1.332599   -1.863079   -1.066837
 ---------------------------------------------------------------------
                    Distance matrix (angstroms):
                    1          2          3          4          5
     1  O    0.000000
     2  N    1.240206   0.000000
     3  O    2.210054   1.241007   0.000000
     4  C    2.294899   1.464501   2.322981   0.000000
     5  C    3.474155   2.384139   2.640782   1.359960   0.000000
     6  N    4.684344   3.682899   3.976099   2.424478   1.346327
     7  C    5.280106   4.516887   5.102136   3.073302   2.527791
     8  H    6.172098   5.387889   5.882310   3.993974   3.270038
     9  C    6.017261   5.289937   5.887296   3.868018   3.469720
    10  C    7.097030   6.527843   7.251904   5.082476   4.829404
    11  C    6.754361   6.428615   7.346534   5.038427   5.117194
    12  C    6.033327   5.734936   6.658475   4.389503   4.472728
    13  C    4.693725   4.261020   5.135876   2.888795   2.971706
    14  H    4.441744   4.046316   4.872305   2.856362   2.922573
    15  N    3.870246   3.681935   4.750012   2.463910   3.137635
    16  C    2.674422   2.469409   3.583535   1.452935   2.540399
    17  H    3.722461   2.512357   2.229176   2.098533   1.087205
    18  H    5.488565   4.389330   4.444054   3.274839   2.021442
    19  H    5.464366   4.828046   5.500357   3.499365   3.409187
    20  H    6.630087   5.760532   6.158639   4.413797   3.750087
    21  H    7.743510   7.197281   7.912689   5.796629   5.597580
    22  H    7.809784   7.165763   7.805831   5.702330   5.247290
    23  H    6.339735   6.145132   7.144716   4.850829   5.179053
    24  H    7.748573   7.479868   8.417823   6.103724   6.177328
    25  H    6.047943   5.966960   6.995932   4.764018   5.089719
    26  H    6.759596   6.364015   7.177383   5.012323   4.850702
    27  H    2.416030   2.611823   3.780514   2.153261   3.405611
                    6          7          8          9         10
     6  N    0.000000
     7  C    1.466058   0.000000
     8  H    2.040023   1.102292   0.000000
     9  C    2.512844   1.525790   2.134033   0.000000
    10  C    3.823786   2.492967   2.650528   1.533059   0.000000
    11  C    4.338089   2.912324   3.152606   2.534379   1.533059
    12  C    3.788230   2.466848   2.589926   2.946414   2.534042
    13  C    2.497891   1.531793   2.132536   2.510887   2.956495
    14  H    2.666254   2.161124   2.491269   3.461970   3.958979
    15  N    3.158403   2.514561   3.417246   2.949732   3.492302
    16  C    3.095181   3.055034   4.060567   3.568378   4.476108
    17  H    2.058163   3.450568   4.028874   4.368450   5.779630
    18  H    1.015247   2.084157   2.314270   2.808886   4.132256
    19  H    2.842248   2.153920   3.045260   1.095719   2.171604
    20  H    2.698534   2.160592   2.503756   1.098489   2.176698
    21  H    4.652945   3.446872   3.674004   2.162414   1.095909
    22  H    4.067912   2.767971   2.464909   2.157367   1.099185
    23  H    4.634111   3.355498   3.882716   2.828576   2.159437
    24  H    5.344301   3.888639   3.922789   3.483642   2.170730
    25  H    4.618058   3.425935   3.601107   3.940580   3.482826
    26  H    3.980773   2.694913   2.343444   3.342701   2.824301
    27  H    4.103201   4.083957   5.114415   4.376163   5.210302
                   11         12         13         14         15
    11  C    0.000000
    12  C    1.528690   0.000000
    13  C    2.517199   1.534022   0.000000
    14  H    3.470181   2.166542   1.101089   0.000000
    15  N    2.892145   2.401928   1.458746   2.102467   0.000000
    16  C    4.116640   3.616244   2.362847   2.649139   1.288107
    17  H    6.166544   5.493648   4.005411   3.816655   4.200203
    18  H    4.925580   4.517177   3.389468   3.573579   4.112231
    19  H    2.827732   3.346848   2.737159   3.730597   2.591285
    20  H    3.488546   3.939621   3.465030   4.295831   3.954752
    21  H    2.170548   3.481285   3.928408   4.977314   4.198843
    22  H    2.163077   2.837374   3.410206   4.242086   4.274359
    23  H    1.095595   2.143803   2.772633   3.770394   2.553408
    24  H    1.096712   2.161591   3.469180   4.302848   3.882402
    25  H    2.166221   1.095719   2.156658   2.485877   2.619367
    26  H    2.169025   1.098256   2.161038   2.472511   3.358527
    27  H    4.760465   4.425464   3.351131   3.646330   2.034271
                   16         17         18         19         20
    16  C    0.000000
    17  H    3.477461   0.000000
    18  H    4.046095   2.303462   0.000000
    19  H    3.021664   4.339540   3.278363   0.000000
    20  H    4.384624   4.451843   2.583917   1.771352   0.000000
    21  H    5.117244   6.524307   4.874768   2.481745   2.520393
    22  H    5.262786   6.114775   4.209571   3.068400   2.466439
    23  H    3.714582   6.256642   5.311121   2.682563   3.834817
    24  H    5.140564   7.217012   5.876788   3.837343   4.319859
    25  H    3.819602   6.109726   5.436004   4.163840   4.977367
    26  H    4.475448   5.776841   4.558995   4.011593   4.155100
    27  H    1.092264   4.212661   5.007144   3.633461   5.176443
                   21         22         23         24         25
    21  H    0.000000
    22  H    1.765585   0.000000
    23  H    2.463618   3.062742   0.000000
    24  H    2.529647   2.464955   1.766104   0.000000
    25  H    4.310988   3.834044   2.453032   2.505430   0.000000
    26  H    3.834729   2.686536   3.059265   2.486052   1.769581
    27  H    5.703746   6.098412   4.139094   5.729086   4.468272
                   26         27
    26  H    0.000000
    27  H    5.375337   0.000000
 Symmetry turned off by external request.
 Stoichiometry    C9H13N3O2
 Framework group  C1[X(C9H13N3O2)]
 Deg. of freedom    75
 Full point group                 C1      NOp   1
 Rotational constants (GHZ):           1.6851943           0.4226858           0.3721293
 Standard basis: 6-31G(d) (6D, 7F)
   236 basis functions,   444 primitive gaussians,   236 cartesian basis functions
    52 alpha electrons       52 beta electrons
       nuclear repulsion energy       932.1203329581 Hartrees.
 NAtoms=   27 NActive=   27 NUniq=   27 SFac= 1.00D+00 NAtFMM=   60 NAOKFM=F Big=F
 Integral buffers will be    131072 words long.
 Raffenetti 1 integral format.
 Two-electron integral symmetry is turned off.
 One-electron integrals computed using PRISM.
 NBasis=   236 RedAO= T EigKep=  1.12D-03  NBF=   236
 NBsUse=   236 1.00D-06 EigRej= -1.00D+00 NBFU=   236
 Initial guess from the checkpoint file:  "/home/alexey/tmp/Gau-1048223.chk"
 B after Tr=     0.053648    0.004332    0.003592
         Rot=    0.999998   -0.001797   -0.000226    0.000919 Ang=  -0.23 deg.
 ExpMin= 1.61D-01 ExpMax= 5.48D+03 ExpMxC= 8.25D+02 IAcc=3 IRadAn=         5 AccDes= 0.00D+00
 Harris functional with IExCor=  205 and IRadAn=       5 diagonalized for initial guess.
 HarFok:  IExCor=  205 AccDes= 0.00D+00 IRadAn=         5 IDoV= 1 UseB2=F ITyADJ=14
 ICtDFT=  3500011 ScaDFX=  1.000000  1.000000  1.000000  1.000000
 FoFCou: FMM=F IPFlag=           0 FMFlag=      100000 FMFlg1=           0
         NFxFlg=           0 DoJE=T BraDBF=F KetDBF=T FulRan=T
         wScrn=  0.000000 ICntrl=       500 IOpCl=  0 I1Cent=   200000004 NGrid=           0
         NMat0=    1 NMatS0=      1 NMatT0=    0 NMatD0=    1 NMtDS0=    0 NMtDT0=    0
 Symmetry not used in FoFCou.
 Keep R1 ints in memory in canonical form, NReq=397720213.
 Requested convergence on RMS density matrix=1.00D-08 within 128 cycles.
 Requested convergence on MAX density matrix=1.00D-06.
 Requested convergence on             energy=1.00D-06.
 No special actions if energy rises.
 SCF Done:  E(RHF) =  -661.297348083     A.U. after   15 cycles
            NFock= 15  Conv=0.50D-08     -V/T= 2.0024
 ExpMin= 1.61D-01 ExpMax= 5.48D+03 ExpMxC= 8.25D+02 IAcc=3 IRadAn=         5 AccDes= 0.00D+00
 HarFok:  IExCor=  205 AccDes= 0.00D+00 IRadAn=         5 IDoV=-2 UseB2=F ITyADJ=14
 ICtDFT= 12500011 ScaDFX=  1.000000  1.000000  1.000000  1.000000
 Range of M.O.s used for correlation:    15   236
 NBasis=   236 NAE=    52 NBE=    52 NFC=    14 NFV=     0
 NROrb=    222 NOA=    38 NOB=    38 NVA=   184 NVB=   184
 Fully direct method using O(ONN) memory.
 JobTyp=1 Pass  1:  I=  15 to  52 NPSUse=  4 ParTrn=T ParDer=T DoDerP=T.
 Spin components of T(2) and E(2):
     alpha-alpha T2 =       0.9126223263D-01 E2=     -0.2723429210D+00
     alpha-beta  T2 =       0.4916351005D+00 E2=     -0.1488409951D+01
     beta-beta   T2 =       0.9126223263D-01 E2=     -0.2723429210D+00
 ANorm=    0.1293893182D+01
 E2 =    -0.2033095793D+01 EUMP2 =    -0.66333044387535D+03
          IDoAtm=111111111111111111111111111
          Differentiating once with respect to electric field.
                with respect to dipole field.
          Differentiating once with respect to nuclear coordinates.
 Keep R1 ints in memory in canonical form, NReq=397723379.
          There are     1 degrees of freedom in the 1st order CPHF.  IDoFFX=0 NUNeed=     1.
 LinEq1:  Iter=  0 NonCon=     1 RMS=4.56D-03 Max=1.03D-01 NDo=     1
 AX will form     1 AO Fock derivatives at one time.
 LinEq1:  Iter=  1 NonCon=     1 RMS=1.53D-03 Max=2.73D-02 NDo=     1
 LinEq1:  Iter=  2 NonCon=     1 RMS=6.42D-04 Max=1.76D-02 NDo=     1
 LinEq1:  Iter=  3 NonCon=     1 RMS=2.80D-04 Max=7.93D-03 NDo=     1
 LinEq1:  Iter=  4 NonCon=     1 RMS=8.73D-05 Max=1.93D-03 NDo=     1
 LinEq1:  Iter=  5 NonCon=     1 RMS=3.63D-05 Max=1.74D-03 NDo=     1
 LinEq1:  Iter=  6 NonCon=     1 RMS=1.41D-05 Max=5.35D-04 NDo=     1
 LinEq1:  Iter=  7 NonCon=     1 RMS=5.36D-06 Max=9.35D-05 NDo=     1
 LinEq1:  Iter=  8 NonCon=     1 RMS=2.13D-06 Max=5.05D-05 NDo=     1
 LinEq1:  Iter=  9 NonCon=     1 RMS=7.51D-07 Max=2.08D-05 NDo=     1
[...]
    22  H    5.248736   6.097140   4.313638   3.070236   2.461511
    23  H    3.694653   6.231922   5.423265   2.704310   3.842985
    24  H    5.133155   7.202181   5.937075   3.849642   4.317112
    25  H    3.820277   6.101025   5.368684   4.171687   4.984987
    26  H    4.493632   5.793421   4.482028   4.035293   4.181377
    27  H    1.090500   4.211984   5.085219   3.589691   5.153585
                   21         22         23         24         25
    21  H    0.000000
    22  H    1.758858   0.000000
    23  H    2.469556   3.062306   0.000000
    24  H    2.517348   2.459843   1.764571   0.000000
    25  H    4.311981   3.839136   2.444363   2.519517   0.000000
    26  H    3.846265   2.703658   3.060473   2.492012   1.768006
    27  H    5.658576   6.064369   4.093780   5.697217   4.453865
                   26         27
    26  H    0.000000
    27  H    5.378421   0.000000
 Symmetry turned off by external request.
 Stoichiometry    C9H13N3O2
 Framework group  C1[X(C9H13N3O2)]
 Deg. of freedom    75
 Full point group                 C1      NOp   1
 Rotational constants (GHZ):           1.6749025           0.4209608           0.3723934

 **********************************************************************

            Population analysis using the SCF Density.

 **********************************************************************

 Alpha  occ. eigenvalues --  -20.59323 -20.59012 -15.84670 -15.64089 -15.56094
 Alpha  occ. eigenvalues --  -11.35016 -11.29645 -11.29609 -11.28590 -11.27127
 Alpha  occ. eigenvalues --  -11.23711 -11.23195 -11.22680 -11.22078  -1.57112
 Alpha  occ. eigenvalues --   -1.36742  -1.30940  -1.23084  -1.14718  -1.09841
 Alpha  occ. eigenvalues --   -1.02794  -1.01292  -0.94522  -0.89669  -0.85544
 Alpha  occ. eigenvalues --   -0.82479  -0.78591  -0.77448  -0.75215  -0.72009
 Alpha  occ. eigenvalues --   -0.69987  -0.69201  -0.67675  -0.64960  -0.63742
 Alpha  occ. eigenvalues --   -0.62400  -0.60269  -0.57687  -0.56990  -0.55096
 Alpha  occ. eigenvalues --   -0.54589  -0.50715  -0.50209  -0.48689  -0.48082
 Alpha  occ. eigenvalues --   -0.47452  -0.46117  -0.46071  -0.43632  -0.41691
 Alpha  occ. eigenvalues --   -0.39874  -0.33788
 Alpha virt. eigenvalues --    0.07481   0.11790   0.17298   0.21802   0.24056
 Alpha virt. eigenvalues --    0.25623   0.27137   0.28689   0.29038   0.29603
 Alpha virt. eigenvalues --    0.30480   0.31728   0.32020   0.32758   0.33919
 Alpha virt. eigenvalues --    0.34372   0.35841   0.37340   0.38591   0.40333
 Alpha virt. eigenvalues --    0.41486   0.42359   0.44938   0.46076   0.46796
 Alpha virt. eigenvalues --    0.47252   0.48825   0.53865   0.57519   0.59132
 Alpha virt. eigenvalues --    0.63811   0.69505   0.69865   0.72900   0.74234
 Alpha virt. eigenvalues --    0.74951   0.75781   0.76725   0.78702   0.79338
 Alpha virt. eigenvalues --    0.81579   0.84630   0.85691   0.85784   0.88561
 Alpha virt. eigenvalues --    0.89398   0.91131   0.91937   0.92787   0.94505
 Alpha virt. eigenvalues --    0.95538   0.98040   0.99541   1.01772   1.02218
 Alpha virt. eigenvalues --    1.03431   1.05856   1.06903   1.07892   1.08812
 Alpha virt. eigenvalues --    1.10508   1.11354   1.11861   1.12273   1.13895
 Alpha virt. eigenvalues --    1.14701   1.15012   1.15800   1.16783   1.18647
 Alpha virt. eigenvalues --    1.19010   1.21120   1.22281   1.23597   1.23802
 Alpha virt. eigenvalues --    1.24499   1.25822   1.27014   1.28359   1.29447
 Alpha virt. eigenvalues --    1.30163   1.33286   1.35949   1.37403   1.40949
 Alpha virt. eigenvalues --    1.41428   1.44879   1.47077   1.51365   1.53679
 Alpha virt. eigenvalues --    1.55833   1.58099   1.60430   1.63947   1.66445
 Alpha virt. eigenvalues --    1.67458   1.68771   1.72932   1.75377   1.77468
 Alpha virt. eigenvalues --    1.81088   1.83658   1.86774   1.90342   1.92758
 Alpha virt. eigenvalues --    1.95212   1.96155   1.99181   2.01975   2.02122
 Alpha virt. eigenvalues --    2.05022   2.06267   2.08123   2.09525   2.13388
 Alpha virt. eigenvalues --    2.13887   2.15191   2.18966   2.20113   2.21782
 Alpha virt. eigenvalues --    2.22563   2.24574   2.25519   2.28185   2.29551
 Alpha virt. eigenvalues --    2.32136   2.33644   2.34439   2.36673   2.38166
 Alpha virt. eigenvalues --    2.40096   2.41371   2.43784   2.44540   2.47668
 Alpha virt. eigenvalues --    2.50650   2.52359   2.53449   2.55553   2.61891
 Alpha virt. eigenvalues --    2.62494   2.65344   2.67392   2.70501   2.70749
 Alpha virt. eigenvalues --    2.72207   2.72660   2.76768   2.78282   2.83680
 Alpha virt. eigenvalues --    2.88300   2.88968   2.92446   2.94076   2.96648
 Alpha virt. eigenvalues --    2.99472   3.01150   3.03740   3.05623   3.07882
 Alpha virt. eigenvalues --    3.09427   3.15255   3.20696   3.24315   3.27208
 Alpha virt. eigenvalues --    3.32990   3.37227   3.38695   3.51725   3.65574
 Alpha virt. eigenvalues --    4.12395   4.26567   4.31984   4.37778   4.46414
 Alpha virt. eigenvalues --    4.56149   4.62105   4.62357   4.73461   4.79168
 Alpha virt. eigenvalues --    4.99299   5.00900   5.05040   5.11171
          Condensed to atoms (all electrons):
               1          2          3          4          5          6
     1  O    8.311807   0.304592  -0.080764  -0.085474   0.004495  -0.000018
     2  N    0.304592   5.740036   0.299839   0.257988  -0.053386   0.001088
     3  O   -0.080764   0.299839   8.348848  -0.091517   0.004703   0.000729
     4  C   -0.085474   0.257988  -0.091517   5.230238   0.561637  -0.047227
     5  C    0.004495  -0.053386   0.004703   0.561637   4.702800   0.316890
     6  N   -0.000018   0.001088   0.000729  -0.047227   0.316890   7.195441
     7  C    0.000005  -0.000137   0.000000   0.004924  -0.030355   0.169930
     8  H   -0.000000   0.000002  -0.000000  -0.000261   0.003161  -0.050437
     9  C   -0.000000  -0.000004  -0.000000   0.000835   0.000621  -0.062052
    10  C    0.000000   0.000000   0.000000  -0.000039  -0.000053   0.003761
    11  C   -0.000000  -0.000000  -0.000000  -0.000027   0.000026  -0.000190
    12  C   -0.000000   0.000002  -0.000000  -0.000132  -0.000180   0.003863
    13  C   -0.000030  -0.000036  -0.000003  -0.011582  -0.000662  -0.047636
    14  H   -0.000007  -0.000098   0.000001   0.002529   0.005815  -0.006812
    15  N    0.000270   0.002528  -0.000022  -0.064630  -0.005988   0.001715
    16  C    0.001295  -0.025375   0.002276   0.323795  -0.047619  -0.001934
    17  H    0.000190  -0.006758   0.016171  -0.023754   0.375414  -0.033945
    18  H    0.000001  -0.000053   0.000011   0.001551  -0.031140   0.338559
    19  H    0.000000  -0.000004   0.000000  -0.001278   0.001228  -0.000364
    20  H    0.000000  -0.000000   0.000000  -0.000077   0.000147  -0.000361
    21  H   -0.000000   0.000000  -0.000000   0.000001   0.000001  -0.000077
    22  H   -0.000000   0.000000  -0.000000  -0.000000  -0.000003  -0.000116
    23  H    0.000000  -0.000000   0.000000   0.000040  -0.000000  -0.000030
    24  H    0.000000   0.000000   0.000000   0.000000  -0.000000   0.000006
    25  H    0.000000  -0.000000   0.000000   0.000024  -0.000000  -0.000090
    26  H    0.000000  -0.000000   0.000000   0.000006  -0.000002  -0.000060
    27  H    0.005416  -0.000538   0.000001  -0.067152   0.002281   0.000027
               7          8          9         10         11         12
     1  O    0.000005  -0.000000  -0.000000   0.000000  -0.000000  -0.000000
     2  N   -0.000137   0.000002  -0.000004   0.000000  -0.000000   0.000002
     3  O    0.000000  -0.000000  -0.000000   0.000000  -0.000000  -0.000000
     4  C    0.004924  -0.000261   0.000835  -0.000039  -0.000027  -0.000132
     5  C   -0.030355   0.003161   0.000621  -0.000053   0.000026  -0.000180
     6  N    0.169930  -0.050437  -0.062052   0.003761  -0.000190   0.003863
     7  C    5.018736   0.418210   0.350813  -0.054672  -0.009017  -0.060899
     8  H    0.418210   0.537921  -0.054857   0.000732  -0.000319  -0.002280
     9  C    0.350813  -0.054857   5.157758   0.324876  -0.050432  -0.005290
    10  C   -0.054672   0.000732   0.324876   5.119252   0.336978  -0.061065
    11  C   -0.009017  -0.000319  -0.050432   0.336978   5.119974   0.336001
    12  C   -0.060899  -0.002280  -0.005290  -0.061065   0.336001   5.118694
    13  C    0.337677  -0.037820  -0.060571  -0.000213  -0.050768   0.371723
    14  H   -0.046688  -0.000749   0.004424  -0.000404   0.004193  -0.036297
    15  N   -0.057799   0.003868  -0.014417   0.001559  -0.013076  -0.081964
    16  C   -0.002067   0.000026  -0.001311  -0.000030   0.000025   0.002723
    17  H    0.001656  -0.000051  -0.000065   0.000001   0.000000   0.000000
    18  H   -0.021291  -0.004531   0.001367  -0.000083   0.000004  -0.000114
    19  H   -0.036931   0.004356   0.390325  -0.032125  -0.002211   0.000683
    20  H   -0.042436  -0.002066   0.399509  -0.035284   0.003929  -0.000416
    21  H    0.004601  -0.000076  -0.036362   0.402412  -0.034908   0.004355
    22  H   -0.004858   0.003559  -0.046957   0.397760  -0.045398  -0.001032
    23  H    0.000573   0.000035  -0.001958  -0.039020   0.399200  -0.037874
    24  H   -0.000130  -0.000103   0.004389  -0.038437   0.402353  -0.038689
    25  H    0.005146  -0.000024  -0.000425   0.004192  -0.033398   0.398312
    26  H   -0.003923   0.001685   0.000972  -0.002241  -0.041484   0.396712
    27  H   -0.000419   0.000009  -0.000058   0.000007   0.000012  -0.000039
              13         14         15         16         17         18
     1  O   -0.000030  -0.000007   0.000270   0.001295   0.000190   0.000001
     2  N   -0.000036  -0.000098   0.002528  -0.025375  -0.006758  -0.000053
     3  O   -0.000003   0.000001  -0.000022   0.002276   0.016171   0.000011
     4  C   -0.011582   0.002529  -0.064630   0.323795  -0.023754   0.001551
     5  C   -0.000662   0.005815  -0.005988  -0.047619   0.375414  -0.031140
     6  N   -0.047636  -0.006812   0.001715  -0.001934  -0.033945   0.338559
     7  C    0.337677  -0.046688  -0.057799  -0.002067   0.001656  -0.021291
     8  H   -0.037820  -0.000749   0.003868   0.000026  -0.000051  -0.004531
     9  C   -0.060571   0.004424  -0.014417  -0.001311  -0.000065   0.001367
    10  C   -0.000213  -0.000404   0.001559  -0.000030   0.000001  -0.000083
    11  C   -0.050768   0.004193  -0.013076   0.000025   0.000000   0.000004
    12  C    0.371723  -0.036297  -0.081964   0.002723   0.000000  -0.000114
    13  C    5.040356   0.403405   0.246280  -0.071961  -0.000021   0.002941
    14  H    0.403405   0.526506  -0.037539  -0.004419   0.000087  -0.000112
    15  N    0.246280  -0.037539   6.962170   0.587060  -0.000070  -0.000133
    16  C   -0.071961  -0.004419   0.587060   4.707041   0.002074  -0.000194
    17  H   -0.000021   0.000087  -0.000070   0.002074   0.379331  -0.002831
    18  H    0.002941  -0.000112  -0.000133  -0.000194  -0.002831   0.310659
    19  H   -0.007509   0.000106   0.007641   0.003034   0.000016  -0.000150
    20  H    0.004348  -0.000066   0.000125  -0.000036   0.000001   0.000784
    21  H   -0.000437   0.000010  -0.000042   0.000004  -0.000000   0.000001
    22  H    0.000051  -0.000055   0.000019  -0.000002   0.000000   0.000001
    23  H   -0.007509   0.000003   0.008558   0.000103   0.000000   0.000000
    24  H    0.004702  -0.000057   0.000134   0.000007   0.000000  -0.000000
    25  H   -0.035564  -0.002825   0.000406  -0.000020  -0.000000   0.000002
    26  H   -0.047389  -0.001039   0.004888  -0.000064   0.000000  -0.000000
    27  H    0.005181  -0.000169  -0.039484   0.404783  -0.000080   0.000001
              19         20         21         22         23         24
     1  O    0.000000   0.000000  -0.000000  -0.000000   0.000000   0.000000
     2  N   -0.000004  -0.000000   0.000000   0.000000  -0.000000   0.000000
     3  O    0.000000   0.000000  -0.000000  -0.000000   0.000000   0.000000
     4  C   -0.001278  -0.000077   0.000001  -0.000000   0.000040   0.000000
     5  C    0.001228   0.000147   0.000001  -0.000003  -0.000000  -0.000000
     6  N   -0.000364  -0.000361  -0.000077  -0.000116  -0.000030   0.000006
     7  C   -0.036931  -0.042436   0.004601  -0.004858   0.000573  -0.000130
     8  H    0.004356  -0.002066  -0.000076   0.003559   0.000035  -0.000103
     9  C    0.390325   0.399509  -0.036362  -0.046957  -0.001958   0.004389
    10  C   -0.032125  -0.035284   0.402412   0.397760  -0.039020  -0.038437
    11  C   -0.002211   0.003929  -0.034908  -0.045398   0.399200   0.402353
    12  C    0.000683  -0.000416   0.004355  -0.001032  -0.037874  -0.038689
    13  C   -0.007509   0.004348  -0.000437   0.000051  -0.007509   0.004702
    14  H    0.000106  -0.000066   0.000010  -0.000055   0.000003  -0.000057
    15  N    0.007641   0.000125  -0.000042   0.000019   0.008558   0.000134
    16  C    0.003034  -0.000036   0.000004  -0.000002   0.000103   0.000007
    17  H    0.000016   0.000001  -0.000000   0.000000   0.000000   0.000000
    18  H   -0.000150   0.000784   0.000001   0.000001   0.000000  -0.000000
    19  H    0.505298  -0.024735  -0.002786   0.003962   0.001514  -0.000067
    20  H   -0.024735   0.540883  -0.002699  -0.002988  -0.000045  -0.000083
    21  H   -0.002786  -0.002699   0.524160  -0.027412  -0.002898  -0.002244
    22  H    0.003962  -0.002988  -0.027412   0.571365   0.004137  -0.003655
    23  H    0.001514  -0.000045  -0.002898   0.004137   0.499038  -0.025462
    24  H   -0.000067  -0.000083  -0.002244  -0.003655  -0.025462   0.538162
    25  H   -0.000029   0.000012  -0.000087  -0.000080  -0.002313  -0.002295
    26  H    0.000019  -0.000030  -0.000081   0.002382   0.004068  -0.003032
    27  H    0.000087   0.000000  -0.000000   0.000000  -0.000035  -0.000000
              25         26         27
     1  O    0.000000   0.000000   0.005416
     2  N   -0.000000  -0.000000  -0.000538
     3  O    0.000000   0.000000   0.000001
     4  C    0.000024   0.000006  -0.067152
     5  C   -0.000000  -0.000002   0.002281
     6  N   -0.000090  -0.000060   0.000027
     7  C    0.005146  -0.003923  -0.000419
     8  H   -0.000024   0.001685   0.000009
     9  C   -0.000425   0.000972  -0.000058
    10  C    0.004192  -0.002241   0.000007
    11  C   -0.033398  -0.041484   0.000012
    12  C    0.398312   0.396712  -0.000039
    13  C   -0.035564  -0.047389   0.005181
    14  H   -0.002825  -0.001039  -0.000169
    15  N    0.000406   0.004888  -0.039484
    16  C   -0.000020  -0.000064   0.404783
    17  H   -0.000000   0.000000  -0.000080
    18  H    0.000002  -0.000000   0.000001
    19  H   -0.000029   0.000019   0.000087
    20  H    0.000012  -0.000030   0.000000
    21  H   -0.000087  -0.000081  -0.000000
    22  H   -0.000080   0.002382   0.000000
    23  H   -0.002313   0.004068  -0.000035
    24  H   -0.002295  -0.003032  -0.000000
    25  H    0.505941  -0.024077  -0.000013
    26  H   -0.024077   0.562412   0.000001
    27  H   -0.000013   0.000001   0.446304
 Mulliken charges:
               1
     1  O   -0.461777
     2  N    0.480316
     3  O   -0.500273
     4  C    0.009584
     5  C    0.190172
     6  N   -0.780661
     7  C    0.059352
     8  H    0.180009
     9  C   -0.301133
    10  C   -0.327864
    11  C   -0.321468
    12  C   -0.306798
    13  C   -0.036953
    14  H    0.190255
    15  N   -0.512057
    16  C    0.120789
    17  H    0.292633
    18  H    0.404751
    19  H    0.189920
    20  H    0.161583
    21  H    0.174564
    22  H    0.149319
    23  H    0.199876
    24  H    0.164502
    25  H    0.187203
    26  H    0.150277
    27  H    0.243879
 Sum of Mulliken charges =  -0.00000
 Mulliken charges with hydrogens summed into heavy atoms:
               1
     1  O   -0.461777
     2  N    0.480316
     3  O   -0.500273
     4  C    0.009584
     5  C    0.482805
     6  N   -0.375910
     7  C    0.239361
     9  C    0.050370
    10  C   -0.003981
    11  C    0.042910
    12  C    0.030683
    13  C    0.153302
    15  N   -0.512057
    16  C    0.364668
 Electronic spatial extent (au):  <R**2>=           3000.8490
 Charge=             -0.0000 electrons
 Dipole moment (field-independent basis, Debye):
    X=              5.3641    Y=              4.7859    Z=              1.3667  Tot=              7.3175
 Quadrupole moment (field-independent basis, Debye-Ang):
   XX=           -105.7960   YY=            -79.5119   ZZ=            -81.3086
   XY=             -1.7717   XZ=             -0.5219   YZ=              2.8419
 Traceless Quadrupole moment (field-independent basis, Debye-Ang):
   XX=            -16.9239   YY=              9.3603   ZZ=              7.5636
   XY=             -1.7717   XZ=             -0.5219   YZ=              2.8419
 Octapole moment (field-independent basis, Debye-Ang**2):
  XXX=             90.1826  YYY=             36.2821  ZZZ=             -1.0773  XYY=             -3.8935
  XXY=              9.5110  XXZ=              7.4233  XZZ=            -10.3862  YZZ=             -0.5628
  YYZ=              8.0908  XYZ=             -3.0783
 Hexadecapole moment (field-independent basis, Debye-Ang**3):
 XXXX=          -3365.1666 YYYY=           -607.2735 ZZZZ=           -301.0491 XXXY=            -20.3072
 XXXZ=            -29.7330 YYYX=             -8.9968 YYYZ=             32.6784 ZZZX=             -2.9086
 ZZZY=             13.4763 XXYY=           -629.7946 XXZZ=           -520.2515 YYZZ=           -157.1477
 XXYZ=              9.5525 YYXZ=              1.2722 ZZXY=              6.1603
 N-N= 9.313944039001D+02 E-N=-3.409500915525D+03  KE= 6.596280296813D+02
 Unable to Open any file for archive entry.
 1\1\GINC-LOTUS\FOpt\RMP2-FC\6-31G(d)\C9H13N3O2\ALEXEY\30-Jun-2023\0\\#
 MP2/6-31G* SCF=Tight Opt=(ModRedun, MaxCycle=20 ) NoSymm\\MolName:\\0,
 1\O,-3.5051713046,-1.4122130272,-0.1852651976\N,-3.1148904015,-0.22856
 95498,-0.1404170749\O,-3.8797366455,0.7549564011,-0.1792190554\C,-1.68
 44394853,-0.0208557876,-0.0052326603\C,-1.3007118296,1.2637325668,0.27
 86476494\N,-0.0562393861,1.7494145926,0.4063549549\C,1.2049653836,1.02
 07565648,0.3713471109\H,1.85510314,1.5431749382,1.0891897452\C,1.90457
 05211,1.0416154,-0.9865034739\C,3.3034844103,0.4338774194,-0.831442984
 1\C,3.2576331263,-0.9667570983,-0.2150002023\C,2.4668928612,-0.9867525
 436,1.0948684855\C,1.056024739,-0.4325356402,0.8663467239\H,0.48210554
 86,-0.4185584154,1.8064262336\N,0.4071989975,-1.3204542049,-0.09358551
 55\C,-0.8409625724,-1.137556777,-0.3815607092\H,-2.0952762608,1.993409
 3624,0.4098799782\H,0.0036499729,2.7307114186,0.6510791869\H,1.3079748
 642,0.4693344052,-1.7049452883\H,1.9691701893,2.0722300755,-1.35699526
 94\H,3.8043241605,0.4030122077,-1.8058506607\H,3.9052592271,1.09554877
 13,-0.1922255178\H,2.777766985,-1.6585521007,-0.9143117045\H,4.2773951
 581,-1.3314470203,-0.0437792861\H,2.3831936774,-2.0112844058,1.4720663
 739\H,2.9788569702,-0.3937618268,1.865321707\H,-1.3081420468,-1.890495
 7258,-1.0171835492\\Version=ES64L-G16RevC.02\HF=-661.2995695\MP2=-663.
 3343616\RMSD=9.472e-09\RMSF=4.393e-04\Dipole=1.9654946,1.6889769,0.501
 8203\PG=C01 [X(C9H13N3O2)]\\@
 The archive entry for this job was punched.


 THESE ARE THE TIMES THAT TRY MENS SOULS.
 THE SUMMER SOLDIER AND THE SUNSHINE PATRIOT WILL IN THIS CRISIS,
 SHRINK FROM THE SERVICE OF HIS COUNTRY.  BUT HE THAT STANDS NOW,
 DESERVES THE LOVE AND THANKS OF MAN AND WOMAN.
 TYRANNY, LIKE HELL, IS NOT EASILY CONQUERED,
 YET WE HAVE THIS CONSOLATION WITH US,
 THAT THE HARDER THE CONFLICT, THE MORE GLORIOUS THE TRIUMPH.
 WHAT WE OBTAIN TOO CHEAP, WE ESTEEM TOO LIGHTLY, 
 'TIS DEARNESS ONLY THAT GIVES EVERYTHING ITS VALUE.

                                              -- TOM PAINE
 Job cpu time:       0 days  1 hours 33 minutes 25.4 seconds.
 Elapsed time:       0 days  0 hours 27 minutes 48.2 seconds.
 File lengths (MBytes):  RWF=     36 Int=      0 D2E=      0 Chk=      7 Scr=      1
 Normal termination of Gaussian 16 at Fri Jun 30 01:24:54 2023.
