 Entering Gaussian System, Link 0=g16
 Initial command:
 /home/alexey/programs//g16/l1.exe "/home/alexey/tmp/Gau-1053509.inp" -scrdir="/home/alexey/tmp/"
 Entering Link 1 = /home/alexey/programs//g16/l1.exe PID=   1053511.
  
 Copyright (c) 1988-2021, Gaussian, Inc.  All Rights Reserved.
  
 This is part of the Gaussian(R) 16 program.  It is based on
 the Gaussian(R) 09 system (copyright 2009, Gaussian, Inc.),
 the Gaussian(R) 03 system (copyright 2003, Gaussian, Inc.),
 the Gaussian(R) 98 system (copyright 1998, Gaussian, Inc.),
 the Gaussian(R) 94 system (copyright 1995, Gaussian, Inc.),
 the Gaussian 92(TM) system (copyright 1992, Gaussian, Inc.),
 the Gaussian 90(TM) system (copyright 1990, Gaussian, Inc.),
 the Gaussian 88(TM) system (copyright 1988, Gaussian, Inc.),
 the Gaussian 86(TM) system (copyright 1986, Carnegie Mellon
 University), and the Gaussian 82(TM) system (copyright 1983,
 Carnegie Mellon University). Gaussian is a federally registered
 trademark of Gaussian, Inc.
  
 This software contains proprietary and confidential information,
 including trade secrets, belonging to Gaussian, Inc.
  
 This software is provided under written license and may be
 used, copied, transmitted, or stored only in accord with that
 written license.
  
 The following legend is applicable only to US Government
 contracts under FAR:
  
                    RESTRICTED RIGHTS LEGEND
  
 Use, reproduction and disclosure by the US Government is
 subject to restrictions as set forth in subparagraphs (a)
 and (c) of the Commercial Computer Software - Restricted
 Rights clause in FAR 52.227-19.
  
 Gaussian, Inc.
 340 Quinnipiac St., Bldg. 40, Wallingford CT 06492
  
  
 ---------------------------------------------------------------
 Warning -- This program may not be used in any manner that
 competes with the business of Gaussian, Inc. or will provide
 assistance to any competitor of Gaussian, Inc.  The licensee
 of this program is prohibited from giving any competitor of
 Gaussian, Inc. access to this program.  By using this program,
 the user acknowledges that Gaussian, Inc. is engaged in the
 business of creating and licensing software in the field of
 computational chemistry and represents and warrants to the
 licensee that it is not a competitor of Gaussian, Inc. and that
 it will not use this program in any manner prohibited above.
 ---------------------------------------------------------------
  

 Cite this work as:
 Gaussian 16, Revision C.02,
 M. J. Frisch, G. W. Trucks, H. B. Schlegel, G. E. Scuseria, 
 M. A. Robb, J. R. Cheeseman, G. Scalmani, V. Barone, 
 G. A. Petersson, H. Nakatsuji, X. Li, M. Caricato, A. V. Marenich, 
 J. Bloino, B. G. Janesko, R. Gomperts, B. Mennucci, H. P. Hratchian, 
 J. V. Ortiz, A. F. Izmaylov, J. L. Sonnenberg, D. Williams-Young, 
 F. Ding, F. Lipparini, F. Egidi, J. Goings, B. Peng, A. Petrone, 
 T. Henderson, D. Ranasinghe, V. G. Zakrzewski, J. Gao, N. Rega, 
 G. Zheng, W. Liang, M. Hada, M. Ehara, K. Toyota, R. Fukuda, 
 J. Hasegawa, M. Ishida, T. Nakajima, Y. Honda, O. Kitao, H. Nakai, 
 T. Vreven, K. Throssell, J. A. Montgomery, Jr., J. E. Peralta, 
 F. Ogliaro, M. J. Bearpark, J. J. Heyd, E. N. Brothers, K. N. Kudin, 
 V. N. Staroverov, T. A. Keith, R. Kobayashi, J. Normand, 
 K. Raghavachari, A. P. Rendell, J. C. Burant, S. S. Iyengar, 
 J. Tomasi, M. Cossi, J. M. Millam, M. Klene, C. Adamo, R. Cammi, 
 J. W. Ochterski, R. L. Martin, K. Morokuma, O. Farkas, 
 J. B. Foresman, and D. J. Fox, Gaussian, Inc., Wallingford CT, 2019.
 
 ******************************************
 Gaussian 16:  ES64L-G16RevC.02  7-Dec-2021
                30-Jun-2023 
 ******************************************
 %mem=8GB
 %NPROCS=4
 Will use up to    4 processors via shared memory.
 %NoSave
 ---------------------------------------------------------
 #MP2/6-31G* SCF=Tight Opt=(ModRedun, MaxCycle=20 ) NoSymm
 ---------------------------------------------------------
 1/6=20,18=120,19=15,38=1/1,3;
 2/9=110,12=2,15=1,17=6,18=5,40=1/2;
 3/5=1,6=6,7=1,11=9,25=1,30=1,71=1/1,2,3;
 4//1;
 5/5=2,32=2,38=5/2;
 8/6=4,10=2/1;
 9/15=2,16=-3/6;
 10/5=1,31=1/2;
 6/7=2,8=2,9=2,10=2/1;
 7/12=2,30=1/1,2,3,16;
 1/6=20,18=20,19=15/3(2);
 2/9=110,15=1/2;
 99//99;
 2/9=110,15=1/2;
 3/5=1,6=6,7=1,11=9,25=1,30=1,71=1/1,2,3;
 4/5=5,16=3,69=1/1;
 5/5=2,32=2,38=5/2;
 8/6=4,10=2/1;
 9/15=2,16=-3/6;
 10/5=1,31=1/2;
 7/12=2,30=1/1,2,3,16;
 1/6=20,18=20,19=15/3(-8);
 2/9=110,15=1/2;
 6/7=2,8=2,9=2,10=2/1;
 99/9=10/99;
 --------
 MolName:
 --------
 Symbolic Z-matrix:
 Charge =  0 Multiplicity = 1
 8                    0    -3.61675  -1.34677   0.3136 
 7                    0    -3.22892  -0.25292  -0.09085 
 8                    0    -3.95821   0.63683  -0.52864 
 6                    0    -1.74495   0.00708  -0.04521 
 6                    0    -1.37031   1.31001   0.28844 
 7                    0    -0.08528   1.75493   0.45585 
 6                    0     1.19443   0.98423   0.39633 
 1                    0     1.86597   1.46665   1.15314 
 6                    0     1.9431    1.06539  -0.95748 
 6                    0     3.35848   0.47843  -0.79666 
 6                    0     3.30663  -0.94981  -0.23141 
 6                    0     2.47347  -1.01239   1.06683 
 6                    0     1.03239  -0.47661   0.84569 
 1                    0     0.49319  -0.53641   1.82013 
 7                    0     0.36792  -1.33208  -0.14186 
 6                    0    -0.87757  -1.13336  -0.42333 
 1                    0    -2.16872   2.0465    0.48032 
 1                    0     0.1501    2.74276   0.33309 
 1                    0     1.38572   0.50352  -1.73694 
 1                    0     2.02286   2.12266  -1.28833 
 1                    0     3.88189   0.47616  -1.77779 
 1                    0     3.94214   1.11908  -0.0984 
 1                    0     2.85262  -1.62449  -0.99194 
 1                    0     4.33791  -1.31536  -0.03372 
 1                    0     2.42233  -2.06617   1.41849 
 1                    0     2.97424  -0.4156    1.85771 
 1                    0    -1.39667  -1.89123  -1.03005 
 
 The following ModRedundant input section has been read:
 D       1       2       4      16 F                                           
 D       7      13      15      16 F                                           
 D       7       9      10      11 F                                           
 D       9      10      11      12 F                                           
 D       6       7      13      15 F                                           
 

 GradGradGradGradGradGradGradGradGradGradGradGradGradGradGradGradGradGrad
 Berny optimization.
 Initialization pass.
                           ----------------------------
                           !    Initial Parameters    !
                           ! (Angstroms and Degrees)  !
 --------------------------                            --------------------------
 ! Name  Definition              Value          Derivative Info.                !
 --------------------------------------------------------------------------------
 ! R1    R(1,2)                  1.229          estimate D2E/DX2                !
 ! R2    R(2,3)                  1.2309         estimate D2E/DX2                !
 ! R3    R(2,4)                  1.5073         estimate D2E/DX2                !
 ! R4    R(4,5)                  1.3962         estimate D2E/DX2                !
 ! R5    R(4,16)                 1.4819         estimate D2E/DX2                !
 ! R6    R(5,6)                  1.3701         estimate D2E/DX2                !
 ! R7    R(5,17)                 1.103          estimate D2E/DX2                !
 ! R8    R(6,7)                  1.4951         estimate D2E/DX2                !
 ! R9    R(6,18)                 1.0229         estimate D2E/DX2                !
 ! R10   R(7,8)                  1.1209         estimate D2E/DX2                !
 ! R11   R(7,9)                  1.5492         estimate D2E/DX2                !
 ! R12   R(7,13)                 1.537          estimate D2E/DX2                !
 ! R13   R(9,10)                 1.5407         estimate D2E/DX2                !
 ! R14   R(9,19)                 1.1108         estimate D2E/DX2                !
 ! R15   R(9,20)                 1.1107         estimate D2E/DX2                !
 ! R16   R(10,11)                1.5369         estimate D2E/DX2                !
 ! R17   R(10,21)                1.112          estimate D2E/DX2                !
 ! R18   R(10,22)                1.113          estimate D2E/DX2                !
 ! R19   R(11,12)                1.5439         estimate D2E/DX2                !
 ! R20   R(11,23)                1.1134         estimate D2E/DX2                !
 ! R21   R(11,24)                1.1119         estimate D2E/DX2                !
 ! R22   R(12,13)                1.5533         estimate D2E/DX2                !
 ! R23   R(12,25)                1.1121         estimate D2E/DX2                !
 ! R24   R(12,26)                1.1101         estimate D2E/DX2                !
 ! R25   R(13,14)                1.1153         estimate D2E/DX2                !
 ! R26   R(13,15)                1.4658         estimate D2E/DX2                !
 ! R27   R(15,16)                1.2923         estimate D2E/DX2                !
 ! R28   R(16,27)                1.1009         estimate D2E/DX2                !
 ! A1    A(1,2,3)              124.9884         estimate D2E/DX2                !
 ! A2    A(1,2,4)              117.0163         estimate D2E/DX2                !
 ! A3    A(3,2,4)              117.9953         estimate D2E/DX2                !
 ! A4    A(2,4,5)              115.6199         estimate D2E/DX2                !
 ! A5    A(2,4,16)             115.8364         estimate D2E/DX2                !
 ! A6    A(5,4,16)             128.4706         estimate D2E/DX2                !
 ! A7    A(4,5,6)              125.7255         estimate D2E/DX2                !
 ! A8    A(4,5,17)             118.0631         estimate D2E/DX2                !
 ! A9    A(6,5,17)             116.1545         estimate D2E/DX2                !
 ! A10   A(5,6,7)              129.0894         estimate D2E/DX2                !
 ! A11   A(5,6,18)             120.9812         estimate D2E/DX2                !
 ! A12   A(7,6,18)             107.2228         estimate D2E/DX2                !
 ! A13   A(6,7,8)              105.3115         estimate D2E/DX2                !
 ! A14   A(6,7,9)              114.9262         estimate D2E/DX2                !
 ! A15   A(6,7,13)             112.8356         estimate D2E/DX2                !
 ! A16   A(8,7,9)              106.1381         estimate D2E/DX2                !
 ! A17   A(8,7,13)             105.9518         estimate D2E/DX2                !
 ! A18   A(9,7,13)             110.87           estimate D2E/DX2                !
 ! A19   A(7,9,10)             109.4384         estimate D2E/DX2                !
 ! A20   A(7,9,19)             110.1341         estimate D2E/DX2                !
 ! A21   A(7,9,20)             110.175          estimate D2E/DX2                !
 ! A22   A(10,9,19)            109.9687         estimate D2E/DX2                !
 ! A23   A(10,9,20)            109.1336         estimate D2E/DX2                !
 ! A24   A(19,9,20)            107.9687         estimate D2E/DX2                !
 ! A25   A(9,10,11)            111.1885         estimate D2E/DX2                !
 ! A26   A(9,10,21)            109.9432         estimate D2E/DX2                !
 ! A27   A(9,10,22)            109.1452         estimate D2E/DX2                !
 ! A28   A(11,10,21)           109.7842         estimate D2E/DX2                !
 ! A29   A(11,10,22)           108.7766         estimate D2E/DX2                !
 ! A30   A(21,10,22)           107.9318         estimate D2E/DX2                !
 ! A31   A(10,11,12)           111.4167         estimate D2E/DX2                !
 ! A32   A(10,11,23)           109.0047         estimate D2E/DX2                !
 ! A33   A(10,11,24)           109.8542         estimate D2E/DX2                !
 ! A34   A(12,11,23)           109.2548         estimate D2E/DX2                !
 ! A35   A(12,11,24)           109.7372         estimate D2E/DX2                !
 ! A36   A(23,11,24)           107.4836         estimate D2E/DX2                !
 ! A37   A(11,12,13)           111.5293         estimate D2E/DX2                !
 ! A38   A(11,12,25)           109.2163         estimate D2E/DX2                !
 ! A39   A(11,12,26)           109.5025         estimate D2E/DX2                !
 ! A40   A(13,12,25)           109.2206         estimate D2E/DX2                !
 ! A41   A(13,12,26)           109.542          estimate D2E/DX2                !
 ! A42   A(25,12,26)           107.7498         estimate D2E/DX2                !
 ! A43   A(7,13,12)            105.7633         estimate D2E/DX2                !
 ! A44   A(7,13,14)            110.9396         estimate D2E/DX2                !
 ! A45   A(7,13,15)            113.9242         estimate D2E/DX2                !
 ! A46   A(12,13,14)           107.7978         estimate D2E/DX2                !
 ! A47   A(12,13,15)           108.3714         estimate D2E/DX2                !
 ! A48   A(14,13,15)           109.7666         estimate D2E/DX2                !
 ! A49   A(13,15,16)           119.5973         estimate D2E/DX2                !
 ! A50   A(4,16,15)            128.8224         estimate D2E/DX2                !
 ! A51   A(4,16,27)            113.2306         estimate D2E/DX2                !
 ! A52   A(15,16,27)           117.946          estimate D2E/DX2                !
 ! D1    D(1,2,4,5)           -142.8413         estimate D2E/DX2                !
 ! D2    D(1,2,4,16)            39.9998         Frozen                          !
 ! D3    D(3,2,4,5)             37.2745         estimate D2E/DX2                !
 ! D4    D(3,2,4,16)          -139.8844         estimate D2E/DX2                !
 ! D5    D(2,4,5,6)            176.4753         estimate D2E/DX2                !
 ! D6    D(2,4,5,17)            -0.6681         estimate D2E/DX2                !
 ! D7    D(16,4,5,6)            -6.7912         estimate D2E/DX2                !
 ! D8    D(16,4,5,17)          176.0655         estimate D2E/DX2                !
 ! D9    D(2,4,16,15)         -159.2576         estimate D2E/DX2                !
 ! D10   D(2,4,16,27)           21.108          estimate D2E/DX2                !
 ! D11   D(5,4,16,15)           24.0148         estimate D2E/DX2                !
 ! D12   D(5,4,16,27)         -155.6195         estimate D2E/DX2                !
 ! D13   D(4,5,6,7)             -3.283          estimate D2E/DX2                !
 ! D14   D(4,5,6,18)           155.5792         estimate D2E/DX2                !
 ! D15   D(17,5,6,7)           173.9087         estimate D2E/DX2                !
 ! D16   D(17,5,6,18)          -27.2291         estimate D2E/DX2                !
 ! D17   D(5,6,7,8)           -145.5922         estimate D2E/DX2                !
 ! D18   D(5,6,7,9)             97.983          estimate D2E/DX2                !
 ! D19   D(5,6,7,13)           -30.4755         estimate D2E/DX2                !
 ! D20   D(18,6,7,8)            53.2934         estimate D2E/DX2                !
 ! D21   D(18,6,7,9)           -63.1314         estimate D2E/DX2                !
 ! D22   D(18,6,7,13)          168.4101         estimate D2E/DX2                !
 ! D23   D(6,7,9,10)           168.6149         estimate D2E/DX2                !
 ! D24   D(6,7,9,19)           -70.3806         estimate D2E/DX2                !
 ! D25   D(6,7,9,20)            48.6165         estimate D2E/DX2                !
 ! D26   D(8,7,9,10)            52.6634         estimate D2E/DX2                !
 ! D27   D(8,7,9,19)           173.6679         estimate D2E/DX2                !
 ! D28   D(8,7,9,20)           -67.335          estimate D2E/DX2                !
 ! D29   D(13,7,9,10)          -61.9512         estimate D2E/DX2                !
 ! D30   D(13,7,9,19)           59.0533         estimate D2E/DX2                !
 ! D31   D(13,7,9,20)          178.0504         estimate D2E/DX2                !
 ! D32   D(6,7,13,12)         -166.0631         estimate D2E/DX2                !
 ! D33   D(6,7,13,14)          -49.4428         estimate D2E/DX2                !
 ! D34   D(6,7,13,15)           75.0222         Frozen                          !
 ! D35   D(8,7,13,12)          -51.332          estimate D2E/DX2                !
 ! D36   D(8,7,13,14)           65.2884         estimate D2E/DX2                !
 ! D37   D(8,7,13,15)         -170.2466         estimate D2E/DX2                !
 ! D38   D(9,7,13,12)           63.3993         estimate D2E/DX2                !
 ! D39   D(9,7,13,14)         -179.9804         estimate D2E/DX2                !
 ! D40   D(9,7,13,15)          -55.5154         estimate D2E/DX2                !
 ! D41   D(7,9,10,11)           54.8117         Frozen                          !
 ! D42   D(7,9,10,21)          176.6035         estimate D2E/DX2                !
 ! D43   D(7,9,10,22)          -65.1887         estimate D2E/DX2                !
 ! D44   D(19,9,10,11)         -66.2931         estimate D2E/DX2                !
 ! D45   D(19,9,10,21)          55.4988         estimate D2E/DX2                !
 ! D46   D(19,9,10,22)         173.7066         estimate D2E/DX2                !
 ! D47   D(20,9,10,11)         175.4462         estimate D2E/DX2                !
 ! D48   D(20,9,10,21)         -62.762          estimate D2E/DX2                !
 ! D49   D(20,9,10,22)          55.4458         estimate D2E/DX2                !
 ! D50   D(9,10,11,12)         -52.8223         Frozen                          !
 ! D51   D(9,10,11,23)          67.8245         estimate D2E/DX2                !
 ! D52   D(9,10,11,24)        -174.6463         estimate D2E/DX2                !
 ! D53   D(21,10,11,12)       -174.7065         estimate D2E/DX2                !
 ! D54   D(21,10,11,23)        -54.0598         estimate D2E/DX2                !
 ! D55   D(21,10,11,24)         63.4694         estimate D2E/DX2                !
 ! D56   D(22,10,11,12)         67.3965         estimate D2E/DX2                !
 ! D57   D(22,10,11,23)       -171.9567         estimate D2E/DX2                !
 ! D58   D(22,10,11,24)        -54.4275         estimate D2E/DX2                !
 ! D59   D(10,11,12,13)         56.6874         estimate D2E/DX2                !
 ! D60   D(10,11,12,25)        177.5036         estimate D2E/DX2                !
 ! D61   D(10,11,12,26)        -64.7249         estimate D2E/DX2                !
 ! D62   D(23,11,12,13)        -63.8125         estimate D2E/DX2                !
 ! D63   D(23,11,12,25)         57.0037         estimate D2E/DX2                !
 ! D64   D(23,11,12,26)        174.7752         estimate D2E/DX2                !
 ! D65   D(24,11,12,13)        178.5792         estimate D2E/DX2                !
 ! D66   D(24,11,12,25)        -60.6046         estimate D2E/DX2                !
 ! D67   D(24,11,12,26)         57.1669         estimate D2E/DX2                !
 ! D68   D(11,12,13,7)         -60.4902         estimate D2E/DX2                !
 ! D69   D(11,12,13,14)       -179.217          estimate D2E/DX2                !
 ! D70   D(11,12,13,15)         62.0404         estimate D2E/DX2                !
 ! D71   D(25,12,13,7)         178.6961         estimate D2E/DX2                !
 ! D72   D(25,12,13,14)         59.9694         estimate D2E/DX2                !
 ! D73   D(25,12,13,15)        -58.7732         estimate D2E/DX2                !
 ! D74   D(26,12,13,7)          60.8991         estimate D2E/DX2                !
 ! D75   D(26,12,13,14)        -57.8276         estimate D2E/DX2                !
 ! D76   D(26,12,13,15)       -176.5702         estimate D2E/DX2                !
 ! D77   D(7,13,15,16)         -67.1595         Frozen                          !
 ! D78   D(12,13,15,16)        175.4215         estimate D2E/DX2                !
 ! D79   D(14,13,15,16)         57.9321         estimate D2E/DX2                !
 ! D80   D(13,15,16,4)          10.8377         estimate D2E/DX2                !
 ! D81   D(13,15,16,27)       -169.5427         estimate D2E/DX2                !
 --------------------------------------------------------------------------------
 Trust Radius=3.00D-01 FncErr=1.00D-07 GrdErr=1.00D-07 EigMax=2.50D+02 EigMin=1.00D-04
 Number of steps in this run=     20 maximum allowed number of steps=    162.
 GradGradGradGradGradGradGradGradGradGradGradGradGradGradGradGradGradGrad

                          Input orientation:                          
 ---------------------------------------------------------------------
 Center     Atomic      Atomic             Coordinates (Angstroms)
 Number     Number       Type             X           Y           Z
 ---------------------------------------------------------------------
      1          8           0       -3.616750   -1.346770    0.313600
      2          7           0       -3.228920   -0.252920   -0.090850
      3          8           0       -3.958210    0.636830   -0.528640
      4          6           0       -1.744950    0.007080   -0.045210
      5          6           0       -1.370310    1.310010    0.288440
      6          7           0       -0.085280    1.754930    0.455850
      7          6           0        1.194430    0.984230    0.396330
      8          1           0        1.865970    1.466650    1.153140
      9          6           0        1.943100    1.065390   -0.957480
     10          6           0        3.358480    0.478430   -0.796660
     11          6           0        3.306630   -0.949810   -0.231410
     12          6           0        2.473470   -1.012390    1.066830
     13          6           0        1.032390   -0.476610    0.845690
     14          1           0        0.493190   -0.536410    1.820130
     15          7           0        0.367920   -1.332080   -0.141860
     16          6           0       -0.877570   -1.133360   -0.423330
     17          1           0       -2.168720    2.046500    0.480320
     18          1           0        0.150100    2.742760    0.333090
     19          1           0        1.385720    0.503520   -1.736940
     20          1           0        2.022860    2.122660   -1.288330
     21          1           0        3.881890    0.476160   -1.777790
     22          1           0        3.942140    1.119080   -0.098400
     23          1           0        2.852620   -1.624490   -0.991940
     24          1           0        4.337910   -1.315360   -0.033720
     25          1           0        2.422330   -2.066170    1.418490
     26          1           0        2.974240   -0.415600    1.857710
     27          1           0       -1.396670   -1.891230   -1.030050
 ---------------------------------------------------------------------
                    Distance matrix (angstroms):
                    1          2          3          4          5
     1  O    0.000000
     2  N    1.229024   0.000000
     3  O    2.181887   1.230926   0.000000
     4  C    2.337796   1.507266   2.351342   0.000000
     5  C    3.479311   2.457853   2.796072   1.396175   0.000000
     6  N    4.702346   3.769989   4.149573   2.461817   1.370139
     7  C    5.346761   4.618865   5.246518   3.128855   2.587598
     8  H    6.219355   5.519270   6.118665   4.074939   3.353468
     9  C    6.192422   5.407289   5.932371   3.943852   3.548358
    10  C    7.295058   6.665349   7.323311   5.179946   4.922441
    11  C    6.956134   6.574103   7.442021   5.144781   5.220230
    12  C    6.145726   5.868072   6.828760   4.480069   4.557859
    13  C    4.759706   4.368742   5.294773   2.956565   3.045572
    14  H    4.451733   4.193604   5.167995   2.963806   3.037758
    15  N    4.010643   3.755589   4.768816   2.503380   3.191746
    16  C    2.844594   2.532699   3.554575   1.481866   2.592193
    17  H    3.693084   2.595687   2.491474   2.148254   1.103039
    18  H    5.560017   4.535593   4.696353   3.349369   2.089596
    19  H    5.714280   4.957491   5.480451   3.592979   3.514014
    20  H    6.812366   5.887150   6.209510   4.496378   3.828865
    21  H    7.995410   7.344450   7.940614   5.906200   5.705280
    22  H    7.961594   7.301133   7.926740   5.795029   5.329937
    23  H    6.605627   6.299071   7.191357   4.969504   5.299415
    24  H    7.962301   7.641267   8.537072   6.224963   6.291274
    25  H    6.181327   6.123937   7.197834   4.879242   5.201896
    26  H    6.833191   6.504041   7.406831   5.105930   4.931070
    27  H    2.651525   2.631216   3.633729   2.166746   3.462232
                    6          7          8          9         10
     6  N    0.000000
     7  C    1.495051   0.000000
     8  H    2.092055   1.120918   0.000000
     9  C    2.566572   1.549160   2.149808   0.000000
    10  C    3.880427   2.522334   2.646863   1.540677   0.000000
    11  C    4.392380   2.931886   3.135564   2.539178   1.536901
    12  C    3.818188   2.464144   2.553849   2.948948   2.545267
    13  C    2.526051   1.536956   2.136736   2.541373   3.003350
    14  H    2.728759   2.198020   2.518263   3.518966   4.010907
    15  N    3.176835   2.517550   3.428421   2.982330   3.556706
    16  C    3.121362   3.073957   4.095402   3.616075   4.547677
    17  H    2.103885   3.527924   4.131300   4.465077   5.885530
    18  H    1.022879   2.046229   2.290229   2.773804   4.086224
    19  H    2.922019   2.195112   3.083962   1.110823   2.185529
    20  H    2.760732   2.195541   2.532931   1.110695   2.174652
    21  H    4.728936   3.493905   3.692608   2.186094   1.112016
    22  H    4.114804   2.795148   2.449008   2.176479   1.112950
    23  H    4.706148   3.388555   3.889729   2.839695   2.171705
    24  H    5.406567   3.918485   3.906239   3.500917   2.181523
    25  H    4.670716   3.443471   3.586191   3.959995   3.501179
    26  H    4.004632   2.694973   2.295114   3.343931   2.827120
    27  H    4.149955   4.125122   5.165897   4.461046   5.318008
                   11         12         13         14         15
    11  C    0.000000
    12  C    1.543858   0.000000
    13  C    2.560514   1.553279   0.000000
    14  H    3.506446   2.171526   1.115278   0.000000
    15  N    2.964821   2.448770   1.465812   2.120893   0.000000
    16  C    4.192619   3.669425   2.385305   2.696005   1.292269
    17  H    6.282029   5.590235   4.092271   3.943638   4.270416
    18  H    4.890543   4.476335   3.377209   3.616898   4.108204
    19  H    2.840543   3.367835   2.784865   3.811930   2.636214
    20  H    3.493597   3.946944   3.505892   4.367272   3.998556
    21  H    2.180735   3.505894   3.988743   5.045157   4.277147
    22  H    2.168380   2.838647   3.450243   4.279797   4.334181
    23  H    1.113429   2.181044   2.829797   3.828651   2.642324
    24  H    1.111866   2.186124   3.521836   4.338824   3.971498
    25  H    2.179545   1.112085   2.187861   2.494606   2.682197
    26  H    2.181808   1.110144   2.190591   2.484274   3.410443
    27  H    4.862626   4.488569   3.379332   3.678401   2.053122
                   16         17         18         19         20
    16  C    0.000000
    17  H    3.548966   0.000000
    18  H    4.080758   2.425568   0.000000
    19  H    3.086653   4.464423   3.290285   0.000000
    20  H    4.445490   4.550084   2.553577   1.796890   0.000000
    21  H    5.203612   6.646421   4.849696   2.496654   2.531112
    22  H    5.329978   6.207869   4.147540   3.098227   2.471182
    23  H    3.805108   6.391993   5.303979   2.689841   3.849348
    24  H    5.233178   7.341837   5.842999   3.863251   4.330529
    25  H    3.892528   6.234738   5.428345   4.199358   5.003274
    26  H    4.533736   5.865934   4.502829   4.036048   4.152765
    27  H    1.100882   4.287540   5.071934   3.738478   5.279319
                   21         22         23         24         25
    21  H    0.000000
    22  H    1.799257   0.000000
    23  H    2.467729   3.084257   0.000000
    24  H    2.541511   2.467249   1.794389   0.000000
    25  H    4.337045   3.841431   2.488052   2.518348   0.000000
    26  H    3.851743   2.668040   3.097856   2.499334   1.794965
    27  H    5.833253   6.199422   4.257824   5.848907   4.539902
                   26         27
    26  H    0.000000
    27  H    5.442563   0.000000
 Symmetry turned off by external request.
 Stoichiometry    C9H13N3O2
 Framework group  C1[X(C9H13N3O2)]
 Deg. of freedom    75
 Full point group                 C1      NOp   1
 Rotational constants (GHZ):           1.6652257           0.4038551           0.3594743
 Standard basis: 6-31G(d) (6D, 7F)
   236 basis functions,   444 primitive gaussians,   236 cartesian basis functions
    52 alpha electrons       52 beta electrons
       nuclear repulsion energy       918.9497089897 Hartrees.
 NAtoms=   27 NActive=   27 NUniq=   27 SFac= 1.00D+00 NAtFMM=   60 NAOKFM=F Big=F
 Integral buffers will be    131072 words long.
 Raffenetti 1 integral format.
 Two-electron integral symmetry is turned off.
 One-electron integrals computed using PRISM.
 NBasis=   236 RedAO= T EigKep=  1.71D-03  NBF=   236
 NBsUse=   236 1.00D-06 EigRej= -1.00D+00 NBFU=   236
 ExpMin= 1.61D-01 ExpMax= 5.48D+03 ExpMxC= 8.25D+02 IAcc=3 IRadAn=         5 AccDes= 0.00D+00
 Harris functional with IExCor=  205 and IRadAn=       5 diagonalized for initial guess.
 HarFok:  IExCor=  205 AccDes= 0.00D+00 IRadAn=         5 IDoV= 1 UseB2=F ITyADJ=14
 ICtDFT=  3500011 ScaDFX=  1.000000  1.000000  1.000000  1.000000
 FoFCou: FMM=F IPFlag=           0 FMFlag=      100000 FMFlg1=           0
         NFxFlg=           0 DoJE=T BraDBF=F KetDBF=T FulRan=T
         wScrn=  0.000000 ICntrl=       500 IOpCl=  0 I1Cent=   200000004 NGrid=           0
         NMat0=    1 NMatS0=      1 NMatT0=    0 NMatD0=    1 NMtDS0=    0 NMtDT0=    0
 Symmetry not used in FoFCou.
 Keep R1 ints in memory in canonical form, NReq=397720213.
 Requested convergence on RMS density matrix=1.00D-08 within 128 cycles.
 Requested convergence on MAX density matrix=1.00D-06.
 Requested convergence on             energy=1.00D-06.
 No special actions if energy rises.
 SCF Done:  E(RHF) =  -661.278760987     A.U. after   17 cycles
            NFock= 17  Conv=0.49D-08     -V/T= 2.0036
 ExpMin= 1.61D-01 ExpMax= 5.48D+03 ExpMxC= 8.25D+02 IAcc=3 IRadAn=         5 AccDes= 0.00D+00
 HarFok:  IExCor=  205 AccDes= 0.00D+00 IRadAn=         5 IDoV=-2 UseB2=F ITyADJ=14
 ICtDFT= 12500011 ScaDFX=  1.000000  1.000000  1.000000  1.000000
 Range of M.O.s used for correlation:    15   236
 NBasis=   236 NAE=    52 NBE=    52 NFC=    14 NFV=     0
 NROrb=    222 NOA=    38 NOB=    38 NVA=   184 NVB=   184
 Fully direct method using O(ONN) memory.
 JobTyp=1 Pass  1:  I=  15 to  52 NPSUse=  4 ParTrn=T ParDer=T DoDerP=T.
 Spin components of T(2) and E(2):
     alpha-alpha T2 =       0.9187701100D-01 E2=     -0.2717638894D+00
     alpha-beta  T2 =       0.5001458567D+00 E2=     -0.1494366116D+01
     beta-beta   T2 =       0.9187701100D-01 E2=     -0.2717638894D+00
 ANorm=    0.1297651678D+01
 E2 =    -0.2037893895D+01 EUMP2 =    -0.66331665488127D+03
          IDoAtm=111111111111111111111111111
          Differentiating once with respect to electric field.
                with respect to dipole field.
          Differentiating once with respect to nuclear coordinates.
 Keep R1 ints in memory in canonical form, NReq=397723379.
          There are     1 degrees of freedom in the 1st order CPHF.  IDoFFX=0 NUNeed=     1.
 LinEq1:  Iter=  0 NonCon=     1 RMS=4.55D-03 Max=1.14D-01 NDo=     1
 AX will form     1 AO Fock derivatives at one time.
 LinEq1:  Iter=  1 NonCon=     1 RMS=1.53D-03 Max=2.88D-02 NDo=     1
 LinEq1:  Iter=  2 NonCon=     1 RMS=6.29D-04 Max=1.71D-02 NDo=     1
 LinEq1:  Iter=  3 NonCon=     1 RMS=2.87D-04 Max=7.65D-03 NDo=     1
 LinEq1:  Iter=  4 NonCon=     1 RMS=8.79D-05 Max=1.94D-03 NDo=     1
 LinEq1:  Iter=  5 NonCon=     1 RMS=3.58D-05 Max=1.65D-03 NDo=     1
 LinEq1:  Iter=  6 NonCon=     1 RMS=1.48D-05 Max=6.14D-04 NDo=     1
 LinEq1:  Iter=  7 NonCon=     1 RMS=5.62D-06 Max=1.00D-04 NDo=     1
 LinEq1:  Iter=  8 NonCon=     1 RMS=2.25D-06 Max=5.02D-05 NDo=     1
 LinEq1:  Iter=  9 NonCon=     1 RMS=7.90D-07 Max=1.90D-05 NDo=     1
 LinEq1:  Iter= 10 NonCon=     1 RMS=3.99D-07 Max=1.48D-05 NDo=     1
 LinEq1:  Iter= 11 NonCon=     1 RMS=1.54D-07 Max=5.82D-06 NDo=     1
 LinEq1:  Iter= 12 NonCon=     1 RMS=5.61D-08 Max=8.66D-07 NDo=     1
 LinEq1:  Iter= 13 NonCon=     1 RMS=1.70D-08 Max=3.14D-07 NDo=     1
 LinEq1:  Iter= 14 NonCon=     1 RMS=5.58D-09 Max=1.24D-07 NDo=     1
 LinEq1:  Iter= 15 NonCon=     1 RMS=2.14D-09 Max=4.80D-08 NDo=     1
 LinEq1:  Iter= 16 NonCon=     1 RMS=8.16D-10 Max=1.12D-08 NDo=     1
 LinEq1:  Iter= 17 NonCon=     1 RMS=2.67D-10 Max=3.52D-09 NDo=     1
 LinEq1:  Iter= 18 NonCon=     1 RMS=9.58D-11 Max=1.21D-09 NDo=     1
 LinEq1:  Iter= 19 NonCon=     0 RMS=3.22D-11 Max=5.05D-10 NDo=     1
 Linear equations converged to 1.000D-10 1.000D-09 after    19 iterations.
 End of Minotr F.D. properties file   721 does not exist.
 End of Minotr F.D. properties file   722 does not exist.
 End of Minotr F.D. properties file   788 does not exist.

 **********************************************************************

            Population analysis using the SCF Density.

 **********************************************************************

 Alpha  occ. eigenvalues --  -20.60125 -20.59805 -15.85086 -15.62994 -15.56796
 Alpha  occ. eigenvalues --  -11.35640 -11.30731 -11.29982 -11.29692 -11.27680
 Alpha  occ. eigenvalues --  -11.24527 -11.23814 -11.23351 -11.22808  -1.58759
 Alpha  occ. eigenvalues --   -1.38396  -1.28410  -1.22706  -1.13391  -1.08658
 Alpha  occ. eigenvalues --   -1.01758  -1.00689  -0.93704  -0.88975  -0.84842
 Alpha  occ. eigenvalues --   -0.81680  -0.78165  -0.77098  -0.74231  -0.71177
 Alpha  occ. eigenvalues --   -0.70908  -0.69270  -0.67117  -0.64460  -0.63180
 Alpha  occ. eigenvalues --   -0.61675  -0.60392  -0.57392  -0.56421  -0.54830
 Alpha  occ. eigenvalues --   -0.53648  -0.50694  -0.50028  -0.48624  -0.47890
 Alpha  occ. eigenvalues --   -0.47624  -0.46172  -0.45614  -0.44015  -0.42076
 Alpha  occ. eigenvalues --   -0.39928  -0.33391
 Alpha virt. eigenvalues --    0.07907   0.11284   0.18276   0.21195   0.23258
 Alpha virt. eigenvalues --    0.24226   0.25809   0.27779   0.28637   0.28817
 Alpha virt. eigenvalues --    0.29250   0.30872   0.31895   0.32343   0.33356
 Alpha virt. eigenvalues --    0.33845   0.34764   0.35929   0.37659   0.38684
 Alpha virt. eigenvalues --    0.40709   0.41689   0.44565   0.45182   0.45483
 Alpha virt. eigenvalues --    0.46971   0.48765   0.53349   0.57487   0.58479
 Alpha virt. eigenvalues --    0.63166   0.68888   0.69281   0.72217   0.74114
 Alpha virt. eigenvalues --    0.74689   0.75808   0.75930   0.77889   0.78981
 Alpha virt. eigenvalues --    0.80779   0.83158   0.84809   0.85361   0.88206
 Alpha virt. eigenvalues --    0.89213   0.89968   0.90742   0.91662   0.93690
 Alpha virt. eigenvalues --    0.94747   0.97194   0.98678   1.00569   1.01632
 Alpha virt. eigenvalues --    1.03521   1.05054   1.06537   1.07423   1.08316
 Alpha virt. eigenvalues --    1.10234   1.10542   1.11043   1.11816   1.13271
 Alpha virt. eigenvalues --    1.13320   1.13948   1.15085   1.15797   1.16788
 Alpha virt. eigenvalues --    1.17059   1.18698   1.19436   1.21033   1.21944
 Alpha virt. eigenvalues --    1.23176   1.23871   1.25698   1.26483   1.28011
 Alpha virt. eigenvalues --    1.31340   1.32145   1.35296   1.36349   1.36809
 Alpha virt. eigenvalues --    1.39851   1.41290   1.44279   1.47237   1.51257
 Alpha virt. eigenvalues --    1.52997   1.55381   1.60331   1.61491   1.66836
 Alpha virt. eigenvalues --    1.68247   1.71462   1.72985   1.73829   1.75390
 Alpha virt. eigenvalues --    1.77558   1.78225   1.84458   1.88679   1.90396
 Alpha virt. eigenvalues --    1.91960   1.96546   1.97336   1.99515   2.00070
 Alpha virt. eigenvalues --    2.02795   2.03996   2.05917   2.09735   2.12275
 Alpha virt. eigenvalues --    2.13680   2.15198   2.17872   2.18469   2.20316
 Alpha virt. eigenvalues --    2.20902   2.22383   2.24777   2.25771   2.26351
 Alpha virt. eigenvalues --    2.29647   2.32001   2.32864   2.34996   2.35477
 Alpha virt. eigenvalues --    2.38748   2.39688   2.40680   2.43333   2.45540
 Alpha virt. eigenvalues --    2.48560   2.50478   2.51405   2.56517   2.57876
 Alpha virt. eigenvalues --    2.60765   2.63226   2.65684   2.68416   2.69576
 Alpha virt. eigenvalues --    2.69831   2.70925   2.73591   2.75359   2.83677
 Alpha virt. eigenvalues --    2.85070   2.86866   2.88547   2.93238   2.94883
 Alpha virt. eigenvalues --    2.97182   2.98654   3.02509   3.04279   3.05905
 Alpha virt. eigenvalues --    3.07710   3.13232   3.18608   3.20527   3.25939
 Alpha virt. eigenvalues --    3.29167   3.33746   3.37486   3.42016   3.59582
 Alpha virt. eigenvalues --    4.08482   4.22433   4.23654   4.32654   4.43784
 Alpha virt. eigenvalues --    4.52745   4.59756   4.61115   4.71014   4.77002
 Alpha virt. eigenvalues --    4.96753   4.99315   5.03224   5.09936
          Condensed to atoms (all electrons):
               1          2          3          4          5          6
     1  O    8.291519   0.308848  -0.082407  -0.082150   0.002114  -0.000025
     2  N    0.308848   5.740477   0.299845   0.245652  -0.043516   0.001192
     3  O   -0.082407   0.299845   8.318438  -0.087155   0.009288   0.000336
     4  C   -0.082150   0.245652  -0.087155   5.252399   0.572584  -0.051636
     5  C    0.002114  -0.043516   0.009288   0.572584   4.653737   0.311686
     6  N   -0.000025   0.001192   0.000336  -0.051636   0.311686   7.182478
     7  C    0.000004  -0.000093  -0.000001   0.003860  -0.029860   0.202930
     8  H   -0.000000   0.000002  -0.000000  -0.000165   0.002373  -0.049142
     9  C   -0.000000  -0.000004   0.000000   0.000450   0.001822  -0.057430
    10  C   -0.000000   0.000000   0.000000  -0.000019  -0.000070   0.003376
    11  C   -0.000000  -0.000000  -0.000000  -0.000016   0.000017  -0.000155
    12  C   -0.000000   0.000001  -0.000000  -0.000103  -0.000150   0.003606
    13  C   -0.000025  -0.000029  -0.000000  -0.009708   0.000403  -0.045245
    14  H   -0.000008  -0.000050   0.000001   0.002460   0.004482  -0.005421
    15  N    0.000040   0.001956  -0.000029  -0.064424  -0.004144   0.002402
    16  C    0.005645  -0.025944   0.001341   0.316734  -0.034736  -0.001149
    17  H    0.000017  -0.002725   0.007774  -0.031646   0.381709  -0.031995
    18  H    0.000000  -0.000044   0.000010   0.001429  -0.024213   0.328395
    19  H    0.000000   0.000000   0.000000  -0.000868   0.000645   0.000610
    20  H   -0.000000  -0.000000   0.000000  -0.000028   0.000014  -0.001494
    21  H    0.000000  -0.000000  -0.000000   0.000000   0.000001  -0.000060
    22  H   -0.000000   0.000000  -0.000000  -0.000000  -0.000002  -0.000096
    23  H   -0.000000  -0.000000   0.000000   0.000024  -0.000001  -0.000023
    24  H   -0.000000   0.000000   0.000000   0.000000  -0.000000   0.000004
    25  H    0.000000  -0.000000   0.000000   0.000020  -0.000001  -0.000070
    26  H   -0.000000  -0.000000   0.000000   0.000005  -0.000001  -0.000068
    27  H    0.002975   0.000404  -0.000052  -0.073639   0.002139   0.000051
               7          8          9         10         11         12
     1  O    0.000004  -0.000000  -0.000000  -0.000000  -0.000000  -0.000000
     2  N   -0.000093   0.000002  -0.000004   0.000000  -0.000000   0.000001
     3  O   -0.000001  -0.000000   0.000000   0.000000  -0.000000  -0.000000
     4  C    0.003860  -0.000165   0.000450  -0.000019  -0.000016  -0.000103
     5  C   -0.029860   0.002373   0.001822  -0.000070   0.000017  -0.000150
     6  N    0.202930  -0.049142  -0.057430   0.003376  -0.000155   0.003606
     7  C    5.007085   0.416094   0.341365  -0.049450  -0.007694  -0.064173
     8  H    0.416094   0.547103  -0.060316   0.001319  -0.000287  -0.002995
     9  C    0.341365  -0.060316   5.180367   0.317998  -0.053128  -0.005993
    10  C   -0.049450   0.001319   0.317998   5.127295   0.332708  -0.060274
    11  C   -0.007694  -0.000287  -0.053128   0.332708   5.124348   0.330547
    12  C   -0.064173  -0.002995  -0.005993  -0.060274   0.330547   5.137462
    13  C    0.329909  -0.039574  -0.051494  -0.001538  -0.048015   0.367870
    14  H   -0.040427  -0.000947   0.003846  -0.000387   0.003947  -0.040673
    15  N   -0.058725   0.003994  -0.012598   0.001481  -0.007790  -0.074046
    16  C   -0.002426   0.000006  -0.000719  -0.000044   0.000008   0.002531
    17  H    0.001547  -0.000031  -0.000064   0.000001   0.000000   0.000001
    18  H   -0.029124  -0.002860   0.000830  -0.000119   0.000011  -0.000139
    19  H   -0.035122   0.004082   0.386362  -0.032839  -0.002243   0.000612
    20  H   -0.041573  -0.001807   0.397248  -0.037353   0.004134  -0.000363
    21  H    0.004051  -0.000080  -0.035833   0.400063  -0.035876   0.004222
    22  H   -0.004267   0.003523  -0.045620   0.395897  -0.045606  -0.001246
    23  H    0.000430   0.000034  -0.001993  -0.040135   0.396705  -0.036671
    24  H   -0.000143  -0.000099   0.004390  -0.038477   0.400296  -0.037877
    25  H    0.004990  -0.000003  -0.000376   0.004098  -0.033909   0.395402
    26  H   -0.004472   0.001561   0.001054  -0.002411  -0.042268   0.394660
    27  H   -0.000408   0.000009  -0.000057   0.000005   0.000005  -0.000024
              13         14         15         16         17         18
     1  O   -0.000025  -0.000008   0.000040   0.005645   0.000017   0.000000
     2  N   -0.000029  -0.000050   0.001956  -0.025944  -0.002725  -0.000044
     3  O   -0.000000   0.000001  -0.000029   0.001341   0.007774   0.000010
     4  C   -0.009708   0.002460  -0.064424   0.316734  -0.031646   0.001429
     5  C    0.000403   0.004482  -0.004144  -0.034736   0.381709  -0.024213
     6  N   -0.045245  -0.005421   0.002402  -0.001149  -0.031995   0.328395
     7  C    0.329909  -0.040427  -0.058725  -0.002426   0.001547  -0.029124
     8  H   -0.039574  -0.000947   0.003994   0.000006  -0.000031  -0.002860
     9  C   -0.051494   0.003846  -0.012598  -0.000719  -0.000064   0.000830
    10  C   -0.001538  -0.000387   0.001481  -0.000044   0.000001  -0.000119
    11  C   -0.048015   0.003947  -0.007790   0.000008   0.000000   0.000011
    12  C    0.367870  -0.040673  -0.074046   0.002531   0.000001  -0.000139
    13  C    5.020671   0.403597   0.244430  -0.070617  -0.000056   0.003744
    14  H    0.403597   0.516445  -0.036016  -0.004570   0.000054   0.000012
    15  N    0.244430  -0.036016   6.929261   0.596803  -0.000044  -0.000125
    16  C   -0.070617  -0.004570   0.596803   4.674879   0.001632  -0.000161
    17  H   -0.000056   0.000054  -0.000044   0.001632   0.398132  -0.002145
    18  H    0.003744   0.000012  -0.000125  -0.000161  -0.002145   0.326853
    19  H   -0.006148   0.000063   0.006834   0.002456   0.000011  -0.000125
    20  H    0.003879  -0.000050   0.000079  -0.000030  -0.000002   0.002775
    21  H   -0.000386   0.000009  -0.000032   0.000002  -0.000000  -0.000000
    22  H    0.000325  -0.000043   0.000004  -0.000001   0.000000   0.000002
    23  H   -0.005875   0.000007   0.006744   0.000076   0.000000   0.000000
    24  H    0.004150  -0.000059   0.000039   0.000005   0.000000  -0.000000
    25  H   -0.034495  -0.002662   0.000850  -0.000055  -0.000000   0.000002
    26  H   -0.044742  -0.000885   0.004167  -0.000053   0.000000  -0.000001
    27  H    0.004967  -0.000160  -0.037966   0.404786  -0.000063   0.000002
              19         20         21         22         23         24
     1  O    0.000000  -0.000000   0.000000  -0.000000  -0.000000  -0.000000
     2  N    0.000000  -0.000000  -0.000000   0.000000  -0.000000   0.000000
     3  O    0.000000   0.000000  -0.000000  -0.000000   0.000000   0.000000
     4  C   -0.000868  -0.000028   0.000000  -0.000000   0.000024   0.000000
     5  C    0.000645   0.000014   0.000001  -0.000002  -0.000001  -0.000000
     6  N    0.000610  -0.001494  -0.000060  -0.000096  -0.000023   0.000004
     7  C   -0.035122  -0.041573   0.004051  -0.004267   0.000430  -0.000143
     8  H    0.004082  -0.001807  -0.000080   0.003523   0.000034  -0.000099
     9  C    0.386362   0.397248  -0.035833  -0.045620  -0.001993   0.004390
    10  C   -0.032839  -0.037353   0.400063   0.395897  -0.040135  -0.038477
    11  C   -0.002243   0.004134  -0.035876  -0.045606   0.396705   0.400296
    12  C    0.000612  -0.000363   0.004222  -0.001246  -0.036671  -0.037877
    13  C   -0.006148   0.003879  -0.000386   0.000325  -0.005875   0.004150
    14  H    0.000063  -0.000050   0.000009  -0.000043   0.000007  -0.000059
    15  N    0.006834   0.000079  -0.000032   0.000004   0.006744   0.000039
    16  C    0.002456  -0.000030   0.000002  -0.000001   0.000076   0.000005
    17  H    0.000011  -0.000002  -0.000000   0.000000   0.000000   0.000000
    18  H   -0.000125   0.002775  -0.000000   0.000002   0.000000  -0.000000
    19  H    0.507543  -0.023903  -0.002593   0.003766   0.001647  -0.000071
    20  H   -0.023903   0.549326  -0.002633  -0.002950  -0.000050  -0.000090
    21  H   -0.002593  -0.002633   0.526534  -0.024725  -0.002820  -0.002068
    22  H    0.003766  -0.002950  -0.024725   0.569113   0.004065  -0.003592
    23  H    0.001647  -0.000050  -0.002820   0.004065   0.510189  -0.025020
    24  H   -0.000071  -0.000090  -0.002068  -0.003592  -0.025020   0.541273
    25  H   -0.000027   0.000011  -0.000086  -0.000082  -0.002083  -0.002388
    26  H    0.000023  -0.000035  -0.000073   0.002459   0.003820  -0.002755
    27  H    0.000082   0.000000  -0.000000   0.000000  -0.000021  -0.000000
              25         26         27
     1  O    0.000000  -0.000000   0.002975
     2  N   -0.000000  -0.000000   0.000404
     3  O    0.000000   0.000000  -0.000052
     4  C    0.000020   0.000005  -0.073639
     5  C   -0.000001  -0.000001   0.002139
     6  N   -0.000070  -0.000068   0.000051
     7  C    0.004990  -0.004472  -0.000408
     8  H   -0.000003   0.001561   0.000009
     9  C   -0.000376   0.001054  -0.000057
    10  C    0.004098  -0.002411   0.000005
    11  C   -0.033909  -0.042268   0.000005
    12  C    0.395402   0.394660  -0.000024
    13  C   -0.034495  -0.044742   0.004967
    14  H   -0.002662  -0.000885  -0.000160
    15  N    0.000850   0.004167  -0.037966
    16  C   -0.000055  -0.000053   0.404786
    17  H   -0.000000   0.000000  -0.000063
    18  H    0.000002  -0.000001   0.000002
    19  H   -0.000027   0.000023   0.000082
    20  H    0.000011  -0.000035   0.000000
    21  H   -0.000086  -0.000073  -0.000000
    22  H   -0.000082   0.002459   0.000000
    23  H   -0.002083   0.003820  -0.000021
    24  H   -0.002388  -0.002755  -0.000000
    25  H    0.510228  -0.023118  -0.000011
    26  H   -0.023118   0.560932   0.000001
    27  H   -0.000011   0.000001   0.468109
 Mulliken charges:
               1
     1  O   -0.446550
     2  N    0.474028
     3  O   -0.467388
     4  C    0.005939
     5  C    0.193678
     6  N   -0.793058
     7  C    0.055692
     8  H    0.178208
     9  C   -0.310108
    10  C   -0.321124
    11  C   -0.315737
    12  C   -0.312185
    13  C   -0.025997
    14  H    0.197436
    15  N   -0.503143
    16  C    0.133601
    17  H    0.277894
    18  H    0.394991
    19  H    0.189204
    20  H    0.154895
    21  H    0.172384
    22  H    0.149077
    23  H    0.190949
    24  H    0.162482
    25  H    0.183765
    26  H    0.152202
    27  H    0.228866
 Sum of Mulliken charges =  -0.00000
 Mulliken charges with hydrogens summed into heavy atoms:
               1
     1  O   -0.446550
     2  N    0.474028
     3  O   -0.467388
     4  C    0.005939
     5  C    0.471572
     6  N   -0.398067
     7  C    0.233900
     9  C    0.033991
    10  C    0.000337
    11  C    0.037694
    12  C    0.023782
    13  C    0.171439
    15  N   -0.503143
    16  C    0.362467
 Electronic spatial extent (au):  <R**2>=           3100.0874
 Charge=             -0.0000 electrons
 Dipole moment (field-independent basis, Debye):
    X=              5.0952    Y=              4.3375    Z=              0.7505  Tot=              6.7333
 Quadrupole moment (field-independent basis, Debye-Ang):
   XX=           -103.8479   YY=            -79.8113   ZZ=            -83.0316
   XY=             -1.6409   XZ=             -0.2374   YZ=              2.6330
 Traceless Quadrupole moment (field-independent basis, Debye-Ang):
   XX=            -14.9509   YY=              9.0856   ZZ=              5.8653
   XY=             -1.6409   XZ=             -0.2374   YZ=              2.6330
 Octapole moment (field-independent basis, Debye-Ang**2):
  XXX=             91.2434  YYY=             34.6754  ZZZ=             -3.5148  XYY=             -4.1777
  XXY=             11.5687  XXZ=              7.0678  XZZ=             -6.1044  YZZ=             -3.2313
  YYZ=              0.8657  XYZ=            -10.2207
 Hexadecapole moment (field-independent basis, Debye-Ang**3):
 XXXX=          -3484.1606 YYYY=           -612.8598 ZZZZ=           -309.8976 XXXY=            -38.7532
 XXXZ=            -22.9302 YYYX=            -11.5336 YYYZ=             31.7240 ZZZX=              4.3124
 ZZZY=             23.6566 XXYY=           -641.4837 XXZZ=           -548.6362 YYZZ=           -165.8810
 XXYZ=             39.7740 YYXZ=              9.6544 ZZXY=              5.0963
 N-N= 9.189497089897D+02 E-N=-3.383950053632D+03  KE= 6.589134529058D+02
 Calling FoFJK, ICntrl=  10002127 FMM=F ISym2X=0 I1Cent= 0 IOpClX= 0 NMat=1 NMatS=1 NMatT=0.
 -------------------------------------------------------------------
 Center     Atomic                   Forces (Hartrees/Bohr)
 Number     Number              X              Y              Z
 -------------------------------------------------------------------
      1        8          -0.002543433   -0.020684341    0.004055604
      2        7           0.039792074    0.012167795    0.000488902
      3        8          -0.010576839    0.015424834   -0.004225668
      4        6          -0.000269614    0.010172820    0.007244031
      5        6           0.004470970   -0.018361244   -0.007929144
      6        7           0.016774927   -0.006240898   -0.005224524
      7        6          -0.005524364    0.005468847    0.002681928
      8        1          -0.010407326   -0.001642662   -0.007567255
      9        6          -0.003786077    0.000185684   -0.001980844
     10        6           0.002811992   -0.000920854    0.000804999
     11        6          -0.000854684   -0.004480413   -0.002386007
     12        6           0.000697165   -0.008925435   -0.003263837
     13        6           0.008563652   -0.001311336    0.003412859
     14        1           0.000746719    0.004326821   -0.010079379
     15        7           0.000307424   -0.002031407    0.002546939
     16        6          -0.017936999    0.010354211    0.007669538
     17        1           0.008698231   -0.005176590   -0.005369717
     18        1          -0.017508983   -0.002211429    0.005302695
     19        1           0.003154165    0.005721860    0.007707445
     20        1          -0.003232313   -0.007486471    0.002513503
     21        1          -0.004207857    0.002193183    0.009715172
     22        1          -0.004076052   -0.003846748   -0.007421706
     23        1           0.004037620    0.005924640    0.009366658
     24        1          -0.009410689    0.002607066   -0.001980589
     25        1          -0.000856448    0.010649222   -0.002230751
     26        1          -0.004846221   -0.004702160   -0.004435961
     27        1           0.005982960    0.002825004    0.000585107
 -------------------------------------------------------------------
 Cartesian Forces:  Max     0.039792074 RMS     0.008517824

 GradGradGradGradGradGradGradGradGradGradGradGradGradGradGradGradGradGrad
 Berny optimization.
 FormGI is forming the generalized inverse of G from B-inverse, IUseBI=4.
 Internal  Forces:  Max     0.032244275 RMS     0.006454173
 Search for a local minimum.
 Step number   1 out of a maximum of   20
 All quantities printed in internal units (Hartrees-Bohrs-Radians)
 Mixed Optimization -- RFO/linear search
 Second derivative matrix not updated -- first step.
 ITU=  0
     Eigenvalues ---    0.00273   0.00771   0.01074   0.01162   0.01216
     Eigenvalues ---    0.01481   0.01536   0.01623   0.01990   0.02036
     Eigenvalues ---    0.02116   0.02682   0.03661   0.04508   0.04696
     Eigenvalues ---    0.04838   0.05075   0.05139   0.05303   0.05880
     Eigenvalues ---    0.06267   0.07212   0.07699   0.07719   0.07861
     Eigenvalues ---    0.07995   0.08043   0.08049   0.10458   0.11736
     Eigenvalues ---    0.12265   0.13392   0.15170   0.15621   0.15990
     Eigenvalues ---    0.16000   0.20095   0.22033   0.23252   0.24970
     Eigenvalues ---    0.25000   0.25000   0.25348   0.26183   0.26653
     Eigenvalues ---    0.27984   0.28082   0.28454   0.31471   0.31627
     Eigenvalues ---    0.31806   0.32047   0.32240   0.32290   0.32380
     Eigenvalues ---    0.32388   0.32403   0.32513   0.32527   0.32585
     Eigenvalues ---    0.33348   0.33585   0.33720   0.35302   0.43882
     Eigenvalues ---    0.44791   0.49432   0.67210   0.90702   0.91494
     Eigenvalues --- 1000.000001000.000001000.000001000.000001000.00000
     Eigenvalues --- 1000.000001000.000001000.000001000.000001000.00000
     Eigenvalues --- 1000.000001000.000001000.000001000.000001000.00000
     Eigenvalues --- 1000.000001000.000001000.000001000.000001000.00000
     Eigenvalues --- 1000.000001000.000001000.000001000.000001000.00000
     Eigenvalues --- 1000.000001000.000001000.000001000.000001000.00000
     Eigenvalues --- 1000.000001000.000001000.000001000.000001000.00000
     Eigenvalues --- 1000.000001000.000001000.000001000.000001000.00000
     Eigenvalues --- 1000.000001000.000001000.000001000.000001000.00000
     Eigenvalues --- 1000.000001000.000001000.000001000.000001000.00000
     Eigenvalues --- 1000.000001000.000001000.000001000.000001000.00000
     Eigenvalues --- 1000.000001000.000001000.000001000.000001000.00000
     Eigenvalues --- 1000.000001000.000001000.000001000.000001000.00000
     Eigenvalues --- 1000.000001000.000001000.000001000.000001000.00000
     Eigenvalues --- 1000.000001000.000001000.000001000.000001000.00000
     Eigenvalues --- 1000.000001000.000001000.000001000.000001000.00000
     Eigenvalues --- 1000.000001000.000001000.000001000.000001000.00000
     Eigenvalues --- 1000.000001000.000001000.000001000.000001000.00000
     Eigenvalues --- 1000.00000
 RFO step:  Lambda=-2.13086687D-02 EMin= 2.72875989D-03
 Linear search not attempted -- first point.
 Iteration  1 RMS(Cart)=  0.05187900 RMS(Int)=  0.00134735
 Iteration  2 RMS(Cart)=  0.00139776 RMS(Int)=  0.00031353
 Iteration  3 RMS(Cart)=  0.00000192 RMS(Int)=  0.00031352
 Iteration  4 RMS(Cart)=  0.00000000 RMS(Int)=  0.00031352
 Iteration  1 RMS(Cart)=  0.00003191 RMS(Int)=  0.00002346
 Iteration  2 RMS(Cart)=  0.00001577 RMS(Int)=  0.00002610
 Iteration  3 RMS(Cart)=  0.00000832 RMS(Int)=  0.00002895
 Iteration  4 RMS(Cart)=  0.00000476 RMS(Int)=  0.00003069
 Iteration  5 RMS(Cart)=  0.00000301 RMS(Int)=  0.00003171
 Iteration  6 RMS(Cart)=  0.00000213 RMS(Int)=  0.00003234
 Iteration  7 RMS(Cart)=  0.00000164 RMS(Int)=  0.00003277
 Iteration  8 RMS(Cart)=  0.00000136 RMS(Int)=  0.00003308
 Iteration  9 RMS(Cart)=  0.00000116 RMS(Int)=  0.00003333
 Iteration 10 RMS(Cart)=  0.00000100 RMS(Int)=  0.00003354
 Iteration 11 RMS(Cart)=  0.00000088 RMS(Int)=  0.00003372
 Variable       Old X    -DE/DX   Delta X   Delta X   Delta X     New X
                                 (Linear)    (Quad)   (Total)
    R1        2.32252   0.02055   0.00000   0.02195   0.02195   2.34446
    R2        2.32611   0.01892   0.00000   0.02038   0.02038   2.34649
    R3        2.84832  -0.02746   0.00000  -0.08135  -0.08135   2.76697
    R4        2.63839  -0.03224   0.00000  -0.06917  -0.06896   2.56942
    R5        2.80032  -0.02064   0.00000  -0.05911  -0.05895   2.74137
    R6        2.58919  -0.02224   0.00000  -0.04291  -0.04279   2.54639
    R7        2.08444  -0.01069   0.00000  -0.03012  -0.03012   2.05432
    R8        2.82524  -0.01990   0.00000  -0.05523  -0.05529   2.76994
    R9        1.93296  -0.00680   0.00000  -0.01478  -0.01478   1.91818
   R10        2.11823  -0.01205   0.00000  -0.03586  -0.03586   2.08236
   R11        2.92749  -0.01280   0.00000  -0.04394  -0.04396   2.88353
   R12        2.90443  -0.00404   0.00000  -0.00779  -0.00784   2.89658
   R13        2.91146  -0.00459   0.00000  -0.01437  -0.01439   2.89707
   R14        2.09915  -0.00989   0.00000  -0.02853  -0.02853   2.07062
   R15        2.09891  -0.00811   0.00000  -0.02339  -0.02339   2.07552
   R16        2.90432  -0.00191   0.00000  -0.00738  -0.00744   2.89688
   R17        2.10141  -0.01056   0.00000  -0.03058  -0.03058   2.07082
   R18        2.10317  -0.00901   0.00000  -0.02617  -0.02617   2.07700
   R19        2.91747  -0.00914   0.00000  -0.02923  -0.02922   2.88825
   R20        2.10408  -0.01163   0.00000  -0.03385  -0.03385   2.07023
   R21        2.10112  -0.00994   0.00000  -0.02878  -0.02878   2.07235
   R22        2.93527  -0.01058   0.00000  -0.03672  -0.03670   2.89857
   R23        2.10154  -0.01076   0.00000  -0.03117  -0.03117   2.07037
   R24        2.09787  -0.00787   0.00000  -0.02268  -0.02268   2.07519
   R25        2.10757  -0.00940   0.00000  -0.02750  -0.02750   2.08007
   R26        2.76998  -0.00594   0.00000  -0.01322  -0.01346   2.75652
   R27        2.44204  -0.00577   0.00000  -0.00814  -0.00819   2.43385
   R28        2.08037  -0.00509   0.00000  -0.01425  -0.01425   2.06612
    A1        2.18146   0.00382   0.00000   0.01414   0.01240   2.19386
    A2        2.04232  -0.00500   0.00000  -0.01837  -0.02010   2.02221
    A3        2.05941   0.00118   0.00000   0.00443   0.00270   2.06211
    A4        2.01795  -0.00382   0.00000  -0.01131  -0.01176   2.00619
    A5        2.02173  -0.00337   0.00000  -0.00964  -0.01012   2.01160
    A6        2.24224   0.00716   0.00000   0.01875   0.01875   2.26098
    A7        2.19432   0.00803   0.00000   0.02744   0.02777   2.22209
    A8        2.06059  -0.00266   0.00000  -0.00603  -0.00623   2.05436
    A9        2.02728  -0.00534   0.00000  -0.02079  -0.02101   2.00627
   A10        2.25304  -0.00656   0.00000  -0.02300  -0.02296   2.23008
   A11        2.11152  -0.01173   0.00000  -0.06993  -0.07021   2.04131
   A12        1.87139   0.01837   0.00000   0.09988   0.10002   1.97141
   A13        1.83803  -0.00186   0.00000  -0.01890  -0.01870   1.81934
   A14        2.00584  -0.00105   0.00000  -0.01300  -0.01296   1.99288
   A15        1.96935   0.00139   0.00000   0.00227   0.00169   1.97104
   A16        1.85246   0.00279   0.00000   0.02483   0.02463   1.87709
   A17        1.84921   0.00091   0.00000   0.01980   0.01972   1.86892
   A18        1.93505  -0.00187   0.00000  -0.01050  -0.01020   1.92485
   A19        1.91006   0.00034   0.00000  -0.00433  -0.00447   1.90559
   A20        1.92220  -0.00075   0.00000  -0.01355  -0.01352   1.90869
   A21        1.92292  -0.00176   0.00000  -0.00728  -0.00729   1.91563
   A22        1.91932  -0.00045   0.00000   0.00573   0.00567   1.92499
   A23        1.90474   0.00301   0.00000   0.02515   0.02517   1.92991
   A24        1.88441  -0.00037   0.00000  -0.00531  -0.00557   1.87884
   A25        1.94061  -0.00087   0.00000   0.00588   0.00573   1.94634
   A26        1.91887  -0.00064   0.00000  -0.00679  -0.00680   1.91207
   A27        1.90494   0.00026   0.00000  -0.00307  -0.00313   1.90182
   A28        1.91610   0.00073   0.00000   0.00724   0.00729   1.92339
   A29        1.89851   0.00175   0.00000   0.01133   0.01137   1.90988
   A30        1.88377  -0.00123   0.00000  -0.01510  -0.01519   1.86857
   A31        1.94459   0.00066   0.00000   0.00516   0.00534   1.94992
   A32        1.90249   0.00062   0.00000   0.00627   0.00619   1.90868
   A33        1.91732   0.00040   0.00000   0.00545   0.00542   1.92273
   A34        1.90686  -0.00122   0.00000  -0.01481  -0.01487   1.89198
   A35        1.91528  -0.00042   0.00000   0.00033   0.00022   1.91550
   A36        1.87594  -0.00006   0.00000  -0.00277  -0.00280   1.87314
   A37        1.94655  -0.00293   0.00000  -0.01865  -0.01869   1.92786
   A38        1.90618   0.00247   0.00000   0.01695   0.01678   1.92296
   A39        1.91118   0.00142   0.00000   0.01386   0.01386   1.92504
   A40        1.90626   0.00020   0.00000  -0.00327  -0.00309   1.90317
   A41        1.91187  -0.00026   0.00000  -0.00484  -0.00478   1.90709
   A42        1.88059  -0.00084   0.00000  -0.00355  -0.00375   1.87684
   A43        1.84592   0.00467   0.00000   0.02438   0.02444   1.87035
   A44        1.93626  -0.00435   0.00000  -0.03051  -0.03096   1.90530
   A45        1.98835   0.00119   0.00000   0.01372   0.01391   2.00227
   A46        1.88143   0.00229   0.00000   0.03119   0.03147   1.91289
   A47        1.89144  -0.00437   0.00000  -0.03084  -0.03091   1.86053
   A48        1.91579   0.00076   0.00000  -0.00555  -0.00532   1.91047
   A49        2.08737  -0.00671   0.00000  -0.01818  -0.01830   2.06907
   A50        2.24838  -0.00278   0.00000  -0.01358  -0.01375   2.23463
   A51        1.97625   0.00499   0.00000   0.02658   0.02604   2.00229
   A52        2.05855  -0.00223   0.00000  -0.01328  -0.01381   2.04474
    D1       -2.49305  -0.00405   0.00000  -0.04196  -0.04145  -2.53450
    D2        0.69813  -0.00374   0.00000   0.00000   0.00000   0.69813
    D3        0.65056  -0.00314   0.00000  -0.14497  -0.14463   0.50593
    D4       -2.44144  -0.00283   0.00000  -0.10301  -0.10318  -2.54462
    D5        3.08008   0.00006   0.00000   0.01719   0.01719   3.09727
    D6       -0.01166  -0.00057   0.00000   0.00204   0.00199  -0.00967
    D7       -0.11853  -0.00071   0.00000  -0.03218  -0.03263  -0.15115
    D8        3.07292  -0.00135   0.00000  -0.04733  -0.04783   3.02510
    D9       -2.77957  -0.00114   0.00000  -0.04432  -0.04493  -2.82450
   D10        0.36840   0.00113   0.00000   0.01048   0.01037   0.37878
   D11        0.41914  -0.00036   0.00000   0.00519   0.00506   0.42420
   D12       -2.71607   0.00191   0.00000   0.05998   0.06036  -2.65571
   D13       -0.05730   0.00020   0.00000   0.02708   0.02727  -0.03003
   D14        2.71537   0.00397   0.00000   0.07191   0.07128   2.78665
   D15        3.03528   0.00089   0.00000   0.04231   0.04244   3.07772
   D16       -0.47524   0.00465   0.00000   0.08714   0.08645  -0.38879
   D17       -2.54106  -0.00070   0.00000  -0.01597  -0.01555  -2.55661
   D18        1.71013  -0.00235   0.00000  -0.02706  -0.02669   1.68343
   D19       -0.53190  -0.00002   0.00000  -0.00239  -0.00230  -0.53420
   D20        0.93015   0.00032   0.00000  -0.03068  -0.03101   0.89913
   D21       -1.10185  -0.00132   0.00000  -0.04177  -0.04216  -1.14401
   D22        2.93931   0.00101   0.00000  -0.01710  -0.01776   2.92155
   D23        2.94289   0.00216   0.00000   0.02679   0.02672   2.96960
   D24       -1.22837   0.00135   0.00000   0.02255   0.02248  -1.20589
   D25        0.84852  -0.00067   0.00000   0.00302   0.00304   0.85156
   D26        0.91915   0.00319   0.00000   0.04085   0.04088   0.96003
   D27        3.03108   0.00237   0.00000   0.03661   0.03664   3.06772
   D28       -1.17522   0.00036   0.00000   0.01708   0.01720  -1.15802
   D29       -1.08125   0.00150   0.00000   0.00899   0.00895  -1.07231
   D30        1.03067   0.00068   0.00000   0.00475   0.00471   1.03538
   D31        3.10757  -0.00133   0.00000  -0.01478  -0.01473   3.09283
   D32       -2.89835  -0.00100   0.00000  -0.01406  -0.01380  -2.91215
   D33       -0.86294   0.00216   0.00000   0.02130   0.02116  -0.84178
   D34        1.30939   0.00061   0.00000   0.00000   0.00001   1.30939
   D35       -0.89591  -0.00198   0.00000  -0.02376  -0.02361  -0.91952
   D36        1.13950   0.00119   0.00000   0.01160   0.01135   1.15084
   D37       -2.97136  -0.00036   0.00000  -0.00970  -0.00980  -2.98117
   D38        1.10653   0.00089   0.00000   0.01124   0.01137   1.11790
   D39       -3.14125   0.00406   0.00000   0.04660   0.04633  -3.09492
   D40       -0.96893   0.00251   0.00000   0.02530   0.02518  -0.94375
   D41        0.95664   0.00074   0.00000   0.00000   0.00001   0.95666
   D42        3.08231   0.00066   0.00000   0.00845   0.00840   3.09071
   D43       -1.13776  -0.00106   0.00000  -0.01574  -0.01571  -1.15347
   D44       -1.15703   0.00174   0.00000   0.01591   0.01599  -1.14105
   D45        0.96864   0.00165   0.00000   0.02435   0.02438   0.99301
   D46        3.03175  -0.00006   0.00000   0.00016   0.00027   3.03202
   D47        3.06211   0.00065   0.00000   0.00392   0.00390   3.06601
   D48       -1.09540   0.00056   0.00000   0.01237   0.01229  -1.08312
   D49        0.96771  -0.00115   0.00000  -0.01182  -0.01182   0.95589
   D50       -0.92192  -0.00069   0.00000   0.00000   0.00001  -0.92191
   D51        1.18376  -0.00138   0.00000  -0.01107  -0.01108   1.17268
   D52       -3.04815  -0.00087   0.00000  -0.00760  -0.00765  -3.05580
   D53       -3.04920   0.00020   0.00000  -0.00027  -0.00024  -3.04945
   D54       -0.94352  -0.00049   0.00000  -0.01134  -0.01133  -0.95485
   D55        1.10775   0.00002   0.00000  -0.00787  -0.00790   1.09985
   D56        1.17629   0.00023   0.00000   0.00716   0.00720   1.18349
   D57       -3.00121  -0.00046   0.00000  -0.00390  -0.00389  -3.00510
   D58       -0.94994   0.00005   0.00000  -0.00044  -0.00045  -0.95039
   D59        0.98938  -0.00088   0.00000  -0.01171  -0.01178   0.97760
   D60        3.09802  -0.00085   0.00000  -0.01644  -0.01662   3.08140
   D61       -1.12966   0.00040   0.00000  -0.00279  -0.00278  -1.13244
   D62       -1.11374  -0.00127   0.00000  -0.01302  -0.01303  -1.12676
   D63        0.99490  -0.00124   0.00000  -0.01776  -0.01787   0.97703
   D64        3.05040   0.00001   0.00000  -0.00410  -0.00402   3.04638
   D65        3.11680  -0.00023   0.00000  -0.00115  -0.00116   3.11563
   D66       -1.05775  -0.00020   0.00000  -0.00589  -0.00601  -1.06376
   D67        0.99775   0.00105   0.00000   0.00776   0.00784   1.00559
   D68       -1.05575  -0.00008   0.00000  -0.00094  -0.00084  -1.05659
   D69       -3.12793   0.00141   0.00000   0.00629   0.00589  -3.12204
   D70        1.08281   0.00162   0.00000   0.01249   0.01234   1.09515
   D71        3.11884  -0.00143   0.00000  -0.00802  -0.00783   3.11100
   D72        1.04666   0.00005   0.00000  -0.00079  -0.00110   1.04556
   D73       -1.02579   0.00027   0.00000   0.00540   0.00534  -1.02044
   D74        1.06289  -0.00038   0.00000   0.00099   0.00122   1.06411
   D75       -1.00928   0.00110   0.00000   0.00823   0.00795  -1.00133
   D76       -3.08173   0.00132   0.00000   0.01442   0.01439  -3.06734
   D77       -1.17215   0.00390   0.00000   0.00000   0.00001  -1.17215
   D78        3.06168   0.00029   0.00000  -0.01804  -0.01784   3.04385
   D79        1.01111  -0.00037   0.00000  -0.03459  -0.03485   0.97625
   D80        0.18915   0.00070   0.00000   0.01032   0.01007   0.19922
   D81       -2.95908  -0.00164   0.00000  -0.04655  -0.04626  -3.00533
         Item               Value     Threshold  Converged?
 Maximum Force            0.031965     0.000450     NO 
 RMS     Force            0.006506     0.000300     NO 
 Maximum Displacement     0.213571     0.001800     NO 
 RMS     Displacement     0.052162     0.001200     NO 
 Predicted change in Energy=-1.214438D-02
 GradGradGradGradGradGradGradGradGradGradGradGradGradGradGradGradGradGrad

                          Input orientation:                          
 ---------------------------------------------------------------------
 Center     Atomic      Atomic             Coordinates (Angstroms)
 Number     Number       Type             X           Y           Z
 ---------------------------------------------------------------------
      1          8           0       -3.511423   -1.350337    0.269955
      2          7           0       -3.118349   -0.239462   -0.118153
      3          8           0       -3.845193    0.708508   -0.457118
      4          6           0       -1.674866   -0.008111   -0.035869
      5          6           0       -1.314897    1.267459    0.267567
      6          7           0       -0.067346    1.742423    0.451327
      7          6           0        1.193539    0.996511    0.403095
      8          1           0        1.832986    1.496575    1.148288
      9          6           0        1.911356    1.068462   -0.941497
     10          6           0        3.314399    0.467907   -0.796268
     11          6           0        3.260832   -0.955566   -0.229846
     12          6           0        2.454216   -1.018423    1.066847
     13          6           0        1.041568   -0.462730    0.846959
     14          1           0        0.480242   -0.496034    1.793215
     15          7           0        0.398538   -1.333865   -0.130491
     16          6           0       -0.844720   -1.139164   -0.404681
     17          1           0       -2.108794    1.996004    0.411561
     18          1           0        0.061881    2.744834    0.357441
     19          1           0        1.335954    0.513155   -1.690601
     20          1           0        1.971295    2.113224   -1.274928
     21          1           0        3.816425    0.468948   -1.770340
     22          1           0        3.908412    1.105709   -0.126656
     23          1           0        2.790288   -1.620452   -0.962425
     24          1           0        4.276102   -1.330614   -0.053263
     25          1           0        2.380542   -2.054191    1.416243
     26          1           0        2.953301   -0.438282    1.854416
     27          1           0       -1.338279   -1.881459   -1.037766
 ---------------------------------------------------------------------
                    Distance matrix (angstroms):
                    1          2          3          4          5
     1  O    0.000000
     2  N    1.240637   0.000000
     3  O    2.208819   1.241711   0.000000
     4  C    2.295221   1.464219   2.324072   0.000000
     5  C    3.417250   2.381603   2.690724   1.359681   0.000000
     6  N    4.632465   3.682498   4.020743   2.426077   1.347494
     7  C    5.259477   4.515718   5.119740   3.070783   2.526664
     8  H    6.118749   5.397538   5.953159   3.996416   3.276787
     9  C    6.060094   5.261796   5.788095   3.852293   3.451108
    10  C    7.143857   6.506955   7.171658   5.069277   4.816784
    11  C    6.802138   6.420221   7.301807   5.029554   5.111415
    12  C    6.027773   5.750173   6.707258   4.391586   4.479991
    13  C    4.674452   4.276236   5.191613   2.892244   2.980298
    14  H    4.357011   4.082770   5.022380   2.868468   2.942793
    15  N    3.930448   3.683255   4.720935   2.462840   3.140254
    16  C    2.758810   2.461900   3.524128   1.450670   2.542601
    17  H    3.631174   2.509403   2.329663   2.098801   1.087099
    18  H    5.435677   4.387035   4.480553   3.278672   2.021443
    19  H    5.550986   4.783287   5.329533   3.474895   3.380888
    20  H    6.666568   5.725185   6.039336   4.396570   3.727421
    21  H    7.821123   7.163984   7.777039   5.778430   5.578634
    22  H    7.825818   7.154364   7.770802   5.694017   5.240661
    23  H    6.426763   6.126330   7.050460   4.836915   5.167732
    24  H    7.794255   7.474807   8.383111   6.096174   6.173507
    25  H    6.043562   5.990444   7.064118   4.768795   5.099910
    26  H    6.718260   6.387135   7.271715   5.017784   4.862629
    27  H    2.591289   2.590462   3.650986   2.150934   3.408831
                    6          7          8          9         10
     6  N    0.000000
     7  C    1.465791   0.000000
     8  H    2.038985   1.101939   0.000000
     9  C    2.511861   1.525898   2.134625   0.000000
    10  C    3.823230   2.493179   2.652177   1.533065   0.000000
    11  C    4.338193   2.912889   3.154520   2.534605   1.532964
    12  C    3.789382   2.467758   2.591867   2.946732   2.533830
    13  C    2.499783   1.532806   2.134484   2.509911   2.955003
    14  H    2.666685   2.160768   2.493259   3.460402   3.958163
    15  N    3.165298   2.519403   3.421156   2.952545   3.491688
    16  C    3.104932   3.060737   4.065581   3.571798   4.475968
    17  H    2.057521   3.450285   4.041019   4.341971   5.762375
    18  H    1.015057   2.083115   2.306600   2.813898   4.134527
    19  H    2.840459   2.153481   3.045234   1.095724   2.171664
    20  H    2.696945   2.160490   2.504269   1.098316   2.177180
    21  H    4.652013   3.446981   3.675383   2.162334   1.095832
    22  H    4.067693   2.768230   2.466911   2.157217   1.099101
    23  H    4.633972   3.356001   3.884249   2.828995   2.159524
    24  H    5.344503   3.889211   3.924989   3.483754   2.170623
    25  H    4.619253   3.426693   3.602715   3.940816   3.482567
    26  H    3.981011   2.694759   2.344653   3.342612   2.824482
    27  H    4.118882   4.094984   5.123170   4.389923   5.217782
                   11         12         13         14         15
    11  C    0.000000
    12  C    1.528396   0.000000
    13  C    2.515459   1.533858   0.000000
    14  H    3.469241   2.167274   1.100725   0.000000
    15  N    2.888894   2.399778   1.458688   2.099829   0.000000
    16  C    4.113373   3.614271   2.362678   2.645730   1.287936
    17  H    6.160849   5.507925   4.019916   3.849978   4.203399
    18  H    4.926577   4.515377   3.389378   3.569272   4.121553
    19  H    2.827739   3.346605   2.734635   3.726618   2.593102
    20  H    3.488922   3.940094   3.464440   4.294761   3.957995
    21  H    2.170495   3.481023   3.926591   4.975966   4.197761
    22  H    2.163068   2.837442   3.409798   4.243093   4.274430
    23  H    1.095516   2.143205   2.769876   3.767516   2.548473
    24  H    1.096638   2.161337   3.467828   4.302855   3.878334
    25  H    2.165986   1.095591   2.156312   2.486182   2.615262
    26  H    2.169403   1.098142   2.161086   2.474491   3.356894
    27  H    4.760445   4.422357   3.350918   3.638801   2.034586
                   16         17         18         19         20
    16  C    0.000000
    17  H    3.477558   0.000000
    18  H    4.060566   2.296847   0.000000
    19  H    3.023093   4.299327   3.286050   0.000000
    20  H    4.389226   4.416460   2.590255   1.771063   0.000000
    21  H    5.116379   6.496216   4.878905   2.482147   2.520631
    22  H    5.263936   6.106478   4.209143   3.068320   2.466989
    23  H    3.708908   6.242403   5.314317   2.682836   3.835198
    24  H    5.136436   7.214524   5.876871   3.837295   4.320257
    25  H    3.815148   6.129242   5.433957   4.163521   4.977673
    26  H    4.474340   5.799344   4.553403   4.011009   4.155396
    27  H    1.093343   4.210577   5.030868   3.648546   5.192978
                   21         22         23         24         25
    21  H    0.000000
    22  H    1.765113   0.000000
    23  H    2.463996   3.062787   0.000000
    24  H    2.529443   2.465005   1.765850   0.000000
    25  H    4.310719   3.834043   2.452362   2.505226   0.000000
    26  H    3.834959   2.687153   3.059198   2.487026   1.769522
    27  H    5.712447   6.105822   4.137495   5.726600   4.458882
                   26         27
    26  H    0.000000
    27  H    5.372628   0.000000
 Symmetry turned off by external request.
 Stoichiometry    C9H13N3O2
 Framework group  C1[X(C9H13N3O2)]
 Deg. of freedom    75
 Full point group                 C1      NOp   1
 Rotational constants (GHZ):           1.6790691           0.4222626           0.3733207
 Standard basis: 6-31G(d) (6D, 7F)
   236 basis functions,   444 primitive gaussians,   236 cartesian basis functions
    52 alpha electrons       52 beta electrons
       nuclear repulsion energy       931.7292448693 Hartrees.
 NAtoms=   27 NActive=   27 NUniq=   27 SFac= 1.00D+00 NAtFMM=   60 NAOKFM=F Big=F
 Integral buffers will be    131072 words long.
 Raffenetti 1 integral format.
 Two-electron integral symmetry is turned off.
 One-electron integrals computed using PRISM.
 NBasis=   236 RedAO= T EigKep=  1.49D-03  NBF=   236
 NBsUse=   236 1.00D-06 EigRej= -1.00D+00 NBFU=   236
 Initial guess from the checkpoint file:  "/home/alexey/tmp/Gau-1053511.chk"
 B after Tr=     0.047463    0.003407    0.004328
         Rot=    0.999997   -0.002195   -0.000142    0.000911 Ang=  -0.27 deg.
 ExpMin= 1.61D-01 ExpMax= 5.48D+03 ExpMxC= 8.25D+02 IAcc=3 IRadAn=         5 AccDes= 0.00D+00
 Harris functional with IExCor=  205 and IRadAn=       5 diagonalized for initial guess.
 HarFok:  IExCor=  205 AccDes= 0.00D+00 IRadAn=         5 IDoV= 1 UseB2=F ITyADJ=14
 ICtDFT=  3500011 ScaDFX=  1.000000  1.000000  1.000000  1.000000
 FoFCou: FMM=F IPFlag=           0 FMFlag=      100000 FMFlg1=           0
         NFxFlg=           0 DoJE=T BraDBF=F KetDBF=T FulRan=T
         wScrn=  0.000000 ICntrl=       500 IOpCl=  0 I1Cent=   200000004 NGrid=           0
         NMat0=    1 NMatS0=      1 NMatT0=    0 NMatD0=    1 NMtDS0=    0 NMtDT0=    0
 Symmetry not used in FoFCou.
 Keep R1 ints in memory in canonical form, NReq=397720213.
 Requested convergence on RMS density matrix=1.00D-08 within 128 cycles.
 Requested convergence on MAX density matrix=1.00D-06.
 Requested convergence on             energy=1.00D-06.
 No special actions if energy rises.
 SCF Done:  E(RHF) =  -661.293594016     A.U. after   15 cycles
            NFock= 15  Conv=0.53D-08     -V/T= 2.0025
 ExpMin= 1.61D-01 ExpMax= 5.48D+03 ExpMxC= 8.25D+02 IAcc=3 IRadAn=         5 AccDes= 0.00D+00
 HarFok:  IExCor=  205 AccDes= 0.00D+00 IRadAn=         5 IDoV=-2 UseB2=F ITyADJ=14
 ICtDFT= 12500011 ScaDFX=  1.000000  1.000000  1.000000  1.000000
 Range of M.O.s used for correlation:    15   236
 NBasis=   236 NAE=    52 NBE=    52 NFC=    14 NFV=     0
 NROrb=    222 NOA=    38 NOB=    38 NVA=   184 NVB=   184
 Fully direct method using O(ONN) memory.
 JobTyp=1 Pass  1:  I=  15 to  52 NPSUse=  4 ParTrn=T ParDer=T DoDerP=T.
 Spin components of T(2) and E(2):
     alpha-alpha T2 =       0.9132685021D-01 E2=     -0.2724117687D+00
     alpha-beta  T2 =       0.4929325898D+00 E2=     -0.1489777087D+01
     beta-beta   T2 =       0.9132685021D-01 E2=     -0.2724117687D+00
 ANorm=    0.1294444394D+01
 E2 =    -0.2034600624D+01 EUMP2 =    -0.66332819464013D+03
          IDoAtm=111111111111111111111111111
          Differentiating once with respect to electric field.
                with respect to dipole field.
          Differentiating once with respect to nuclear coordinates.
 Keep R1 ints in memory in canonical form, NReq=397723379.
          There are     1 degrees of freedom in the 1st order CPHF.  IDoFFX=0 NUNeed=     1.
 LinEq1:  Iter=  0 NonCon=     1 RMS=4.53D-03 Max=9.99D-02 NDo=     1
 AX will form     1 AO Fock derivatives at one time.
 LinEq1:  Iter=  1 NonCon=     1 RMS=1.52D-03 Max=2.55D-02 NDo=     1
 LinEq1:  Iter=  2 NonCon=     1 RMS=6.42D-04 Max=1.71D-02 NDo=     1
 LinEq1:  Iter=  3 NonCon=     1 RMS=2.80D-04 Max=6.81D-03 NDo=     1
 LinEq1:  Iter=  4 NonCon=     1 RMS=8.70D-05 Max=1.73D-03 NDo=     1
 LinEq1:  Iter=  5 NonCon=     1 RMS=3.55D-05 Max=1.51D-03 NDo=     1
 LinEq1:  Iter=  6 NonCon=     1 RMS=1.39D-05 Max=5.38D-04 NDo=     1
 LinEq1:  Iter=  7 NonCon=     1 RMS=5.35D-06 Max=8.05D-05 NDo=     1
 LinEq1:  Iter=  8 NonCon=     1 RMS=2.15D-06 Max=4.93D-05 NDo=     1
[...]
    26  H    2.175699   1.098761   2.167500   2.498863   3.363012
    27  H    4.734032   4.420368   3.354922   3.643963   2.031776
                   16         17         18         19         20
    16  C    0.000000
    17  H    3.464413   0.000000
    18  H    4.097136   2.239903   0.000000
    19  H    2.993985   4.252489   3.518802   0.000000
    20  H    4.378301   4.398513   2.886843   1.768370   0.000000
    21  H    5.097997   6.474329   5.090196   2.499501   2.521003
    22  H    5.248766   6.088193   4.313673   3.070301   2.461652
    23  H    3.693607   6.222942   5.425463   2.704523   3.843091
    24  H    5.131685   7.201776   5.938221   3.849722   4.317131
    25  H    3.818311   6.123018   5.370236   4.172226   4.984935
    26  H    4.490676   5.814083   4.480304   4.033696   4.179297
    27  H    1.092207   4.205325   5.095387   3.605969   5.168214
                   21         22         23         24         25
    21  H    0.000000
    22  H    1.758871   0.000000
    23  H    2.469802   3.062335   0.000000
    24  H    2.517374   2.459756   1.764540   0.000000
    25  H    4.311969   3.838233   2.445021   2.519073   0.000000
    26  H    3.845254   2.701985   3.060573   2.492722   1.768019
    27  H    5.672855   6.074415   4.102162   5.703431   4.452480
                   26         27
    26  H    0.000000
    27  H    5.378398   0.000000
 Symmetry turned off by external request.
 Stoichiometry    C9H13N3O2
 Framework group  C1[X(C9H13N3O2)]
 Deg. of freedom    75
 Full point group                 C1      NOp   1
 Rotational constants (GHZ):           1.6646204           0.4219548           0.3743259

 **********************************************************************

            Population analysis using the SCF Density.

 **********************************************************************

 Alpha  occ. eigenvalues --  -20.59624 -20.59459 -15.84624 -15.63849 -15.56092
 Alpha  occ. eigenvalues --  -11.34949 -11.29879 -11.29524 -11.28525 -11.27092
 Alpha  occ. eigenvalues --  -11.23636 -11.23141 -11.22639 -11.22039  -1.57206
 Alpha  occ. eigenvalues --   -1.36907  -1.30763  -1.23117  -1.14733  -1.09860
 Alpha  occ. eigenvalues --   -1.02736  -1.01225  -0.94573  -0.89643  -0.85478
 Alpha  occ. eigenvalues --   -0.82541  -0.78541  -0.77573  -0.75181  -0.72005
 Alpha  occ. eigenvalues --   -0.70306  -0.68886  -0.67358  -0.65092  -0.63643
 Alpha  occ. eigenvalues --   -0.62436  -0.60248  -0.57625  -0.56941  -0.55101
 Alpha  occ. eigenvalues --   -0.54577  -0.50726  -0.50364  -0.48765  -0.48092
 Alpha  occ. eigenvalues --   -0.47644  -0.46194  -0.46010  -0.43595  -0.41666
 Alpha  occ. eigenvalues --   -0.39964  -0.33588
 Alpha virt. eigenvalues --    0.07696   0.11539   0.17350   0.21690   0.23847
 Alpha virt. eigenvalues --    0.25322   0.26961   0.28430   0.29070   0.29465
 Alpha virt. eigenvalues --    0.30008   0.31623   0.32029   0.32778   0.33900
 Alpha virt. eigenvalues --    0.34365   0.35776   0.37388   0.38643   0.40348
 Alpha virt. eigenvalues --    0.41577   0.42370   0.44954   0.45972   0.46790
 Alpha virt. eigenvalues --    0.47552   0.48836   0.53632   0.57416   0.58614
 Alpha virt. eigenvalues --    0.63125   0.69498   0.69871   0.72959   0.74238
 Alpha virt. eigenvalues --    0.75132   0.75806   0.76739   0.78728   0.79232
 Alpha virt. eigenvalues --    0.81483   0.84452   0.85387   0.85896   0.88569
 Alpha virt. eigenvalues --    0.89397   0.91014   0.91610   0.92706   0.94250
 Alpha virt. eigenvalues --    0.95428   0.97990   0.99209   1.01779   1.01922
 Alpha virt. eigenvalues --    1.03884   1.05876   1.06669   1.07940   1.08484
 Alpha virt. eigenvalues --    1.10772   1.11361   1.11818   1.11966   1.13878
 Alpha virt. eigenvalues --    1.14523   1.14996   1.15795   1.16380   1.18360
 Alpha virt. eigenvalues --    1.18598   1.19840   1.21188   1.22283   1.23458
 Alpha virt. eigenvalues --    1.24341   1.24788   1.26105   1.28160   1.29585
 Alpha virt. eigenvalues --    1.31525   1.33783   1.36898   1.37259   1.37904
 Alpha virt. eigenvalues --    1.39889   1.43187   1.44434   1.50867   1.53019
 Alpha virt. eigenvalues --    1.55437   1.57287   1.60894   1.63234   1.65972
 Alpha virt. eigenvalues --    1.68288   1.70222   1.73002   1.75033   1.76513
 Alpha virt. eigenvalues --    1.78172   1.82751   1.86361   1.90167   1.92261
 Alpha virt. eigenvalues --    1.92972   1.96096   1.99250   2.01437   2.02733
 Alpha virt. eigenvalues --    2.04943   2.05148   2.07678   2.10078   2.14105
 Alpha virt. eigenvalues --    2.15155   2.15256   2.19581   2.20467   2.21176
 Alpha virt. eigenvalues --    2.22441   2.24909   2.25951   2.28192   2.29742
 Alpha virt. eigenvalues --    2.31913   2.33449   2.33807   2.36938   2.37816
 Alpha virt. eigenvalues --    2.39462   2.40016   2.43142   2.45344   2.47610
 Alpha virt. eigenvalues --    2.50288   2.52536   2.54060   2.55258   2.62322
 Alpha virt. eigenvalues --    2.62733   2.65449   2.67201   2.70493   2.71707
 Alpha virt. eigenvalues --    2.72215   2.72652   2.74969   2.78165   2.85084
 Alpha virt. eigenvalues --    2.87064   2.89314   2.92079   2.95487   2.97211
 Alpha virt. eigenvalues --    3.00175   3.00984   3.02941   3.05252   3.08621
 Alpha virt. eigenvalues --    3.09329   3.15562   3.20325   3.21817   3.26053
 Alpha virt. eigenvalues --    3.32407   3.36652   3.38832   3.49269   3.64601
 Alpha virt. eigenvalues --    4.09902   4.23361   4.26973   4.36776   4.47058
 Alpha virt. eigenvalues --    4.55950   4.62149   4.63380   4.73587   4.78545
 Alpha virt. eigenvalues --    4.99010   5.00940   5.04945   5.11203
          Condensed to atoms (all electrons):
               1          2          3          4          5          6
     1  O    8.305272   0.296861  -0.077610  -0.084566   0.003481  -0.000025
     2  N    0.296861   5.781562   0.298768   0.243155  -0.050350   0.001436
     3  O   -0.077610   0.298768   8.330888  -0.089111   0.006999   0.000566
     4  C   -0.084566   0.243155  -0.089111   5.241903   0.562417  -0.048511
     5  C    0.003481  -0.050350   0.006999   0.562417   4.682866   0.318681
     6  N   -0.000025   0.001436   0.000566  -0.048511   0.318681   7.194656
     7  C    0.000005  -0.000124  -0.000002   0.005232  -0.031215   0.173187
     8  H   -0.000000   0.000002  -0.000000  -0.000277   0.003327  -0.050042
     9  C   -0.000000  -0.000004  -0.000000   0.000867   0.000597  -0.063027
    10  C    0.000000   0.000000   0.000000  -0.000043  -0.000055   0.003796
    11  C   -0.000000  -0.000000  -0.000000  -0.000025   0.000026  -0.000188
    12  C   -0.000000   0.000002  -0.000000  -0.000141  -0.000185   0.003821
    13  C   -0.000029  -0.000044  -0.000001  -0.011736  -0.000746  -0.047904
    14  H   -0.000011  -0.000091   0.000001   0.002447   0.005458  -0.006577
    15  N    0.000135   0.002602  -0.000032  -0.067161  -0.005411   0.002054
    16  C    0.002959  -0.025078   0.002021   0.317003  -0.041964  -0.002541
    17  H    0.000103  -0.005365   0.012180  -0.027596   0.380323  -0.033798
    18  H    0.000001  -0.000060   0.000009   0.001710  -0.030089   0.338000
    19  H    0.000000  -0.000005   0.000000  -0.001382   0.001242  -0.000338
    20  H   -0.000000  -0.000000   0.000000  -0.000073   0.000132  -0.000224
    21  H    0.000000   0.000000  -0.000000   0.000001   0.000001  -0.000079
    22  H   -0.000000   0.000000  -0.000000  -0.000000  -0.000003  -0.000115
    23  H   -0.000000  -0.000000   0.000000   0.000040  -0.000001  -0.000030
    24  H   -0.000000   0.000000   0.000000   0.000000  -0.000000   0.000006
    25  H    0.000000  -0.000000   0.000000   0.000023  -0.000000  -0.000089
    26  H   -0.000000  -0.000000   0.000000   0.000007  -0.000003  -0.000059
    27  H    0.004340  -0.000108   0.000011  -0.073367   0.002320   0.000030
               7          8          9         10         11         12
     1  O    0.000005  -0.000000  -0.000000   0.000000  -0.000000  -0.000000
     2  N   -0.000124   0.000002  -0.000004   0.000000  -0.000000   0.000002
     3  O   -0.000002  -0.000000  -0.000000   0.000000  -0.000000  -0.000000
     4  C    0.005232  -0.000277   0.000867  -0.000043  -0.000025  -0.000141
     5  C   -0.031215   0.003327   0.000597  -0.000055   0.000026  -0.000185
     6  N    0.173187  -0.050042  -0.063027   0.003796  -0.000188   0.003821
     7  C    5.018990   0.417862   0.351672  -0.054679  -0.008994  -0.060616
     8  H    0.417862   0.537994  -0.054742   0.000660  -0.000303  -0.002369
     9  C    0.351672  -0.054742   5.157308   0.324941  -0.050456  -0.005192
    10  C   -0.054679   0.000660   0.324941   5.119192   0.336965  -0.061181
    11  C   -0.008994  -0.000303  -0.050456   0.336965   5.120139   0.336008
    12  C   -0.060616  -0.002369  -0.005192  -0.061181   0.336008   5.118683
    13  C    0.336105  -0.037557  -0.061409  -0.000041  -0.050940   0.371133
    14  H   -0.046744  -0.000762   0.004423  -0.000402   0.004185  -0.036121
    15  N   -0.057818   0.003807  -0.014001   0.001569  -0.013144  -0.081836
    16  C   -0.002798   0.000050  -0.001330  -0.000035   0.000011   0.002944
    17  H    0.001831  -0.000060  -0.000063   0.000001   0.000000   0.000000
    18  H   -0.021504  -0.004601   0.001414  -0.000084   0.000004  -0.000113
    19  H   -0.037073   0.004347   0.390536  -0.032250  -0.002213   0.000680
    20  H   -0.042491  -0.002040   0.399497  -0.035261   0.003930  -0.000417
    21  H    0.004602  -0.000076  -0.036346   0.402344  -0.034953   0.004368
    22  H   -0.004869   0.003566  -0.046941   0.397757  -0.045393  -0.001059
    23  H    0.000570   0.000034  -0.001954  -0.039037   0.399254  -0.037914
    24  H   -0.000132  -0.000104   0.004388  -0.038432   0.402362  -0.038684
    25  H    0.005135  -0.000021  -0.000428   0.004199  -0.033436   0.398398
    26  H   -0.003955   0.001677   0.000982  -0.002261  -0.041454   0.396727
    27  H   -0.000428   0.000009  -0.000060   0.000007   0.000012  -0.000044
              13         14         15         16         17         18
     1  O   -0.000029  -0.000011   0.000135   0.002959   0.000103   0.000001
     2  N   -0.000044  -0.000091   0.002602  -0.025078  -0.005365  -0.000060
     3  O   -0.000001   0.000001  -0.000032   0.002021   0.012180   0.000009
     4  C   -0.011736   0.002447  -0.067161   0.317003  -0.027596   0.001710
     5  C   -0.000746   0.005458  -0.005411  -0.041964   0.380323  -0.030089
     6  N   -0.047904  -0.006577   0.002054  -0.002541  -0.033798   0.338000
     7  C    0.336105  -0.046744  -0.057818  -0.002798   0.001831  -0.021504
     8  H   -0.037557  -0.000762   0.003807   0.000050  -0.000060  -0.004601
     9  C   -0.061409   0.004423  -0.014001  -0.001330  -0.000063   0.001414
    10  C   -0.000041  -0.000402   0.001569  -0.000035   0.000001  -0.000084
    11  C   -0.050940   0.004185  -0.013144   0.000011   0.000000   0.000004
    12  C    0.371133  -0.036121  -0.081836   0.002944   0.000000  -0.000113
    13  C    5.040809   0.404023   0.249691  -0.072671  -0.000053   0.002907
    14  H    0.404023   0.525115  -0.037846  -0.004555   0.000080  -0.000121
    15  N    0.249691  -0.037846   6.951413   0.594832  -0.000049  -0.000137
    16  C   -0.072671  -0.004555   0.594832   4.700852   0.002124  -0.000187
    17  H   -0.000053   0.000080  -0.000049   0.002124   0.390924  -0.002953
    18  H    0.002907  -0.000121  -0.000137  -0.000187  -0.002953   0.311257
    19  H   -0.007410   0.000106   0.007458   0.003050   0.000016  -0.000152
    20  H    0.004374  -0.000066   0.000124  -0.000035  -0.000000   0.000772
    21  H   -0.000447   0.000010  -0.000043   0.000003  -0.000000   0.000001
    22  H    0.000061  -0.000054   0.000019  -0.000002   0.000000   0.000001
    23  H   -0.007508   0.000003   0.008497   0.000100   0.000000   0.000000
    24  H    0.004707  -0.000057   0.000130   0.000007   0.000000  -0.000000
    25  H   -0.035603  -0.002841   0.000396  -0.000015  -0.000000   0.000002
    26  H   -0.047311  -0.001021   0.004866  -0.000070   0.000000  -0.000000
    27  H    0.005343  -0.000169  -0.038299   0.406681  -0.000086   0.000001
              19         20         21         22         23         24
     1  O    0.000000  -0.000000   0.000000  -0.000000  -0.000000  -0.000000
     2  N   -0.000005  -0.000000   0.000000   0.000000  -0.000000   0.000000
     3  O    0.000000   0.000000  -0.000000  -0.000000   0.000000   0.000000
     4  C   -0.001382  -0.000073   0.000001  -0.000000   0.000040   0.000000
     5  C    0.001242   0.000132   0.000001  -0.000003  -0.000001  -0.000000
     6  N   -0.000338  -0.000224  -0.000079  -0.000115  -0.000030   0.000006
     7  C   -0.037073  -0.042491   0.004602  -0.004869   0.000570  -0.000132
     8  H    0.004347  -0.002040  -0.000076   0.003566   0.000034  -0.000104
     9  C    0.390536   0.399497  -0.036346  -0.046941  -0.001954   0.004388
    10  C   -0.032250  -0.035261   0.402344   0.397757  -0.039037  -0.038432
    11  C   -0.002213   0.003930  -0.034953  -0.045393   0.399254   0.402362
    12  C    0.000680  -0.000417   0.004368  -0.001059  -0.037914  -0.038684
    13  C   -0.007410   0.004374  -0.000447   0.000061  -0.007508   0.004707
    14  H    0.000106  -0.000066   0.000010  -0.000054   0.000003  -0.000057
    15  N    0.007458   0.000124  -0.000043   0.000019   0.008497   0.000130
    16  C    0.003050  -0.000035   0.000003  -0.000002   0.000100   0.000007
    17  H    0.000016  -0.000000  -0.000000   0.000000   0.000000   0.000000
    18  H   -0.000152   0.000772   0.000001   0.000001   0.000000  -0.000000
    19  H    0.505981  -0.024734  -0.002788   0.003970   0.001516  -0.000068
    20  H   -0.024734   0.540730  -0.002714  -0.002983  -0.000046  -0.000083
    21  H   -0.002788  -0.002714   0.524593  -0.027447  -0.002898  -0.002249
    22  H    0.003970  -0.002983  -0.027447   0.571497   0.004140  -0.003654
    23  H    0.001516  -0.000046  -0.002898   0.004140   0.499461  -0.025509
    24  H   -0.000068  -0.000083  -0.002249  -0.003654  -0.025509   0.538384
    25  H   -0.000029   0.000012  -0.000087  -0.000080  -0.002306  -0.002305
    26  H    0.000020  -0.000030  -0.000080   0.002384   0.004068  -0.003024
    27  H    0.000096   0.000000  -0.000000   0.000000  -0.000035  -0.000000
              25         26         27
     1  O    0.000000  -0.000000   0.004340
     2  N   -0.000000  -0.000000  -0.000108
     3  O    0.000000   0.000000   0.000011
     4  C    0.000023   0.000007  -0.073367
     5  C   -0.000000  -0.000003   0.002320
     6  N   -0.000089  -0.000059   0.000030
     7  C    0.005135  -0.003955  -0.000428
     8  H   -0.000021   0.001677   0.000009
     9  C   -0.000428   0.000982  -0.000060
    10  C    0.004199  -0.002261   0.000007
    11  C   -0.033436  -0.041454   0.000012
    12  C    0.398398   0.396727  -0.000044
    13  C   -0.035603  -0.047311   0.005343
    14  H   -0.002841  -0.001021  -0.000169
    15  N    0.000396   0.004866  -0.038299
    16  C   -0.000015  -0.000070   0.406681
    17  H   -0.000000   0.000000  -0.000086
    18  H    0.000002  -0.000000   0.000001
    19  H   -0.000029   0.000020   0.000096
    20  H    0.000012  -0.000030   0.000000
    21  H   -0.000087  -0.000080  -0.000000
    22  H   -0.000080   0.002384   0.000000
    23  H   -0.002306   0.004068  -0.000035
    24  H   -0.002305  -0.003024  -0.000000
    25  H    0.506083  -0.024093  -0.000013
    26  H   -0.024093   0.562329   0.000001
    27  H   -0.000013   0.000001   0.457740
 Mulliken charges:
               1
     1  O   -0.450916
     2  N    0.456844
     3  O   -0.484687
     4  C    0.029187
     5  C    0.192151
     6  N   -0.782686
     7  C    0.058251
     8  H    0.179618
     9  C   -0.300671
    10  C   -0.327668
    11  C   -0.321397
    12  C   -0.306891
    13  C   -0.037743
    14  H    0.191587
    15  N   -0.511816
    16  C    0.118644
    17  H    0.282440
    18  H    0.403925
    19  H    0.189422
    20  H    0.161628
    21  H    0.174285
    22  H    0.149204
    23  H    0.199554
    24  H    0.164317
    25  H    0.187097
    26  H    0.150302
    27  H    0.236019
 Sum of Mulliken charges =  -0.00000
 Mulliken charges with hydrogens summed into heavy atoms:
               1
     1  O   -0.450916
     2  N    0.456844
     3  O   -0.484687
     4  C    0.029187
     5  C    0.474591
     6  N   -0.378761
     7  C    0.237869
     9  C    0.050379
    10  C   -0.004180
    11  C    0.042475
    12  C    0.030508
    13  C    0.153844
    15  N   -0.511816
    16  C    0.354662
 Electronic spatial extent (au):  <R**2>=           2992.8710
 Charge=             -0.0000 electrons
 Dipole moment (field-independent basis, Debye):
    X=              5.1710    Y=              4.6921    Z=              1.4800  Tot=              7.1376
 Quadrupole moment (field-independent basis, Debye-Ang):
   XX=           -104.7448   YY=            -79.3003   ZZ=            -81.8739
   XY=             -1.8386   XZ=             -1.0762   YZ=              4.3018
 Traceless Quadrupole moment (field-independent basis, Debye-Ang):
   XX=            -16.1052   YY=              9.3394   ZZ=              6.7658
   XY=             -1.8386   XZ=             -1.0762   YZ=              4.3018
 Octapole moment (field-independent basis, Debye-Ang**2):
  XXX=             83.7417  YYY=             35.2353  ZZZ=             -0.1553  XYY=             -5.4957
  XXY=             10.7017  XXZ=             10.9221  XZZ=             -8.5037  YZZ=             -0.8862
  YYZ=              7.9932  XYZ=             -8.0917
 Hexadecapole moment (field-independent basis, Debye-Ang**3):
 XXXX=          -3323.6397 YYYY=           -604.0811 ZZZZ=           -310.3285 XXXY=            -27.6794
 XXXZ=            -52.7709 YYYX=             -6.9604 YYYZ=             44.3836 ZZZX=            -11.8918
 ZZZY=             23.3618 XXYY=           -622.0000 XXZZ=           -526.6765 YYZZ=           -157.7988
 XXYZ=             30.4430 YYXZ=              0.7821 ZZXY=              8.2614
 N-N= 9.314146116746D+02 E-N=-3.409520640098D+03  KE= 6.596202808830D+02
 Unable to Open any file for archive entry.
 1\1\GINC-LOTUS\FOpt\RMP2-FC\6-31G(d)\C9H13N3O2\ALEXEY\30-Jun-2023\0\\#
 MP2/6-31G* SCF=Tight Opt=(ModRedun, MaxCycle=20 ) NoSymm\\MolName:\\0,
 1\O,-3.5484020371,-1.3539348041,0.0962790654\N,-3.1033332948,-0.222052
 0175,-0.182855373\O,-3.8072901321,0.7340347534,-0.5642622273\C,-1.6804
 096081,-0.0269681569,0.0208982743\C,-1.3007902647,1.2612265631,0.28947
 51324\N,-0.0568257671,1.7438618088,0.4442336434\C,1.2030896239,1.01475
 20072,0.392406823\H,1.8588441242,1.5283855019,1.1112695209\C,1.8915460
 085,1.0513994838,-0.9710806209\C,3.2930405076,0.4451096602,-0.83522417
 4\C,3.2557284573,-0.9621822741,-0.2337229433\C,2.4768256466,-0.9976317
 715,1.0827443455\C,1.0620902902,-0.4461590623,0.8710831279\H,0.4950627
 485,-0.4449715651,1.8152942735\N,0.4086098893,-1.3285386776,-0.0912649
 479\C,-0.8426316206,-1.1434127689,-0.362290587\H,-2.0939189297,1.99698
 38526,0.3955680373\H,0.0032086771,2.7212940281,0.703130216\H,1.2896108
 796,0.4856058939,-1.6903676724\H,1.9505163762,2.0860100399,-1.33114278
 24\H,3.7853264942,0.4260487935,-1.8143139549\H,3.8990519985,1.10106917
 33,-0.1941157256\H,2.7711338959,-1.6476018367,-0.936073436\H,4.2777634
 477,-1.326463526,-0.0755281908\H,2.3997939285,-2.0260043151,1.45077540
 46\H,2.9933787822,-0.4102561278,1.8543902657\H,-1.3230101217,-1.898574
 6562,-0.9882954945\\Version=ES64L-G16RevC.02\HF=-661.2952823\MP2=-663.
 3318351\RMSD=9.677e-09\RMSF=1.595e-03\Dipole=1.9012725,1.6620331,0.543
 4368\PG=C01 [X(C9H13N3O2)]\\@
 The archive entry for this job was punched.


 LIFE IS SO UNCERTAIN - EAT DESSERT FIRST.
 Job cpu time:       0 days  1 hours 33 minutes 29.3 seconds.
 Elapsed time:       0 days  0 hours 28 minutes 11.7 seconds.
 File lengths (MBytes):  RWF=     36 Int=      0 D2E=      0 Chk=      7 Scr=      1
 Normal termination of Gaussian 16 at Fri Jun 30 02:16:55 2023.
