 Entering Gaussian System, Link 0=g16
 Initial command:
 /home/alexey/programs//g16/l1.exe "/home/alexey/tmp/Gau-1056183.inp" -scrdir="/home/alexey/tmp/"
 Entering Link 1 = /home/alexey/programs//g16/l1.exe PID=   1056185.
  
 Copyright (c) 1988-2021, Gaussian, Inc.  All Rights Reserved.
  
 This is part of the Gaussian(R) 16 program.  It is based on
 the Gaussian(R) 09 system (copyright 2009, Gaussian, Inc.),
 the Gaussian(R) 03 system (copyright 2003, Gaussian, Inc.),
 the Gaussian(R) 98 system (copyright 1998, Gaussian, Inc.),
 the Gaussian(R) 94 system (copyright 1995, Gaussian, Inc.),
 the Gaussian 92(TM) system (copyright 1992, Gaussian, Inc.),
 the Gaussian 90(TM) system (copyright 1990, Gaussian, Inc.),
 the Gaussian 88(TM) system (copyright 1988, Gaussian, Inc.),
 the Gaussian 86(TM) system (copyright 1986, Carnegie Mellon
 University), and the Gaussian 82(TM) system (copyright 1983,
 Carnegie Mellon University). Gaussian is a federally registered
 trademark of Gaussian, Inc.
  
 This software contains proprietary and confidential information,
 including trade secrets, belonging to Gaussian, Inc.
  
 This software is provided under written license and may be
 used, copied, transmitted, or stored only in accord with that
 written license.
  
 The following legend is applicable only to US Government
 contracts under FAR:
  
                    RESTRICTED RIGHTS LEGEND
  
 Use, reproduction and disclosure by the US Government is
 subject to restrictions as set forth in subparagraphs (a)
 and (c) of the Commercial Computer Software - Restricted
 Rights clause in FAR 52.227-19.
  
 Gaussian, Inc.
 340 Quinnipiac St., Bldg. 40, Wallingford CT 06492
  
  
 ---------------------------------------------------------------
 Warning -- This program may not be used in any manner that
 competes with the business of Gaussian, Inc. or will provide
 assistance to any competitor of Gaussian, Inc.  The licensee
 of this program is prohibited from giving any competitor of
 Gaussian, Inc. access to this program.  By using this program,
 the user acknowledges that Gaussian, Inc. is engaged in the
 business of creating and licensing software in the field of
 computational chemistry and represents and warrants to the
 licensee that it is not a competitor of Gaussian, Inc. and that
 it will not use this program in any manner prohibited above.
 ---------------------------------------------------------------
  

 Cite this work as:
 Gaussian 16, Revision C.02,
 M. J. Frisch, G. W. Trucks, H. B. Schlegel, G. E. Scuseria, 
 M. A. Robb, J. R. Cheeseman, G. Scalmani, V. Barone, 
 G. A. Petersson, H. Nakatsuji, X. Li, M. Caricato, A. V. Marenich, 
 J. Bloino, B. G. Janesko, R. Gomperts, B. Mennucci, H. P. Hratchian, 
 J. V. Ortiz, A. F. Izmaylov, J. L. Sonnenberg, D. Williams-Young, 
 F. Ding, F. Lipparini, F. Egidi, J. Goings, B. Peng, A. Petrone, 
 T. Henderson, D. Ranasinghe, V. G. Zakrzewski, J. Gao, N. Rega, 
 G. Zheng, W. Liang, M. Hada, M. Ehara, K. Toyota, R. Fukuda, 
 J. Hasegawa, M. Ishida, T. Nakajima, Y. Honda, O. Kitao, H. Nakai, 
 T. Vreven, K. Throssell, J. A. Montgomery, Jr., J. E. Peralta, 
 F. Ogliaro, M. J. Bearpark, J. J. Heyd, E. N. Brothers, K. N. Kudin, 
 V. N. Staroverov, T. A. Keith, R. Kobayashi, J. Normand, 
 K. Raghavachari, A. P. Rendell, J. C. Burant, S. S. Iyengar, 
 J. Tomasi, M. Cossi, J. M. Millam, M. Klene, C. Adamo, R. Cammi, 
 J. W. Ochterski, R. L. Martin, K. Morokuma, O. Farkas, 
 J. B. Foresman, and D. J. Fox, Gaussian, Inc., Wallingford CT, 2019.
 
 ******************************************
 Gaussian 16:  ES64L-G16RevC.02  7-Dec-2021
                30-Jun-2023 
 ******************************************
 %mem=8GB
 %NPROCS=4
 Will use up to    4 processors via shared memory.
 %NoSave
 ---------------------------------------------------------
 #MP2/6-31G* SCF=Tight Opt=(ModRedun, MaxCycle=20 ) NoSymm
 ---------------------------------------------------------
 1/6=20,18=120,19=15,38=1/1,3;
 2/9=110,12=2,15=1,17=6,18=5,40=1/2;
 3/5=1,6=6,7=1,11=9,25=1,30=1,71=1/1,2,3;
 4//1;
 5/5=2,32=2,38=5/2;
 8/6=4,10=2/1;
 9/15=2,16=-3/6;
 10/5=1,31=1/2;
 6/7=2,8=2,9=2,10=2/1;
 7/12=2,30=1/1,2,3,16;
 1/6=20,18=20,19=15/3(2);
 2/9=110,15=1/2;
 99//99;
 2/9=110,15=1/2;
 3/5=1,6=6,7=1,11=9,25=1,30=1,71=1/1,2,3;
 4/5=5,16=3,69=1/1;
 5/5=2,32=2,38=5/2;
 8/6=4,10=2/1;
 9/15=2,16=-3/6;
 10/5=1,31=1/2;
 7/12=2,30=1/1,2,3,16;
 1/6=20,18=20,19=15/3(-8);
 2/9=110,15=1/2;
 6/7=2,8=2,9=2,10=2/1;
 99/9=10/99;
 --------
 MolName:
 --------
 Symbolic Z-matrix:
 Charge =  0 Multiplicity = 1
 8                    0    -3.62881  -1.25806   0.45431 
 7                    0    -3.21638  -0.24865  -0.11166 
 8                    0    -3.91606   0.58133  -0.69101 
 6                    0    -1.74016   0.00477  -0.04748 
 6                    0    -1.37166   1.30716   0.28998 
 7                    0    -0.08811   1.7499    0.47206 
 6                    0     1.19225   0.98047   0.40504 
 1                    0     1.8653    1.45938   1.16268 
 6                    0     1.937     1.06984  -0.95042 
 6                    0     3.35365   0.48404  -0.79668 
 6                    0     3.30548  -0.94726  -0.23887 
 6                    0     2.47611  -1.01792   1.06135 
 6                    0     1.03355  -0.48357   0.8465 
 1                    0     0.49681  -0.54903   1.82194 
 7                    0     0.36775  -1.33629  -0.14312 
 6                    0    -0.87889  -1.13955  -0.42043 
 1                    0    -2.17339   2.04263   0.47191 
 1                    0     0.14759   2.73915   0.36212 
 1                    0     1.37814   0.51122  -1.73116 
 1                    0     2.01426   2.12895  -1.27597 
 1                    0     3.87426   0.48772  -1.77929 
 1                    0     3.93838   1.12183  -0.09671 
 1                    0     2.8504   -1.6186   -1.00171 
 1                    0     4.33787  -1.31226  -0.04599 
 1                    0     2.42773  -2.07355   1.4078 
 1                    0     2.97794  -0.42427   1.8539 
 1                    0    -1.401    -1.89937  -1.02207 
 
 The following ModRedundant input section has been read:
 D       1       2       4      16 F                                           
 D       7      13      15      16 F                                           
 D       7       9      10      11 F                                           
 D       9      10      11      12 F                                           
 D       6       7      13      15 F                                           
 

 GradGradGradGradGradGradGradGradGradGradGradGradGradGradGradGradGradGrad
 Berny optimization.
 Initialization pass.
                           ----------------------------
                           !    Initial Parameters    !
                           ! (Angstroms and Degrees)  !
 --------------------------                            --------------------------
 ! Name  Definition              Value          Derivative Info.                !
 --------------------------------------------------------------------------------
 ! R1    R(1,2)                  1.2285         estimate D2E/DX2                !
 ! R2    R(2,3)                  1.2305         estimate D2E/DX2                !
 ! R3    R(2,4)                  1.4992         estimate D2E/DX2                !
 ! R4    R(4,5)                  1.395          estimate D2E/DX2                !
 ! R5    R(4,16)                 1.48           estimate D2E/DX2                !
 ! R6    R(5,6)                  1.3699         estimate D2E/DX2                !
 ! R7    R(5,17)                 1.1031         estimate D2E/DX2                !
 ! R8    R(6,7)                  1.4953         estimate D2E/DX2                !
 ! R9    R(6,18)                 1.0229         estimate D2E/DX2                !
 ! R10   R(7,8)                  1.1209         estimate D2E/DX2                !
 ! R11   R(7,9)                  1.5492         estimate D2E/DX2                !
 ! R12   R(7,13)                 1.5374         estimate D2E/DX2                !
 ! R13   R(9,10)                 1.5407         estimate D2E/DX2                !
 ! R14   R(9,19)                 1.1108         estimate D2E/DX2                !
 ! R15   R(9,20)                 1.1107         estimate D2E/DX2                !
 ! R16   R(10,11)                1.5369         estimate D2E/DX2                !
 ! R17   R(10,21)                1.112          estimate D2E/DX2                !
 ! R18   R(10,22)                1.1129         estimate D2E/DX2                !
 ! R19   R(11,12)                1.5438         estimate D2E/DX2                !
 ! R20   R(11,23)                1.1134         estimate D2E/DX2                !
 ! R21   R(11,24)                1.1119         estimate D2E/DX2                !
 ! R22   R(12,13)                1.5533         estimate D2E/DX2                !
 ! R23   R(12,25)                1.1121         estimate D2E/DX2                !
 ! R24   R(12,26)                1.1101         estimate D2E/DX2                !
 ! R25   R(13,14)                1.1153         estimate D2E/DX2                !
 ! R26   R(13,15)                1.4662         estimate D2E/DX2                !
 ! R27   R(15,16)                1.2922         estimate D2E/DX2                !
 ! R28   R(16,27)                1.1009         estimate D2E/DX2                !
 ! A1    A(1,2,3)              125.466          estimate D2E/DX2                !
 ! A2    A(1,2,4)              116.7262         estimate D2E/DX2                !
 ! A3    A(3,2,4)              117.7783         estimate D2E/DX2                !
 ! A4    A(2,4,5)              115.3596         estimate D2E/DX2                !
 ! A5    A(2,4,16)             115.5655         estimate D2E/DX2                !
 ! A6    A(5,4,16)             128.9855         estimate D2E/DX2                !
 ! A7    A(4,5,6)              125.5497         estimate D2E/DX2                !
 ! A8    A(4,5,17)             118.0603         estimate D2E/DX2                !
 ! A9    A(6,5,17)             116.3328         estimate D2E/DX2                !
 ! A10   A(5,6,7)              129.0521         estimate D2E/DX2                !
 ! A11   A(5,6,18)             120.9429         estimate D2E/DX2                !
 ! A12   A(7,6,18)             107.1896         estimate D2E/DX2                !
 ! A13   A(6,7,8)              105.308          estimate D2E/DX2                !
 ! A14   A(6,7,9)              114.909          estimate D2E/DX2                !
 ! A15   A(6,7,13)             112.878          estimate D2E/DX2                !
 ! A16   A(8,7,9)              106.1467         estimate D2E/DX2                !
 ! A17   A(8,7,13)             105.9485         estimate D2E/DX2                !
 ! A18   A(9,7,13)             110.8433         estimate D2E/DX2                !
 ! A19   A(7,9,10)             109.4386         estimate D2E/DX2                !
 ! A20   A(7,9,19)             110.1262         estimate D2E/DX2                !
 ! A21   A(7,9,20)             110.1759         estimate D2E/DX2                !
 ! A22   A(10,9,19)            109.97           estimate D2E/DX2                !
 ! A23   A(10,9,20)            109.1382         estimate D2E/DX2                !
 ! A24   A(19,9,20)            107.9698         estimate D2E/DX2                !
 ! A25   A(9,10,11)            111.1919         estimate D2E/DX2                !
 ! A26   A(9,10,21)            109.9407         estimate D2E/DX2                !
 ! A27   A(9,10,22)            109.1451         estimate D2E/DX2                !
 ! A28   A(11,10,21)           109.7833         estimate D2E/DX2                !
 ! A29   A(11,10,22)           108.7771         estimate D2E/DX2                !
 ! A30   A(21,10,22)           107.9315         estimate D2E/DX2                !
 ! A31   A(10,11,12)           111.4158         estimate D2E/DX2                !
 ! A32   A(10,11,23)           109.0059         estimate D2E/DX2                !
 ! A33   A(10,11,24)           109.8511         estimate D2E/DX2                !
 ! A34   A(12,11,23)           109.2596         estimate D2E/DX2                !
 ! A35   A(12,11,24)           109.7361         estimate D2E/DX2                !
 ! A36   A(23,11,24)           107.4829         estimate D2E/DX2                !
 ! A37   A(11,12,13)           111.5112         estimate D2E/DX2                !
 ! A38   A(11,12,25)           109.2197         estimate D2E/DX2                !
 ! A39   A(11,12,26)           109.5086         estimate D2E/DX2                !
 ! A40   A(13,12,25)           109.2227         estimate D2E/DX2                !
 ! A41   A(13,12,26)           109.5489         estimate D2E/DX2                !
 ! A42   A(25,12,26)           107.7501         estimate D2E/DX2                !
 ! A43   A(7,13,12)            105.7509         estimate D2E/DX2                !
 ! A44   A(7,13,14)            110.899          estimate D2E/DX2                !
 ! A45   A(7,13,15)            114.0105         estimate D2E/DX2                !
 ! A46   A(12,13,14)           107.8055         estimate D2E/DX2                !
 ! A47   A(12,13,15)           108.3617         estimate D2E/DX2                !
 ! A48   A(14,13,15)           109.7336         estimate D2E/DX2                !
 ! A49   A(13,15,16)           119.6298         estimate D2E/DX2                !
 ! A50   A(4,16,15)            128.6882         estimate D2E/DX2                !
 ! A51   A(4,16,27)            113.2899         estimate D2E/DX2                !
 ! A52   A(15,16,27)           118.0187         estimate D2E/DX2                !
 ! D1    D(1,2,4,5)           -133.1252         estimate D2E/DX2                !
 ! D2    D(1,2,4,16)            50.0            Frozen                          !
 ! D3    D(3,2,4,5)             45.0076         estimate D2E/DX2                !
 ! D4    D(3,2,4,16)          -131.8672         estimate D2E/DX2                !
 ! D5    D(2,4,5,6)            176.5852         estimate D2E/DX2                !
 ! D6    D(2,4,5,17)            -0.5528         estimate D2E/DX2                !
 ! D7    D(16,4,5,6)            -7.0423         estimate D2E/DX2                !
 ! D8    D(16,4,5,17)          175.8196         estimate D2E/DX2                !
 ! D9    D(2,4,16,15)         -160.4834         estimate D2E/DX2                !
 ! D10   D(2,4,16,27)           20.1845         estimate D2E/DX2                !
 ! D11   D(5,4,16,15)           23.1504         estimate D2E/DX2                !
 ! D12   D(5,4,16,27)         -156.1817         estimate D2E/DX2                !
 ! D13   D(4,5,6,7)             -2.1655         estimate D2E/DX2                !
 ! D14   D(4,5,6,18)           156.2824         estimate D2E/DX2                !
 ! D15   D(17,5,6,7)           175.0166         estimate D2E/DX2                !
 ! D16   D(17,5,6,18)          -26.5355         estimate D2E/DX2                !
 ! D17   D(5,6,7,8)           -146.4455         estimate D2E/DX2                !
 ! D18   D(5,6,7,9)             97.1307         estimate D2E/DX2                !
 ! D19   D(5,6,7,13)           -31.3135         estimate D2E/DX2                !
 ! D20   D(18,6,7,8)            52.811          estimate D2E/DX2                !
 ! D21   D(18,6,7,9)           -63.6128         estimate D2E/DX2                !
 ! D22   D(18,6,7,13)          167.9429         estimate D2E/DX2                !
 ! D23   D(6,7,9,10)           168.5824         estimate D2E/DX2                !
 ! D24   D(6,7,9,19)           -70.4163         estimate D2E/DX2                !
 ! D25   D(6,7,9,20)            48.5777         estimate D2E/DX2                !
 ! D26   D(8,7,9,10)            52.6389         estimate D2E/DX2                !
 ! D27   D(8,7,9,19)           173.6402         estimate D2E/DX2                !
 ! D28   D(8,7,9,20)           -67.3658         estimate D2E/DX2                !
 ! D29   D(13,7,9,10)          -61.9633         estimate D2E/DX2                !
 ! D30   D(13,7,9,19)           59.0379         estimate D2E/DX2                !
 ! D31   D(13,7,9,20)          178.032          estimate D2E/DX2                !
 ! D32   D(6,7,13,12)         -166.0338         estimate D2E/DX2                !
 ! D33   D(6,7,13,14)          -49.4319         estimate D2E/DX2                !
 ! D34   D(6,7,13,15)           75.0227         Frozen                          !
 ! D35   D(8,7,13,12)          -51.2871         estimate D2E/DX2                !
 ! D36   D(8,7,13,14)           65.3147         estimate D2E/DX2                !
 ! D37   D(8,7,13,15)         -170.2306         estimate D2E/DX2                !
 ! D38   D(9,7,13,12)           63.4393         estimate D2E/DX2                !
 ! D39   D(9,7,13,14)         -179.9588         estimate D2E/DX2                !
 ! D40   D(9,7,13,15)          -55.5042         estimate D2E/DX2                !
 ! D41   D(7,9,10,11)           54.8126         Frozen                          !
 ! D42   D(7,9,10,21)          176.6038         estimate D2E/DX2                !
 ! D43   D(7,9,10,22)          -65.1903         estimate D2E/DX2                !
 ! D44   D(19,9,10,11)         -66.2833         estimate D2E/DX2                !
 ! D45   D(19,9,10,21)          55.5079         estimate D2E/DX2                !
 ! D46   D(19,9,10,22)         173.7137         estimate D2E/DX2                !
 ! D47   D(20,9,10,11)         175.4511         estimate D2E/DX2                !
 ! D48   D(20,9,10,21)         -62.7577         estimate D2E/DX2                !
 ! D49   D(20,9,10,22)          55.4482         estimate D2E/DX2                !
 ! D50   D(9,10,11,12)         -52.8228         Frozen                          !
 ! D51   D(9,10,11,23)          67.8302         estimate D2E/DX2                !
 ! D52   D(9,10,11,24)        -174.6426         estimate D2E/DX2                !
 ! D53   D(21,10,11,12)       -174.7055         estimate D2E/DX2                !
 ! D54   D(21,10,11,23)        -54.0526         estimate D2E/DX2                !
 ! D55   D(21,10,11,24)         63.4747         estimate D2E/DX2                !
 ! D56   D(22,10,11,12)         67.3982         estimate D2E/DX2                !
 ! D57   D(22,10,11,23)       -171.9488         estimate D2E/DX2                !
 ! D58   D(22,10,11,24)        -54.4216         estimate D2E/DX2                !
 ! D59   D(10,11,12,13)         56.7124         estimate D2E/DX2                !
 ! D60   D(10,11,12,25)        177.5218         estimate D2E/DX2                !
 ! D61   D(10,11,12,26)        -64.7008         estimate D2E/DX2                !
 ! D62   D(23,11,12,13)        -63.7916         estimate D2E/DX2                !
 ! D63   D(23,11,12,25)         57.0178         estimate D2E/DX2                !
 ! D64   D(23,11,12,26)        174.7953         estimate D2E/DX2                !
 ! D65   D(24,11,12,13)        178.5988         estimate D2E/DX2                !
 ! D66   D(24,11,12,25)        -60.5918         estimate D2E/DX2                !
 ! D67   D(24,11,12,26)         57.1857         estimate D2E/DX2                !
 ! D68   D(11,12,13,7)         -60.5367         estimate D2E/DX2                !
 ! D69   D(11,12,13,14)       -179.2137         estimate D2E/DX2                !
 ! D70   D(11,12,13,15)         62.0839         estimate D2E/DX2                !
 ! D71   D(25,12,13,7)         178.6556         estimate D2E/DX2                !
 ! D72   D(25,12,13,14)         59.9786         estimate D2E/DX2                !
 ! D73   D(25,12,13,15)        -58.7237         estimate D2E/DX2                !
 ! D74   D(26,12,13,7)          60.853          estimate D2E/DX2                !
 ! D75   D(26,12,13,14)        -57.8239         estimate D2E/DX2                !
 ! D76   D(26,12,13,15)       -176.5263         estimate D2E/DX2                !
 ! D77   D(7,13,15,16)         -67.1607         Frozen                          !
 ! D78   D(12,13,15,16)        175.3901         estimate D2E/DX2                !
 ! D79   D(14,13,15,16)         57.9156         estimate D2E/DX2                !
 ! D80   D(13,15,16,4)          11.6388         estimate D2E/DX2                !
 ! D81   D(13,15,16,27)       -169.0561         estimate D2E/DX2                !
 --------------------------------------------------------------------------------
 Trust Radius=3.00D-01 FncErr=1.00D-07 GrdErr=1.00D-07 EigMax=2.50D+02 EigMin=1.00D-04
 Number of steps in this run=     20 maximum allowed number of steps=    162.
 GradGradGradGradGradGradGradGradGradGradGradGradGradGradGradGradGradGrad

                          Input orientation:                          
 ---------------------------------------------------------------------
 Center     Atomic      Atomic             Coordinates (Angstroms)
 Number     Number       Type             X           Y           Z
 ---------------------------------------------------------------------
      1          8           0       -3.628810   -1.258060    0.454310
      2          7           0       -3.216380   -0.248650   -0.111660
      3          8           0       -3.916060    0.581330   -0.691010
      4          6           0       -1.740160    0.004770   -0.047480
      5          6           0       -1.371660    1.307160    0.289980
      6          7           0       -0.088110    1.749900    0.472060
      7          6           0        1.192250    0.980470    0.405040
      8          1           0        1.865300    1.459380    1.162680
      9          6           0        1.937000    1.069840   -0.950420
     10          6           0        3.353650    0.484040   -0.796680
     11          6           0        3.305480   -0.947260   -0.238870
     12          6           0        2.476110   -1.017920    1.061350
     13          6           0        1.033550   -0.483570    0.846500
     14          1           0        0.496810   -0.549030    1.821940
     15          7           0        0.367750   -1.336290   -0.143120
     16          6           0       -0.878890   -1.139550   -0.420430
     17          1           0       -2.173390    2.042630    0.471910
     18          1           0        0.147590    2.739150    0.362120
     19          1           0        1.378140    0.511220   -1.731160
     20          1           0        2.014260    2.128950   -1.275970
     21          1           0        3.874260    0.487720   -1.779290
     22          1           0        3.938380    1.121830   -0.096710
     23          1           0        2.850400   -1.618600   -1.001710
     24          1           0        4.337870   -1.312260   -0.045990
     25          1           0        2.427730   -2.073550    1.407800
     26          1           0        2.977940   -0.424270    1.853900
     27          1           0       -1.401000   -1.899370   -1.022070
 ---------------------------------------------------------------------
                    Distance matrix (angstroms):
                    1          2          3          4          5
     1  O    0.000000
     2  N    1.228548   0.000000
     3  O    2.185778   1.230474   0.000000
     4  C    2.326700   1.499189   2.341173   0.000000
     5  C    3.420831   2.446396   2.821904   1.394952   0.000000
     6  N    4.645933   3.757792   4.167912   2.458591   1.369917
     7  C    5.315643   4.605837   5.239797   3.123427   2.587199
     8  H    6.170212   5.510425   6.134432   4.071820   3.355993
     9  C    6.194403   5.385096   5.879137   3.933342   3.541489
    10  C    7.304426   6.646155   7.271129   5.170870   4.918019
    11  C    6.975778   6.560404   7.395381   5.138236   5.218978
    12  C    6.139724   5.862778   6.818226   4.477983   4.561397
    13  C    4.742494   4.362931   5.291180   2.954851   3.049830
    14  H    4.403848   4.197239   5.202504   2.967400   3.046887
    15  N    4.041724   3.745656   4.725302   2.500175   3.193893
    16  C    2.888127   2.520496   3.501292   1.479982   2.594975
    17  H    3.607369   2.584250   2.554345   2.147167   1.103080
    18  H    5.499762   4.524125   4.720013   3.347866   2.089000
    19  H    5.742489   4.930497   5.395867   3.579814   3.504273
    20  H    6.805141   5.862439   6.156785   4.485198   3.819947
    21  H    8.020772   7.321230   7.866524   5.895262   5.698512
    22  H    7.951721   7.284849   7.895414   5.787578   5.327326
    23  H    6.650575   6.282895   7.121882   4.961766   5.296633
    24  H    7.982558   7.629041   8.492885   6.219085   6.290705
    25  H    6.185131   6.123316   7.190067   4.879402   5.207119
    26  H    6.804646   6.501067   7.417212   5.104879   4.935860
    27  H    2.748475   2.617122   3.548098   2.165780   3.464704
                    6          7          8          9         10
     6  N    0.000000
     7  C    1.495271   0.000000
     8  H    2.092168   1.120879   0.000000
     9  C    2.566515   1.549165   2.149901   0.000000
    10  C    3.880440   2.522345   2.646803   1.540680   0.000000
    11  C    4.392783   2.931980   3.135343   2.539239   1.536910
    12  C    3.818811   2.464265   2.553502   2.949000   2.545238
    13  C    2.527195   1.537363   2.137015   2.541304   3.003194
    14  H    2.729356   2.197865   2.518154   3.518646   4.010728
    15  N    3.179752   2.519456   3.429802   2.983914   3.557575
    16  C    3.125827   3.076606   4.097713   3.618222   4.548846
    17  H    2.105726   3.529899   4.138642   4.456978   5.881045
    18  H    1.022867   2.045999   2.286752   2.776931   4.087439
    19  H    2.922053   2.195017   3.083933   1.110827   2.185551
    20  H    2.760298   2.195564   2.533284   1.110705   2.174721
    21  H    4.728853   3.493891   3.692591   2.186062   1.112012
    22  H    4.114680   2.795168   2.449013   2.176476   1.112944
    23  H    4.706764   3.388742   3.889597   2.839831   2.171726
    24  H    5.406894   3.918541   3.905954   3.500939   2.181494
    25  H    4.671598   3.443686   3.585806   3.960166   3.501189
    26  H    4.004642   2.694657   2.294317   3.343670   2.826970
    27  H    4.156113   4.129778   5.169434   4.468063   5.323358
                   11         12         13         14         15
    11  C    0.000000
    12  C    1.543833   0.000000
    13  C    2.560215   1.553277   0.000000
    14  H    3.506302   2.171632   1.115284   0.000000
    15  N    2.964923   2.448936   1.466209   2.120824   0.000000
    16  C    4.192719   3.669672   2.385969   2.696199   1.292176
    17  H    6.281932   5.597522   4.099569   3.958440   4.272324
    18  H    4.891122   4.475098   3.377199   3.614576   4.112536
    19  H    2.840552   3.367777   2.784364   3.811219   2.637433
    20  H    3.493693   3.947045   3.505985   4.367067   4.000279
    21  H    2.180727   3.505854   3.988460   5.044886   4.277812
    22  H    2.168388   2.838638   3.450361   4.279883   4.335194
    23  H    1.113427   2.181084   2.829332   3.828363   2.642050
    24  H    1.111871   2.186090   3.521618   4.338828   3.971381
    25  H    2.179563   1.112080   2.187883   2.494820   2.681869
    26  H    2.181854   1.110130   2.190667   2.484470   3.410713
    27  H    4.865272   4.488828   3.379804   3.676070   2.053799
                   16         17         18         19         20
    16  C    0.000000
    17  H    3.549404   0.000000
    18  H    4.087831   2.425725   0.000000
    19  H    3.088242   4.451078   3.295413   0.000000
    20  H    4.448074   4.538606   2.557370   1.796913   0.000000
    21  H    5.204512   6.637749   4.852076   2.496695   2.531120
    22  H    5.331484   6.206846   4.146847   3.098241   2.471271
    23  H    3.804600   6.388633   5.306147   2.689941   3.849478
    24  H    5.233032   7.343025   5.842852   3.863273   4.330582
    25  H    3.892110   6.244128   5.427206   4.199493   5.003457
    26  H    4.534241   5.876367   4.499279   4.035735   4.152553
    27  H    1.100861   4.285782   5.082320   3.746648   5.287327
                   21         22         23         24         25
    21  H    0.000000
    22  H    1.799245   0.000000
    23  H    2.467692   3.084264   0.000000
    24  H    2.541494   2.467176   1.794383   0.000000
    25  H    4.337061   3.841363   2.488246   2.518274   0.000000
    26  H    3.851647   2.667911   3.097935   2.499504   1.794954
    27  H    5.839516   6.204266   4.260710   5.850817   4.538037
                   26         27
    26  H    0.000000
    27  H    5.442632   0.000000
 Symmetry turned off by external request.
 Stoichiometry    C9H13N3O2
 Framework group  C1[X(C9H13N3O2)]
 Deg. of freedom    75
 Full point group                 C1      NOp   1
 Rotational constants (GHZ):           1.6627194           0.4043934           0.3618952
 Standard basis: 6-31G(d) (6D, 7F)
   236 basis functions,   444 primitive gaussians,   236 cartesian basis functions
    52 alpha electrons       52 beta electrons
       nuclear repulsion energy       919.5465106248 Hartrees.
 NAtoms=   27 NActive=   27 NUniq=   27 SFac= 1.00D+00 NAtFMM=   60 NAOKFM=F Big=F
 Integral buffers will be    131072 words long.
 Raffenetti 1 integral format.
 Two-electron integral symmetry is turned off.
 One-electron integrals computed using PRISM.
 NBasis=   236 RedAO= T EigKep=  1.70D-03  NBF=   236
 NBsUse=   236 1.00D-06 EigRej= -1.00D+00 NBFU=   236
 ExpMin= 1.61D-01 ExpMax= 5.48D+03 ExpMxC= 8.25D+02 IAcc=3 IRadAn=         5 AccDes= 0.00D+00
 Harris functional with IExCor=  205 and IRadAn=       5 diagonalized for initial guess.
 HarFok:  IExCor=  205 AccDes= 0.00D+00 IRadAn=         5 IDoV= 1 UseB2=F ITyADJ=14
 ICtDFT=  3500011 ScaDFX=  1.000000  1.000000  1.000000  1.000000
 FoFCou: FMM=F IPFlag=           0 FMFlag=      100000 FMFlg1=           0
         NFxFlg=           0 DoJE=T BraDBF=F KetDBF=T FulRan=T
         wScrn=  0.000000 ICntrl=       500 IOpCl=  0 I1Cent=   200000004 NGrid=           0
         NMat0=    1 NMatS0=      1 NMatT0=    0 NMatD0=    1 NMtDS0=    0 NMtDT0=    0
 Symmetry not used in FoFCou.
 Keep R1 ints in memory in canonical form, NReq=397720213.
 Requested convergence on RMS density matrix=1.00D-08 within 128 cycles.
 Requested convergence on MAX density matrix=1.00D-06.
 Requested convergence on             energy=1.00D-06.
 No special actions if energy rises.
 SCF Done:  E(RHF) =  -661.276672362     A.U. after   17 cycles
            NFock= 17  Conv=0.50D-08     -V/T= 2.0035
 ExpMin= 1.61D-01 ExpMax= 5.48D+03 ExpMxC= 8.25D+02 IAcc=3 IRadAn=         5 AccDes= 0.00D+00
 HarFok:  IExCor=  205 AccDes= 0.00D+00 IRadAn=         5 IDoV=-2 UseB2=F ITyADJ=14
 ICtDFT= 12500011 ScaDFX=  1.000000  1.000000  1.000000  1.000000
 Range of M.O.s used for correlation:    15   236
 NBasis=   236 NAE=    52 NBE=    52 NFC=    14 NFV=     0
 NROrb=    222 NOA=    38 NOB=    38 NVA=   184 NVB=   184
 Fully direct method using O(ONN) memory.
 JobTyp=1 Pass  1:  I=  15 to  52 NPSUse=  4 ParTrn=T ParDer=T DoDerP=T.
 Spin components of T(2) and E(2):
     alpha-alpha T2 =       0.9183666119D-01 E2=     -0.2717637780D+00
     alpha-beta  T2 =       0.5004783062D+00 E2=     -0.1494775343D+01
     beta-beta   T2 =       0.9183666119D-01 E2=     -0.2717637780D+00
 ANorm=    0.1297748677D+01
 E2 =    -0.2038302899D+01 EUMP2 =    -0.66331497526081D+03
          IDoAtm=111111111111111111111111111
          Differentiating once with respect to electric field.
                with respect to dipole field.
          Differentiating once with respect to nuclear coordinates.
 Keep R1 ints in memory in canonical form, NReq=397723379.
          There are     1 degrees of freedom in the 1st order CPHF.  IDoFFX=0 NUNeed=     1.
 LinEq1:  Iter=  0 NonCon=     1 RMS=4.53D-03 Max=1.18D-01 NDo=     1
 AX will form     1 AO Fock derivatives at one time.
 LinEq1:  Iter=  1 NonCon=     1 RMS=1.52D-03 Max=2.93D-02 NDo=     1
 LinEq1:  Iter=  2 NonCon=     1 RMS=6.24D-04 Max=1.75D-02 NDo=     1
 LinEq1:  Iter=  3 NonCon=     1 RMS=2.84D-04 Max=7.00D-03 NDo=     1
 LinEq1:  Iter=  4 NonCon=     1 RMS=8.69D-05 Max=1.87D-03 NDo=     1
 LinEq1:  Iter=  5 NonCon=     1 RMS=3.51D-05 Max=1.54D-03 NDo=     1
 LinEq1:  Iter=  6 NonCon=     1 RMS=1.46D-05 Max=6.33D-04 NDo=     1
 LinEq1:  Iter=  7 NonCon=     1 RMS=5.50D-06 Max=1.06D-04 NDo=     1
 LinEq1:  Iter=  8 NonCon=     1 RMS=2.21D-06 Max=5.24D-05 NDo=     1
 LinEq1:  Iter=  9 NonCon=     1 RMS=7.57D-07 Max=1.63D-05 NDo=     1
 LinEq1:  Iter= 10 NonCon=     1 RMS=3.77D-07 Max=1.45D-05 NDo=     1
 LinEq1:  Iter= 11 NonCon=     1 RMS=1.52D-07 Max=5.70D-06 NDo=     1
 LinEq1:  Iter= 12 NonCon=     1 RMS=5.65D-08 Max=9.60D-07 NDo=     1
 LinEq1:  Iter= 13 NonCon=     1 RMS=1.67D-08 Max=3.71D-07 NDo=     1
 LinEq1:  Iter= 14 NonCon=     1 RMS=5.38D-09 Max=1.13D-07 NDo=     1
 LinEq1:  Iter= 15 NonCon=     1 RMS=2.12D-09 Max=5.27D-08 NDo=     1
 LinEq1:  Iter= 16 NonCon=     1 RMS=8.28D-10 Max=1.22D-08 NDo=     1
 LinEq1:  Iter= 17 NonCon=     1 RMS=2.66D-10 Max=3.66D-09 NDo=     1
 LinEq1:  Iter= 18 NonCon=     1 RMS=9.56D-11 Max=1.24D-09 NDo=     1
 LinEq1:  Iter= 19 NonCon=     0 RMS=3.12D-11 Max=5.76D-10 NDo=     1
 Linear equations converged to 1.000D-10 1.000D-09 after    19 iterations.
 End of Minotr F.D. properties file   721 does not exist.
 End of Minotr F.D. properties file   722 does not exist.
 End of Minotr F.D. properties file   788 does not exist.

 **********************************************************************

            Population analysis using the SCF Density.

 **********************************************************************

 Alpha  occ. eigenvalues --  -20.60248 -20.60032 -15.85045 -15.62813 -15.56784
 Alpha  occ. eigenvalues --  -11.35507 -11.30799 -11.29923 -11.29538 -11.27658
 Alpha  occ. eigenvalues --  -11.24472 -11.23777 -11.23323 -11.22783  -1.58927
 Alpha  occ. eigenvalues --   -1.38596  -1.28308  -1.22689  -1.13434  -1.08764
 Alpha  occ. eigenvalues --   -1.01725  -1.00682  -0.93749  -0.88972  -0.84794
 Alpha  occ. eigenvalues --   -0.81724  -0.78253  -0.77137  -0.74174  -0.71241
 Alpha  occ. eigenvalues --   -0.71068  -0.69160  -0.67020  -0.64477  -0.63129
 Alpha  occ. eigenvalues --   -0.61661  -0.60386  -0.57359  -0.56384  -0.54793
 Alpha  occ. eigenvalues --   -0.53642  -0.50755  -0.50188  -0.48639  -0.47958
 Alpha  occ. eigenvalues --   -0.47626  -0.46184  -0.45568  -0.44060  -0.42047
 Alpha  occ. eigenvalues --   -0.39921  -0.33205
 Alpha virt. eigenvalues --    0.08172   0.11010   0.18333   0.21130   0.23178
 Alpha virt. eigenvalues --    0.24214   0.25592   0.27776   0.28658   0.28787
 Alpha virt. eigenvalues --    0.29116   0.30864   0.31920   0.32377   0.33378
 Alpha virt. eigenvalues --    0.33884   0.34856   0.36177   0.37687   0.38667
 Alpha virt. eigenvalues --    0.40720   0.41769   0.44577   0.45151   0.45466
 Alpha virt. eigenvalues --    0.47103   0.48851   0.53447   0.57492   0.58271
 Alpha virt. eigenvalues --    0.62749   0.68829   0.69317   0.72227   0.74119
 Alpha virt. eigenvalues --    0.74552   0.75838   0.76023   0.77974   0.78913
 Alpha virt. eigenvalues --    0.80677   0.83027   0.84783   0.85411   0.88280
 Alpha virt. eigenvalues --    0.89197   0.89607   0.90997   0.91761   0.93493
 Alpha virt. eigenvalues --    0.94661   0.97169   0.98627   1.00654   1.01598
 Alpha virt. eigenvalues --    1.03713   1.05112   1.06548   1.07564   1.08370
 Alpha virt. eigenvalues --    1.10404   1.10586   1.11000   1.11242   1.12848
 Alpha virt. eigenvalues --    1.13327   1.13925   1.15082   1.15508   1.16277
 Alpha virt. eigenvalues --    1.17068   1.17874   1.18863   1.20983   1.21943
 Alpha virt. eigenvalues --    1.23103   1.23781   1.25658   1.26140   1.28281
 Alpha virt. eigenvalues --    1.31326   1.32075   1.34299   1.34844   1.37965
 Alpha virt. eigenvalues --    1.39508   1.40539   1.43786   1.47325   1.51337
 Alpha virt. eigenvalues --    1.53085   1.55547   1.60350   1.62041   1.67366
 Alpha virt. eigenvalues --    1.68324   1.71628   1.72916   1.73789   1.75063
 Alpha virt. eigenvalues --    1.77962   1.78360   1.84588   1.89178   1.90231
 Alpha virt. eigenvalues --    1.92020   1.96810   1.97699   1.99686   2.00357
 Alpha virt. eigenvalues --    2.02671   2.03839   2.06019   2.09988   2.12258
 Alpha virt. eigenvalues --    2.13287   2.15669   2.17823   2.18474   2.20241
 Alpha virt. eigenvalues --    2.21478   2.22475   2.25067   2.26115   2.26681
 Alpha virt. eigenvalues --    2.29834   2.31516   2.32944   2.34702   2.35462
 Alpha virt. eigenvalues --    2.38779   2.39519   2.41002   2.43587   2.45448
 Alpha virt. eigenvalues --    2.48515   2.50183   2.51538   2.56584   2.57729
 Alpha virt. eigenvalues --    2.60791   2.63211   2.65675   2.68358   2.69594
 Alpha virt. eigenvalues --    2.69908   2.71426   2.73391   2.75389   2.83702
 Alpha virt. eigenvalues --    2.85377   2.86248   2.88599   2.94171   2.94736
 Alpha virt. eigenvalues --    2.97148   2.99543   3.03097   3.04687   3.06012
 Alpha virt. eigenvalues --    3.07959   3.13354   3.18802   3.20540   3.25433
 Alpha virt. eigenvalues --    3.28843   3.33663   3.38093   3.41128   3.59462
 Alpha virt. eigenvalues --    4.09375   4.21652   4.23718   4.32558   4.44139
 Alpha virt. eigenvalues --    4.52853   4.59822   4.61439   4.71131   4.77226
 Alpha virt. eigenvalues --    4.97134   4.99355   5.03435   5.09925
          Condensed to atoms (all electrons):
               1          2          3          4          5          6
     1  O    8.293406   0.305672  -0.080949  -0.083624   0.001264  -0.000031
     2  N    0.305672   5.755530   0.298653   0.242371  -0.043708   0.001278
     3  O   -0.080949   0.298653   8.314371  -0.087794   0.009196   0.000288
     4  C   -0.083624   0.242371  -0.087794   5.248338   0.579693  -0.052696
     5  C    0.001264  -0.043708   0.009196   0.579693   4.644651   0.313671
     6  N   -0.000031   0.001278   0.000288  -0.052696   0.313671   7.179584
     7  C    0.000005  -0.000098  -0.000002   0.003774  -0.030050   0.204935
     8  H   -0.000000   0.000002  -0.000000  -0.000163   0.002403  -0.048920
     9  C   -0.000000  -0.000005   0.000000   0.000449   0.001883  -0.057851
    10  C   -0.000000   0.000000   0.000000  -0.000019  -0.000072   0.003391
    11  C   -0.000000  -0.000000  -0.000000  -0.000017   0.000017  -0.000156
    12  C   -0.000000   0.000001   0.000000  -0.000101  -0.000156   0.003601
    13  C   -0.000025  -0.000032   0.000000  -0.009609   0.000418  -0.045540
    14  H   -0.000008  -0.000051   0.000001   0.002354   0.004453  -0.005396
    15  N    0.000021   0.001986  -0.000033  -0.065452  -0.004668   0.002633
    16  C    0.005928  -0.027292   0.001349   0.316820  -0.032801  -0.001293
    17  H   -0.000040  -0.002426   0.006276  -0.032842   0.383135  -0.031618
    18  H    0.000000  -0.000048   0.000009   0.001556  -0.024081   0.328439
    19  H    0.000000   0.000000   0.000000  -0.000887   0.000646   0.000610
    20  H   -0.000000  -0.000000   0.000000  -0.000029   0.000011  -0.001425
    21  H    0.000000  -0.000000  -0.000000   0.000000   0.000001  -0.000060
    22  H   -0.000000   0.000000   0.000000  -0.000000  -0.000002  -0.000096
    23  H   -0.000000  -0.000000   0.000000   0.000024  -0.000000  -0.000023
    24  H   -0.000000   0.000000   0.000000   0.000000  -0.000000   0.000004
    25  H    0.000000  -0.000000   0.000000   0.000020  -0.000001  -0.000070
    26  H   -0.000000  -0.000000   0.000000   0.000004  -0.000001  -0.000068
    27  H    0.002127   0.000489  -0.000024  -0.075225   0.002031   0.000047
               7          8          9         10         11         12
     1  O    0.000005  -0.000000  -0.000000  -0.000000  -0.000000  -0.000000
     2  N   -0.000098   0.000002  -0.000005   0.000000  -0.000000   0.000001
     3  O   -0.000002  -0.000000   0.000000   0.000000  -0.000000   0.000000
     4  C    0.003774  -0.000163   0.000449  -0.000019  -0.000017  -0.000101
     5  C   -0.030050   0.002403   0.001883  -0.000072   0.000017  -0.000156
     6  N    0.204935  -0.048920  -0.057851   0.003391  -0.000156   0.003601
     7  C    5.006928   0.415924   0.341611  -0.049490  -0.007684  -0.064229
     8  H    0.415924   0.547259  -0.060325   0.001272  -0.000274  -0.003029
     9  C    0.341611  -0.060325   5.180167   0.317975  -0.053143  -0.005930
    10  C   -0.049490   0.001272   0.317975   5.127500   0.332705  -0.060290
    11  C   -0.007684  -0.000274  -0.053143   0.332705   5.124446   0.330503
    12  C   -0.064229  -0.003029  -0.005930  -0.060290   0.330503   5.137592
    13  C    0.329354  -0.039351  -0.051841  -0.001476  -0.048040   0.367717
    14  H   -0.040398  -0.000949   0.003835  -0.000386   0.003944  -0.040619
    15  N   -0.059078   0.003983  -0.012504   0.001492  -0.007803  -0.073991
    16  C   -0.002364  -0.000005  -0.000640  -0.000050   0.000008   0.002527
    17  H    0.001580  -0.000033  -0.000064   0.000001   0.000000   0.000001
    18  H   -0.029304  -0.002902   0.000810  -0.000118   0.000011  -0.000140
    19  H   -0.035150   0.004079   0.386495  -0.032941  -0.002240   0.000612
    20  H   -0.041531  -0.001793   0.397243  -0.037361   0.004134  -0.000363
    21  H    0.004054  -0.000081  -0.035833   0.400026  -0.035896   0.004225
    22  H   -0.004277   0.003528  -0.045592   0.395868  -0.045603  -0.001253
    23  H    0.000431   0.000034  -0.001989  -0.040153   0.396700  -0.036698
    24  H   -0.000144  -0.000100   0.004387  -0.038479   0.400289  -0.037882
    25  H    0.004993  -0.000002  -0.000378   0.004100  -0.033925   0.395383
    26  H   -0.004473   0.001547   0.001056  -0.002412  -0.042251   0.394673
    27  H   -0.000408   0.000009  -0.000056   0.000005   0.000005  -0.000025
              13         14         15         16         17         18
     1  O   -0.000025  -0.000008   0.000021   0.005928  -0.000040   0.000000
     2  N   -0.000032  -0.000051   0.001986  -0.027292  -0.002426  -0.000048
     3  O    0.000000   0.000001  -0.000033   0.001349   0.006276   0.000009
     4  C   -0.009609   0.002354  -0.065452   0.316820  -0.032842   0.001556
     5  C    0.000418   0.004453  -0.004668  -0.032801   0.383135  -0.024081
     6  N   -0.045540  -0.005396   0.002633  -0.001293  -0.031618   0.328439
     7  C    0.329354  -0.040398  -0.059078  -0.002364   0.001580  -0.029304
     8  H   -0.039351  -0.000949   0.003983  -0.000005  -0.000033  -0.002902
     9  C   -0.051841   0.003835  -0.012504  -0.000640  -0.000064   0.000810
    10  C   -0.001476  -0.000386   0.001492  -0.000050   0.000001  -0.000118
    11  C   -0.048040   0.003944  -0.007803   0.000008   0.000000   0.000011
    12  C    0.367717  -0.040619  -0.073991   0.002527   0.000001  -0.000140
    13  C    5.020065   0.403899   0.245865  -0.070799  -0.000058   0.003760
    14  H    0.403899   0.515192  -0.035986  -0.004587   0.000051   0.000012
    15  N    0.245865  -0.035986   6.924280   0.602298  -0.000044  -0.000126
    16  C   -0.070799  -0.004587   0.602298   4.666783   0.001602  -0.000150
    17  H   -0.000058   0.000051  -0.000044   0.001602   0.403028  -0.002214
    18  H    0.003760   0.000012  -0.000126  -0.000150  -0.002214   0.327850
    19  H   -0.006110   0.000062   0.006763   0.002410   0.000011  -0.000123
    20  H    0.003884  -0.000050   0.000079  -0.000031  -0.000003   0.002744
    21  H   -0.000389   0.000009  -0.000033   0.000002  -0.000000  -0.000000
    22  H    0.000327  -0.000043   0.000005  -0.000001   0.000000   0.000002
    23  H   -0.005880   0.000007   0.006737   0.000082   0.000000   0.000000
    24  H    0.004152  -0.000059   0.000037   0.000005   0.000000  -0.000000
    25  H   -0.034524  -0.002662   0.000873  -0.000052  -0.000000   0.000002
    26  H   -0.044706  -0.000885   0.004160  -0.000052   0.000000  -0.000001
    27  H    0.004985  -0.000159  -0.037549   0.405485  -0.000065   0.000002
              19         20         21         22         23         24
     1  O    0.000000  -0.000000   0.000000  -0.000000  -0.000000  -0.000000
     2  N    0.000000  -0.000000  -0.000000   0.000000  -0.000000   0.000000
     3  O    0.000000   0.000000  -0.000000   0.000000   0.000000   0.000000
     4  C   -0.000887  -0.000029   0.000000  -0.000000   0.000024   0.000000
     5  C    0.000646   0.000011   0.000001  -0.000002  -0.000000  -0.000000
     6  N    0.000610  -0.001425  -0.000060  -0.000096  -0.000023   0.000004
     7  C   -0.035150  -0.041531   0.004054  -0.004277   0.000431  -0.000144
     8  H    0.004079  -0.001793  -0.000081   0.003528   0.000034  -0.000100
     9  C    0.386495   0.397243  -0.035833  -0.045592  -0.001989   0.004387
    10  C   -0.032941  -0.037361   0.400026   0.395868  -0.040153  -0.038479
    11  C   -0.002240   0.004134  -0.035896  -0.045603   0.396700   0.400289
    12  C    0.000612  -0.000363   0.004225  -0.001253  -0.036698  -0.037882
    13  C   -0.006110   0.003884  -0.000389   0.000327  -0.005880   0.004152
    14  H    0.000062  -0.000050   0.000009  -0.000043   0.000007  -0.000059
    15  N    0.006763   0.000079  -0.000033   0.000005   0.006737   0.000037
    16  C    0.002410  -0.000031   0.000002  -0.000001   0.000082   0.000005
    17  H    0.000011  -0.000003  -0.000000   0.000000   0.000000   0.000000
    18  H   -0.000123   0.002744  -0.000000   0.000002   0.000000  -0.000000
    19  H    0.507814  -0.023868  -0.002595   0.003770   0.001650  -0.000071
    20  H   -0.023868   0.549165  -0.002639  -0.002945  -0.000050  -0.000090
    21  H   -0.002595  -0.002639   0.526805  -0.024745  -0.002823  -0.002072
    22  H    0.003770  -0.002945  -0.024745   0.569222   0.004068  -0.003591
    23  H    0.001650  -0.000050  -0.002823   0.004068   0.510517  -0.025038
    24  H   -0.000071  -0.000090  -0.002072  -0.003591  -0.025038   0.541443
    25  H   -0.000027   0.000011  -0.000086  -0.000082  -0.002081  -0.002392
    26  H    0.000023  -0.000035  -0.000073   0.002457   0.003821  -0.002752
    27  H    0.000083   0.000000  -0.000000   0.000000  -0.000021  -0.000000
              25         26         27
     1  O    0.000000  -0.000000   0.002127
     2  N   -0.000000  -0.000000   0.000489
     3  O    0.000000   0.000000  -0.000024
     4  C    0.000020   0.000004  -0.075225
     5  C   -0.000001  -0.000001   0.002031
     6  N   -0.000070  -0.000068   0.000047
     7  C    0.004993  -0.004473  -0.000408
     8  H   -0.000002   0.001547   0.000009
     9  C   -0.000378   0.001056  -0.000056
    10  C    0.004100  -0.002412   0.000005
    11  C   -0.033925  -0.042251   0.000005
    12  C    0.395383   0.394673  -0.000025
    13  C   -0.034524  -0.044706   0.004985
    14  H   -0.002662  -0.000885  -0.000159
    15  N    0.000873   0.004160  -0.037549
    16  C   -0.000052  -0.000052   0.405485
    17  H   -0.000000   0.000000  -0.000065
    18  H    0.000002  -0.000001   0.000002
    19  H   -0.000027   0.000023   0.000083
    20  H    0.000011  -0.000035   0.000000
    21  H   -0.000086  -0.000073  -0.000000
    22  H   -0.000082   0.002457   0.000000
    23  H   -0.002081   0.003821  -0.000021
    24  H   -0.002392  -0.002752  -0.000000
    25  H    0.510443  -0.023131  -0.000011
    26  H   -0.023131   0.560848   0.000001
    27  H   -0.000011   0.000001   0.472008
 Mulliken charges:
               1
     1  O   -0.443744
     2  N    0.467678
     3  O   -0.461342
     4  C    0.013054
     5  C    0.192067
     6  N   -0.793237
     7  C    0.055093
     8  H    0.177886
     9  C   -0.309760
    10  C   -0.321086
    11  C   -0.315730
    12  C   -0.312127
    13  C   -0.026046
    14  H    0.198421
    15  N   -0.503944
    16  C    0.134818
    17  H    0.273723
    18  H    0.394010
    19  H    0.188983
    20  H    0.154942
    21  H    0.172203
    22  H    0.148982
    23  H    0.190687
    24  H    0.162353
    25  H    0.183600
    26  H    0.152250
    27  H    0.226268
 Sum of Mulliken charges =  -0.00000
 Mulliken charges with hydrogens summed into heavy atoms:
               1
     1  O   -0.443744
     2  N    0.467678
     3  O   -0.461342
     4  C    0.013054
     5  C    0.465791
     6  N   -0.399227
     7  C    0.232979
     9  C    0.034165
    10  C    0.000099
    11  C    0.037309
    12  C    0.023723
    13  C    0.172374
    15  N   -0.503944
    16  C    0.361086
 Electronic spatial extent (au):  <R**2>=           3089.8118
 Charge=              0.0000 electrons
 Dipole moment (field-independent basis, Debye):
    X=              4.9642    Y=              4.2504    Z=              0.7557  Tot=              6.5788
 Quadrupole moment (field-independent basis, Debye-Ang):
   XX=           -103.1704   YY=            -79.2777   ZZ=            -83.6993
   XY=             -1.5838   XZ=             -0.2312   YZ=              3.1221
 Traceless Quadrupole moment (field-independent basis, Debye-Ang):
   XX=            -14.4546   YY=              9.4381   ZZ=              5.0165
   XY=             -1.5838   XZ=             -0.2312   YZ=              3.1221
 Octapole moment (field-independent basis, Debye-Ang**2):
  XXX=             86.9593  YYY=             33.5345  ZZZ=             -2.9922  XYY=             -6.7008
  XXY=             11.9615  XXZ=              7.5543  XZZ=             -3.9116  YZZ=             -3.2776
  YYZ=              0.8964  XYZ=            -11.8184
 Hexadecapole moment (field-independent basis, Debye-Ang**3):
 XXXX=          -3453.7280 YYYY=           -603.5030 ZZZZ=           -320.3117 XXXY=            -41.2701
 XXXZ=            -27.4879 YYYX=             -7.7267 YYYZ=             35.3925 ZZZX=              0.9387
 ZZZY=             26.5193 XXYY=           -629.5566 XXZZ=           -556.6077 YYZZ=           -166.4049
 XXYZ=             46.5492 YYXZ=              9.9661 ZZXY=              5.5827
 N-N= 9.195465106248D+02 E-N=-3.385165302184D+03  KE= 6.589409539023D+02
 Calling FoFJK, ICntrl=  10002127 FMM=F ISym2X=0 I1Cent= 0 IOpClX= 0 NMat=1 NMatS=1 NMatT=0.
 -------------------------------------------------------------------
 Center     Atomic                   Forces (Hartrees/Bohr)
 Number     Number              X              Y              Z
 -------------------------------------------------------------------
      1        8          -0.005187958   -0.021522009    0.005175427
      2        7           0.038527434    0.013798135    0.004855185
      3        8          -0.012129241    0.013891667   -0.008155977
      4        6           0.002111915    0.010071234    0.005547213
      5        6           0.004853725   -0.019202446   -0.008869821
      6        7           0.017767906   -0.004939614   -0.004543697
      7        6          -0.005888617    0.005662514    0.002696814
      8        1          -0.010444320   -0.001627761   -0.007551698
      9        6          -0.003745910    0.000152409   -0.001931499
     10        6           0.002794616   -0.000934175    0.000747025
     11        6          -0.000799298   -0.004439797   -0.002375198
     12        6           0.000672814   -0.008961046   -0.003378397
     13        6           0.008483098   -0.001127961    0.002988057
     14        1           0.000693733    0.004287644   -0.010162698
     15        7           0.000718421   -0.003054547    0.003176955
     16        6          -0.016575926    0.011766383    0.008213224
     17        1           0.009078701   -0.004905755   -0.004893850
     18        1          -0.017434492   -0.002430442    0.004878009
     19        1           0.003160575    0.005676220    0.007699363
     20        1          -0.003229835   -0.007536040    0.002494091
     21        1          -0.004163974    0.002129956    0.009733770
     22        1          -0.004090491   -0.003813115   -0.007423083
     23        1           0.004040937    0.005870322    0.009385888
     24        1          -0.009415687    0.002592197   -0.001947516
     25        1          -0.000878932    0.010658536   -0.002179611
     26        1          -0.004855375   -0.004677553   -0.004456157
     27        1           0.005936182    0.002615042    0.000278181
 -------------------------------------------------------------------
 Cartesian Forces:  Max     0.038527434 RMS     0.008599283

 GradGradGradGradGradGradGradGradGradGradGradGradGradGradGradGradGradGrad
 Berny optimization.
 FormGI is forming the generalized inverse of G from B-inverse, IUseBI=4.
 Internal  Forces:  Max     0.031419813 RMS     0.006312857
 Search for a local minimum.
 Step number   1 out of a maximum of   20
 All quantities printed in internal units (Hartrees-Bohrs-Radians)
 Mixed Optimization -- RFO/linear search
 Second derivative matrix not updated -- first step.
 ITU=  0
     Eigenvalues ---    0.00384   0.00771   0.01088   0.01173   0.01243
     Eigenvalues ---    0.01487   0.01537   0.01634   0.01994   0.02046
     Eigenvalues ---    0.02126   0.02679   0.03661   0.04508   0.04697
     Eigenvalues ---    0.04837   0.05073   0.05139   0.05302   0.05876
     Eigenvalues ---    0.06268   0.07211   0.07698   0.07717   0.07858
     Eigenvalues ---    0.07995   0.08041   0.08049   0.10458   0.11735
     Eigenvalues ---    0.12265   0.13372   0.15152   0.15593   0.15990
     Eigenvalues ---    0.16000   0.20097   0.22052   0.23268   0.24964
     Eigenvalues ---    0.25000   0.25000   0.25340   0.26172   0.26653
     Eigenvalues ---    0.27985   0.28082   0.28446   0.31475   0.31833
     Eigenvalues ---    0.32047   0.32240   0.32290   0.32381   0.32388
     Eigenvalues ---    0.32403   0.32463   0.32513   0.32525   0.32586
     Eigenvalues ---    0.33344   0.33587   0.33873   0.35281   0.43884
     Eigenvalues ---    0.44984   0.49505   0.67261   0.90889   0.91694
     Eigenvalues --- 1000.000001000.000001000.000001000.000001000.00000
     Eigenvalues --- 1000.000001000.000001000.000001000.000001000.00000
     Eigenvalues --- 1000.000001000.000001000.000001000.000001000.00000
     Eigenvalues --- 1000.000001000.000001000.000001000.000001000.00000
     Eigenvalues --- 1000.000001000.000001000.000001000.000001000.00000
     Eigenvalues --- 1000.000001000.000001000.000001000.000001000.00000
     Eigenvalues --- 1000.000001000.000001000.000001000.000001000.00000
     Eigenvalues --- 1000.000001000.000001000.000001000.000001000.00000
     Eigenvalues --- 1000.000001000.000001000.000001000.000001000.00000
     Eigenvalues --- 1000.000001000.000001000.000001000.000001000.00000
     Eigenvalues --- 1000.000001000.000001000.000001000.000001000.00000
     Eigenvalues --- 1000.000001000.000001000.000001000.000001000.00000
     Eigenvalues --- 1000.000001000.000001000.000001000.000001000.00000
     Eigenvalues --- 1000.000001000.000001000.000001000.000001000.00000
     Eigenvalues --- 1000.000001000.000001000.000001000.000001000.00000
     Eigenvalues --- 1000.000001000.000001000.000001000.000001000.00000
     Eigenvalues --- 1000.000001000.000001000.000001000.000001000.00000
     Eigenvalues --- 1000.000001000.000001000.000001000.000001000.00000
     Eigenvalues --- 1000.00000
 RFO step:  Lambda=-1.98871693D-02 EMin= 3.83807734D-03
 Linear search not attempted -- first point.
 Iteration  1 RMS(Cart)=  0.04875873 RMS(Int)=  0.00108282
 Iteration  2 RMS(Cart)=  0.00119860 RMS(Int)=  0.00021562
 Iteration  3 RMS(Cart)=  0.00000097 RMS(Int)=  0.00021562
 Iteration  1 RMS(Cart)=  0.00002760 RMS(Int)=  0.00002076
 Iteration  2 RMS(Cart)=  0.00001480 RMS(Int)=  0.00002294
 Iteration  3 RMS(Cart)=  0.00000867 RMS(Int)=  0.00002559
 Iteration  4 RMS(Cart)=  0.00000560 RMS(Int)=  0.00002747
 Iteration  5 RMS(Cart)=  0.00000398 RMS(Int)=  0.00002880
 Iteration  6 RMS(Cart)=  0.00000306 RMS(Int)=  0.00002980
 Iteration  7 RMS(Cart)=  0.00000249 RMS(Int)=  0.00003060
 Iteration  8 RMS(Cart)=  0.00000209 RMS(Int)=  0.00003127
 Iteration  9 RMS(Cart)=  0.00000178 RMS(Int)=  0.00003184
 Iteration 10 RMS(Cart)=  0.00000154 RMS(Int)=  0.00003234
 Iteration 11 RMS(Cart)=  0.00000133 RMS(Int)=  0.00003278
 Iteration 12 RMS(Cart)=  0.00000116 RMS(Int)=  0.00003317
 Iteration 13 RMS(Cart)=  0.00000101 RMS(Int)=  0.00003351
 Iteration 14 RMS(Cart)=  0.00000088 RMS(Int)=  0.00003381
 Variable       Old X    -DE/DX   Delta X   Delta X   Delta X     New X
                                 (Linear)    (Quad)   (Total)
    R1        2.32162   0.02181   0.00000   0.02328   0.02328   2.34490
    R2        2.32526   0.02011   0.00000   0.02165   0.02165   2.34691
    R3        2.83306  -0.02201   0.00000  -0.06388  -0.06388   2.76917
    R4        2.63608  -0.03142   0.00000  -0.06738  -0.06718   2.56889
    R5        2.79676  -0.02005   0.00000  -0.05756  -0.05742   2.73934
    R6        2.58877  -0.02111   0.00000  -0.04074  -0.04061   2.54816
    R7        2.08452  -0.01068   0.00000  -0.03022  -0.03022   2.05430
    R8        2.82565  -0.02017   0.00000  -0.05606  -0.05610   2.76955
    R9        1.93294  -0.00689   0.00000  -0.01502  -0.01502   1.91791
   R10        2.11815  -0.01207   0.00000  -0.03607  -0.03607   2.08208
   R11        2.92750  -0.01275   0.00000  -0.04392  -0.04393   2.88357
   R12        2.90520  -0.00400   0.00000  -0.00773  -0.00778   2.89742
   R13        2.91146  -0.00458   0.00000  -0.01437  -0.01439   2.89707
   R14        2.09916  -0.00986   0.00000  -0.02857  -0.02857   2.07059
   R15        2.09893  -0.00814   0.00000  -0.02359  -0.02359   2.07534
   R16        2.90434  -0.00194   0.00000  -0.00751  -0.00758   2.89676
   R17        2.10140  -0.01054   0.00000  -0.03067  -0.03067   2.07073
   R18        2.10316  -0.00900   0.00000  -0.02626  -0.02626   2.07689
   R19        2.91742  -0.00916   0.00000  -0.02950  -0.02949   2.88793
   R20        2.10407  -0.01162   0.00000  -0.03395  -0.03395   2.07012
   R21        2.10113  -0.00993   0.00000  -0.02888  -0.02888   2.07225
   R22        2.93527  -0.01058   0.00000  -0.03689  -0.03687   2.89839
   R23        2.10153  -0.01076   0.00000  -0.03130  -0.03130   2.07023
   R24        2.09784  -0.00788   0.00000  -0.02278  -0.02278   2.07506
   R25        2.10758  -0.00947   0.00000  -0.02784  -0.02784   2.07975
   R26        2.77073  -0.00624   0.00000  -0.01410  -0.01433   2.75641
   R27        2.44186  -0.00536   0.00000  -0.00768  -0.00774   2.43412
   R28        2.08033  -0.00477   0.00000  -0.01341  -0.01341   2.06691
    A1        2.18980   0.00066   0.00000   0.00193   0.00176   2.19156
    A2        2.03726  -0.00267   0.00000  -0.01043  -0.01060   2.02666
    A3        2.05562   0.00217   0.00000   0.00751   0.00735   2.06296
    A4        2.01340  -0.00312   0.00000  -0.00871  -0.00941   2.00399
    A5        2.01700  -0.00247   0.00000  -0.00625  -0.00702   2.00998
    A6        2.25122   0.00557   0.00000   0.01164   0.01134   2.26256
    A7        2.19125   0.00885   0.00000   0.03083   0.03117   2.22243
    A8        2.06054  -0.00258   0.00000  -0.00501  -0.00520   2.05534
    A9        2.03039  -0.00624   0.00000  -0.02533  -0.02555   2.00484
   A10        2.25238  -0.00678   0.00000  -0.02389  -0.02380   2.22859
   A11        2.11085  -0.01151   0.00000  -0.06973  -0.06999   2.04086
   A12        1.87081   0.01832   0.00000   0.10016   0.10027   1.97108
   A13        1.83797  -0.00191   0.00000  -0.01911  -0.01890   1.81907
   A14        2.00554  -0.00100   0.00000  -0.01324  -0.01320   1.99234
   A15        1.97009   0.00146   0.00000   0.00219   0.00155   1.97164
   A16        1.85261   0.00281   0.00000   0.02511   0.02488   1.87749
   A17        1.84915   0.00096   0.00000   0.02092   0.02087   1.87002
   A18        1.93458  -0.00199   0.00000  -0.01115  -0.01084   1.92374
   A19        1.91006   0.00041   0.00000  -0.00425  -0.00439   1.90568
   A20        1.92206  -0.00074   0.00000  -0.01379  -0.01375   1.90831
   A21        1.92293  -0.00180   0.00000  -0.00740  -0.00742   1.91551
   A22        1.91934  -0.00048   0.00000   0.00577   0.00571   1.92505
   A23        1.90482   0.00300   0.00000   0.02554   0.02557   1.93039
   A24        1.88443  -0.00036   0.00000  -0.00546  -0.00573   1.87870
   A25        1.94066  -0.00089   0.00000   0.00604   0.00587   1.94654
   A26        1.91883  -0.00061   0.00000  -0.00674  -0.00675   1.91208
   A27        1.90494   0.00025   0.00000  -0.00315  -0.00320   1.90175
   A28        1.91608   0.00072   0.00000   0.00735   0.00740   1.92348
   A29        1.89852   0.00177   0.00000   0.01141   0.01146   1.90998
   A30        1.88376  -0.00123   0.00000  -0.01544  -0.01554   1.86822
   A31        1.94457   0.00067   0.00000   0.00528   0.00548   1.95006
   A32        1.90251   0.00061   0.00000   0.00638   0.00629   1.90880
   A33        1.91726   0.00041   0.00000   0.00557   0.00553   1.92280
   A34        1.90694  -0.00124   0.00000  -0.01515  -0.01522   1.89172
   A35        1.91526  -0.00041   0.00000   0.00041   0.00029   1.91555
   A36        1.87593  -0.00006   0.00000  -0.00288  -0.00290   1.87303
   A37        1.94624  -0.00292   0.00000  -0.01917  -0.01923   1.92700
   A38        1.90624   0.00245   0.00000   0.01695   0.01676   1.92300
   A39        1.91129   0.00145   0.00000   0.01436   0.01437   1.92566
   A40        1.90630   0.00022   0.00000  -0.00340  -0.00320   1.90309
   A41        1.91199  -0.00028   0.00000  -0.00476  -0.00470   1.90729
   A42        1.88059  -0.00083   0.00000  -0.00344  -0.00365   1.87694
   A43        1.84570   0.00472   0.00000   0.02497   0.02503   1.87073
   A44        1.93555  -0.00435   0.00000  -0.03040  -0.03088   1.90468
   A45        1.98986   0.00123   0.00000   0.01369   0.01384   2.00370
   A46        1.88156   0.00230   0.00000   0.03206   0.03233   1.91389
   A47        1.89127  -0.00448   0.00000  -0.03167  -0.03172   1.85954
   A48        1.91521   0.00076   0.00000  -0.00614  -0.00587   1.90934
   A49        2.08793  -0.00677   0.00000  -0.01928  -0.01929   2.06864
   A50        2.24603  -0.00188   0.00000  -0.01087  -0.01101   2.23503
   A51        1.97728   0.00462   0.00000   0.02573   0.02523   2.00251
   A52        2.05982  -0.00276   0.00000  -0.01536  -0.01584   2.04397
    D1       -2.32347  -0.00656   0.00000  -0.05753  -0.05705  -2.38052
    D2        0.87266  -0.00640   0.00000   0.00000   0.00000   0.87266
    D3        0.78553  -0.00151   0.00000  -0.08885  -0.08860   0.69693
    D4       -2.30152  -0.00134   0.00000  -0.03132  -0.03155  -2.33307
    D5        3.08199  -0.00009   0.00000   0.02454   0.02442   3.10642
    D6       -0.00965  -0.00056   0.00000   0.01323   0.01312   0.00347
    D7       -0.12291  -0.00064   0.00000  -0.04306  -0.04352  -0.16643
    D8        3.06863  -0.00110   0.00000  -0.05436  -0.05483   3.01380
    D9       -2.80096  -0.00083   0.00000  -0.04910  -0.04976  -2.85073
   D10        0.35229   0.00123   0.00000   0.00330   0.00320   0.35548
   D11        0.40405  -0.00026   0.00000   0.01868   0.01844   0.42249
   D12       -2.72589   0.00179   0.00000   0.07108   0.07140  -2.65448
   D13       -0.03780   0.00028   0.00000   0.03027   0.03044  -0.00736
   D14        2.72764   0.00394   0.00000   0.07341   0.07291   2.80055
   D15        3.05462   0.00082   0.00000   0.04189   0.04193   3.09655
   D16       -0.46313   0.00447   0.00000   0.08503   0.08440  -0.37873
   D17       -2.55596  -0.00071   0.00000  -0.01500  -0.01455  -2.57051
   D18        1.69525  -0.00236   0.00000  -0.02617  -0.02576   1.66949
   D19       -0.54652   0.00003   0.00000  -0.00027  -0.00013  -0.54665
   D20        0.92173   0.00045   0.00000  -0.02773  -0.02801   0.89372
   D21       -1.11025  -0.00120   0.00000  -0.03890  -0.03922  -1.14947
   D22        2.93116   0.00119   0.00000  -0.01300  -0.01359   2.91757
   D23        2.94232   0.00214   0.00000   0.02794   0.02789   2.97021
   D24       -1.22900   0.00134   0.00000   0.02366   0.02360  -1.20540
   D25        0.84784  -0.00069   0.00000   0.00372   0.00375   0.85159
   D26        0.91872   0.00319   0.00000   0.04223   0.04228   0.96100
   D27        3.03059   0.00239   0.00000   0.03794   0.03799   3.06858
   D28       -1.17575   0.00036   0.00000   0.01801   0.01814  -1.15762
   D29       -1.08146   0.00150   0.00000   0.00924   0.00918  -1.07228
   D30        1.03041   0.00070   0.00000   0.00495   0.00489   1.03530
   D31        3.10724  -0.00133   0.00000  -0.01498  -0.01495   3.09229
   D32       -2.89784  -0.00100   0.00000  -0.01468  -0.01442  -2.91225
   D33       -0.86275   0.00221   0.00000   0.02207   0.02192  -0.84083
   D34        1.30939   0.00068   0.00000   0.00000   0.00001   1.30940
   D35       -0.89513  -0.00198   0.00000  -0.02401  -0.02384  -0.91897
   D36        1.13996   0.00123   0.00000   0.01275   0.01250   1.15246
   D37       -2.97109  -0.00029   0.00000  -0.00932  -0.00941  -2.98050
   D38        1.10722   0.00088   0.00000   0.01160   0.01175   1.11897
   D39       -3.14087   0.00409   0.00000   0.04835   0.04808  -3.09279
   D40       -0.96873   0.00256   0.00000   0.02628   0.02617  -0.94256
   D41        0.95666   0.00078   0.00000   0.00000   0.00001   0.95667
   D42        3.08232   0.00068   0.00000   0.00872   0.00867   3.09098
   D43       -1.13779  -0.00103   0.00000  -0.01590  -0.01587  -1.15365
   D44       -1.15686   0.00174   0.00000   0.01612   0.01621  -1.14066
   D45        0.96879   0.00164   0.00000   0.02484   0.02486   0.99366
   D46        3.03188  -0.00007   0.00000   0.00022   0.00033   3.03221
   D47        3.06220   0.00067   0.00000   0.00406   0.00403   3.06623
   D48       -1.09533   0.00057   0.00000   0.01278   0.01269  -1.08264
   D49        0.96775  -0.00114   0.00000  -0.01184  -0.01184   0.95591
   D50       -0.92193  -0.00065   0.00000   0.00000   0.00001  -0.92192
   D51        1.18386  -0.00137   0.00000  -0.01134  -0.01135   1.17251
   D52       -3.04809  -0.00086   0.00000  -0.00786  -0.00792  -3.05600
   D53       -3.04919   0.00022   0.00000  -0.00051  -0.00048  -3.04966
   D54       -0.94340  -0.00050   0.00000  -0.01185  -0.01184  -0.95524
   D55        1.10784   0.00001   0.00000  -0.00837  -0.00840   1.09944
   D56        1.17632   0.00025   0.00000   0.00723   0.00727   1.18359
   D57       -3.00107  -0.00047   0.00000  -0.00411  -0.00410  -3.00517
   D58       -0.94984   0.00004   0.00000  -0.00064  -0.00066  -0.95049
   D59        0.98982  -0.00091   0.00000  -0.01182  -0.01190   0.97791
   D60        3.09834  -0.00088   0.00000  -0.01707  -0.01726   3.08108
   D61       -1.12924   0.00038   0.00000  -0.00299  -0.00299  -1.13223
   D62       -1.11337  -0.00128   0.00000  -0.01313  -0.01314  -1.12651
   D63        0.99515  -0.00125   0.00000  -0.01837  -0.01850   0.97665
   D64        3.05075   0.00001   0.00000  -0.00430  -0.00422   3.04653
   D65        3.11714  -0.00023   0.00000  -0.00098  -0.00099   3.11615
   D66       -1.05753  -0.00020   0.00000  -0.00623  -0.00635  -1.06387
   D67        0.99808   0.00106   0.00000   0.00785   0.00793   1.00600
   D68       -1.05657  -0.00010   0.00000  -0.00139  -0.00127  -1.05783
   D69       -3.12787   0.00135   0.00000   0.00501   0.00458  -3.12329
   D70        1.08357   0.00162   0.00000   0.01188   0.01169   1.09526
   D71        3.11813  -0.00144   0.00000  -0.00804  -0.00782   3.11031
   D72        1.04682   0.00001   0.00000  -0.00164  -0.00197   1.04486
   D73       -1.02492   0.00028   0.00000   0.00523   0.00514  -1.01978
   D74        1.06209  -0.00039   0.00000   0.00089   0.00114   1.06322
   D75       -1.00922   0.00106   0.00000   0.00728   0.00699  -1.00223
   D76       -3.08097   0.00133   0.00000   0.01415   0.01410  -3.06687
   D77       -1.17217   0.00395   0.00000   0.00000   0.00001  -1.17217
   D78        3.06114   0.00032   0.00000  -0.01816  -0.01794   3.04319
   D79        1.01082  -0.00030   0.00000  -0.03496  -0.03525   0.97557
   D80        0.20314   0.00021   0.00000   0.00283   0.00259   0.20572
   D81       -2.95059  -0.00189   0.00000  -0.05146  -0.05122  -3.00181
         Item               Value     Threshold  Converged?
 Maximum Force            0.031146     0.000450     NO 
 RMS     Force            0.006336     0.000300     NO 
 Maximum Displacement     0.206723     0.001800     NO 
 RMS     Displacement     0.049058     0.001200     NO 
 Predicted change in Energy=-1.114201D-02
 GradGradGradGradGradGradGradGradGradGradGradGradGradGradGradGradGradGrad

                          Input orientation:                          
 ---------------------------------------------------------------------
 Center     Atomic      Atomic             Coordinates (Angstroms)
 Number     Number       Type             X           Y           Z
 ---------------------------------------------------------------------
      1          8           0       -3.551554   -1.264628    0.410401
      2          7           0       -3.116768   -0.235236   -0.129102
      3          8           0       -3.806667    0.638122   -0.680169
      4          6           0       -1.672500   -0.011590   -0.022225
      5          6           0       -1.313406    1.264441    0.279049
      6          7           0       -0.066219    1.738824    0.473325
      7          6           0        1.194816    0.994299    0.414930
      8          1           0        1.837509    1.491536    1.159001
      9          6           0        1.904791    1.073532   -0.933434
     10          6           0        3.308938    0.472919   -0.799582
     11          6           0        3.259657   -0.953468   -0.240320
     12          6           0        2.460946   -1.023825    1.060673
     13          6           0        1.046840   -0.468210    0.850842
     14          1           0        0.489239   -0.507333    1.798877
     15          7           0        0.400580   -1.335912   -0.127439
     16          6           0       -0.844570   -1.141883   -0.394104
     17          1           0       -2.106826    1.994880    0.415821
     18          1           0        0.062466    2.741964    0.388439
     19          1           0        1.325077    0.521651   -1.681724
     20          1           0        1.961754    2.119920   -1.261945
     21          1           0        3.805311    0.479516   -1.776469
     22          1           0        3.906554    1.107646   -0.130346
     23          1           0        2.785069   -1.614868   -0.973361
     24          1           0        4.276133   -1.328871   -0.071917
     25          1           0        2.389803   -2.061451    1.404805
     26          1           0        2.963687   -0.447548    1.848659
     27          1           0       -1.340652   -1.884415   -1.025663
 ---------------------------------------------------------------------
                    Distance matrix (angstroms):
                    1          2          3          4          5
     1  O    0.000000
     2  N    1.240867   0.000000
     3  O    2.207913   1.241930   0.000000
     4  C    2.299589   1.465384   2.325873   0.000000
     5  C    3.379755   2.380699   2.743852   1.359400   0.000000
     6  N    4.601330   3.683162   4.066084   2.426862   1.348428
     7  C    5.256500   4.516357   5.132342   3.069921   2.526384
     8  H    6.099085   5.402389   5.997298   3.996855   3.279353
     9  C    6.086426   5.251273   5.733627   3.847701   3.444322
    10  C    7.179796   6.499286   7.118524   5.064953   4.812069
    11  C    6.849296   6.417712   7.256691   5.026020   5.108990
    12  C    6.052355   5.757459   6.713834   4.391203   4.482503
    13  C    4.687590   4.283713   5.208118   2.892327   2.983251
    14  H    4.339282   4.098100   5.090436   2.869719   2.949337
    15  N    3.989200   3.685543   4.680090   2.462226   3.140830
    16  C    2.826669   2.460715   3.467603   1.449595   2.542309
    17  H    3.565342   2.508056   2.435456   2.099154   1.087090
    18  H    5.395776   4.386239   4.531916   3.280368   2.021897
    19  H    5.599045   4.765868   5.229863   3.467528   3.370157
    20  H    6.681951   5.711521   5.984051   4.391816   3.719298
    21  H    7.870699   7.151214   7.692154   5.772778   5.571582
    22  H    7.844964   7.150551   7.747034   5.691241   5.238337
    23  H    6.495403   6.119464   6.972296   4.831675   5.162989
    24  H    7.842795   7.473572   8.340904   6.092941   6.171822
    25  H    6.076470   6.000854   7.073263   4.768716   5.103199
    26  H    6.721947   6.397542   7.308306   5.018415   4.867043
    27  H    2.708229   2.584221   3.544544   2.150461   3.408563
                    6          7          8          9         10
     6  N    0.000000
     7  C    1.465584   0.000000
     8  H    2.038500   1.101790   0.000000
     9  C    2.511267   1.525919   2.134839   0.000000
    10  C    3.822890   2.493269   2.653061   1.533063   0.000000
    11  C    4.338108   2.913198   3.155734   2.534719   1.532900
    12  C    3.789957   2.468379   2.593335   2.946978   2.533748
    13  C    2.500484   1.533248   2.135586   2.509321   2.954100
    14  H    2.666617   2.160566   2.494545   3.459544   3.957724
    15  N    3.167463   2.520884   3.422595   2.952574   3.490299
    16  C    3.107529   3.062173   4.067011   3.571824   4.474776
    17  H    2.057413   3.449928   4.045176   4.331564   5.755351
    18  H    1.014916   2.082606   2.303934   2.815168   4.135158
    19  H    2.839269   2.153213   3.045157   1.095710   2.171694
    20  H    2.696121   2.160353   2.504252   1.098222   2.177452
    21  H    4.651470   3.447015   3.676059   2.162299   1.095782
    22  H    4.067644   2.768339   2.467942   2.157121   1.099045
    23  H    4.633573   3.356190   3.885175   2.829130   2.159512
    24  H    5.344535   3.889557   3.926416   3.483821   2.170578
    25  H    4.619718   3.427164   3.604049   3.940903   3.482407
    26  H    3.981469   2.695070   2.346050   3.342900   2.824824
    27  H    4.122985   4.097670   5.125476   4.392135   5.217932
                   11         12         13         14         15
    11  C    0.000000
    12  C    1.528225   0.000000
    13  C    2.514492   1.533764   0.000000
    14  H    3.468801   2.167796   1.100554   0.000000
    15  N    2.886750   2.398774   1.458627   2.098832   0.000000
    16  C    4.111427   3.613412   2.362447   2.644024   1.288082
    17  H    6.158119   5.512981   4.025130   3.861796   4.204330
    18  H    4.926823   4.515061   3.389399   3.567829   4.124260
    19  H    2.827760   3.346556   2.733337   3.724515   2.592496
    20  H    3.489124   3.940416   3.464008   4.294111   3.958174
    21  H    2.170469   3.480909   3.925571   4.975269   4.196102
    22  H    2.163044   2.837512   3.409401   4.243595   4.273504
    23  H    1.095460   2.142821   2.768390   3.766003   2.545425
    24  H    1.096590   2.161184   3.467067   4.302948   3.875957
    25  H    2.165805   1.095516   2.156117   2.486508   2.613654
    26  H    2.169651   1.098073   2.161103   2.475671   3.356139
    27  H    4.758810   4.421036   3.350675   3.636327   2.034588
                   16         17         18         19         20
    16  C    0.000000
    17  H    3.476860   0.000000
    18  H    4.064401   2.294496   0.000000
    19  H    3.022032   4.283463   3.287788   0.000000
    20  H    4.389529   4.402713   2.591910   1.770886   0.000000
    21  H    5.114808   6.485046   4.879998   2.482401   2.520786
    22  H    5.263376   6.102969   4.209174   3.068256   2.467278
    23  H    3.705878   6.236245   5.314984   2.682922   3.835332
    24  H    5.134234   7.213000   5.876956   3.837270   4.320494
    25  H    3.813508   6.136089   5.433442   4.163258   4.977815
    26  H    4.473802   5.807631   4.552176   4.010984   4.155913
    27  H    1.093763   4.208780   5.037043   3.650435   5.195807
                   21         22         23         24         25
    21  H    0.000000
    22  H    1.764799   0.000000
    23  H    2.464208   3.062758   0.000000
    24  H    2.529315   2.465079   1.765691   0.000000
    25  H    4.310531   3.834110   2.451805   2.505119   0.000000
    26  H    3.835274   2.687765   3.059140   2.487540   1.769473
    27  H    5.712514   6.106324   4.134848   5.724205   4.455874
                   26         27
    26  H    0.000000
    27  H    5.371559   0.000000
 Symmetry turned off by external request.
 Stoichiometry    C9H13N3O2
 Framework group  C1[X(C9H13N3O2)]
 Deg. of freedom    75
 Full point group                 C1      NOp   1
 Rotational constants (GHZ):           1.6741487           0.4208253           0.3746035
 Standard basis: 6-31G(d) (6D, 7F)
   236 basis functions,   444 primitive gaussians,   236 cartesian basis functions
    52 alpha electrons       52 beta electrons
       nuclear repulsion energy       931.2949979208 Hartrees.
 NAtoms=   27 NActive=   27 NUniq=   27 SFac= 1.00D+00 NAtFMM=   60 NAOKFM=F Big=F
 Integral buffers will be    131072 words long.
 Raffenetti 1 integral format.
 Two-electron integral symmetry is turned off.
 One-electron integrals computed using PRISM.
 NBasis=   236 RedAO= T EigKep=  1.54D-03  NBF=   236
 NBsUse=   236 1.00D-06 EigRej= -1.00D+00 NBFU=   236
 Initial guess from the checkpoint file:  "/home/alexey/tmp/Gau-1056185.chk"
 B after Tr=     0.044056    0.001954    0.001884
         Rot=    0.999998   -0.001538    0.000779    0.000741 Ang=  -0.22 deg.
 ExpMin= 1.61D-01 ExpMax= 5.48D+03 ExpMxC= 8.25D+02 IAcc=3 IRadAn=         5 AccDes= 0.00D+00
 Harris functional with IExCor=  205 and IRadAn=       5 diagonalized for initial guess.
 HarFok:  IExCor=  205 AccDes= 0.00D+00 IRadAn=         5 IDoV= 1 UseB2=F ITyADJ=14
 ICtDFT=  3500011 ScaDFX=  1.000000  1.000000  1.000000  1.000000
 FoFCou: FMM=F IPFlag=           0 FMFlag=      100000 FMFlg1=           0
         NFxFlg=           0 DoJE=T BraDBF=F KetDBF=T FulRan=T
         wScrn=  0.000000 ICntrl=       500 IOpCl=  0 I1Cent=   200000004 NGrid=           0
         NMat0=    1 NMatS0=      1 NMatT0=    0 NMatD0=    1 NMtDS0=    0 NMtDT0=    0
 Symmetry not used in FoFCou.
 Keep R1 ints in memory in canonical form, NReq=397720213.
 Requested convergence on RMS density matrix=1.00D-08 within 128 cycles.
 Requested convergence on MAX density matrix=1.00D-06.
 Requested convergence on             energy=1.00D-06.
 No special actions if energy rises.
 SCF Done:  E(RHF) =  -661.290576653     A.U. after   15 cycles
            NFock= 15  Conv=0.49D-08     -V/T= 2.0025
 ExpMin= 1.61D-01 ExpMax= 5.48D+03 ExpMxC= 8.25D+02 IAcc=3 IRadAn=         5 AccDes= 0.00D+00
 HarFok:  IExCor=  205 AccDes= 0.00D+00 IRadAn=         5 IDoV=-2 UseB2=F ITyADJ=14
 ICtDFT= 12500011 ScaDFX=  1.000000  1.000000  1.000000  1.000000
 Range of M.O.s used for correlation:    15   236
 NBasis=   236 NAE=    52 NBE=    52 NFC=    14 NFV=     0
 NROrb=    222 NOA=    38 NOB=    38 NVA=   184 NVB=   184
 Fully direct method using O(ONN) memory.
 JobTyp=1 Pass  1:  I=  15 to  52 NPSUse=  4 ParTrn=T ParDer=T DoDerP=T.
 Spin components of T(2) and E(2):
     alpha-alpha T2 =       0.9135796443D-01 E2=     -0.2724377828D+00
     alpha-beta  T2 =       0.4939063500D+00 E2=     -0.1490788289D+01
     beta-beta   T2 =       0.9135796443D-01 E2=     -0.2724377828D+00
 ANorm=    0.1294844500D+01
 E2 =    -0.2035663854D+01 EUMP2 =    -0.66332624050702D+03
          IDoAtm=111111111111111111111111111
          Differentiating once with respect to electric field.
                with respect to dipole field.
          Differentiating once with respect to nuclear coordinates.
 Keep R1 ints in memory in canonical form, NReq=397723379.
          There are     1 degrees of freedom in the 1st order CPHF.  IDoFFX=0 NUNeed=     1.
 LinEq1:  Iter=  0 NonCon=     1 RMS=4.51D-03 Max=9.73D-02 NDo=     1
 AX will form     1 AO Fock derivatives at one time.
 LinEq1:  Iter=  1 NonCon=     1 RMS=1.51D-03 Max=2.65D-02 NDo=     1
 LinEq1:  Iter=  2 NonCon=     1 RMS=6.40D-04 Max=1.65D-02 NDo=     1
 LinEq1:  Iter=  3 NonCon=     1 RMS=2.79D-04 Max=5.90D-03 NDo=     1
 LinEq1:  Iter=  4 NonCon=     1 RMS=8.60D-05 Max=1.53D-03 NDo=     1
 LinEq1:  Iter=  5 NonCon=     1 RMS=3.44D-05 Max=1.32D-03 NDo=     1
 LinEq1:  Iter=  6 NonCon=     1 RMS=1.36D-05 Max=5.41D-04 NDo=     1
[...]
    26  H    2.175659   1.098735   2.167540   2.499511   3.362923
    27  H    4.736048   4.420528   3.354369   3.640436   2.032296
                   16         17         18         19         20
    16  C    0.000000
    17  H    3.463568   0.000000
    18  H    4.098376   2.240020   0.000000
    19  H    2.994565   4.238978   3.518226   0.000000
    20  H    4.378845   4.385359   2.885744   1.768285   0.000000
    21  H    5.098149   6.464178   5.089845   2.499625   2.521046
    22  H    5.248619   6.084079   4.313742   3.070338   2.461719
    23  H    3.693150   6.218586   5.425959   2.704702   3.843151
    24  H    5.131112   7.200595   5.938873   3.849836   4.317159
    25  H    3.817957   6.130224   5.371656   4.172661   4.984962
    26  H    4.489616   5.820647   4.480679   4.033062   4.178336
    27  H    1.092953   4.202778   5.098414   3.611428   5.173163
                   21         22         23         24         25
    21  H    0.000000
    22  H    1.758878   0.000000
    23  H    2.469890   3.062307   0.000000
    24  H    2.517362   2.459697   1.764522   0.000000
    25  H    4.311955   3.837764   2.445359   2.518819   0.000000
    26  H    3.844750   2.701148   3.060602   2.493011   1.768001
    27  H    5.677392   6.077541   4.104499   5.705064   4.451907
                   26         27
    26  H    0.000000
    27  H    5.378098   0.000000
 Symmetry turned off by external request.
 Stoichiometry    C9H13N3O2
 Framework group  C1[X(C9H13N3O2)]
 Deg. of freedom    75
 Full point group                 C1      NOp   1
 Rotational constants (GHZ):           1.6612888           0.4213214           0.3755939

 **********************************************************************

            Population analysis using the SCF Density.

 **********************************************************************

 Alpha  occ. eigenvalues --  -20.59837 -20.59758 -15.84637 -15.63654 -15.56118
 Alpha  occ. eigenvalues --  -11.34870 -11.30012 -11.29453 -11.28496 -11.27064
 Alpha  occ. eigenvalues --  -11.23573 -11.23100 -11.22612 -11.22012  -1.57304
 Alpha  occ. eigenvalues --   -1.37031  -1.30624  -1.23130  -1.14723  -1.09847
 Alpha  occ. eigenvalues --   -1.02688  -1.01175  -0.94574  -0.89641  -0.85432
 Alpha  occ. eigenvalues --   -0.82563  -0.78505  -0.77656  -0.75125  -0.72010
 Alpha  occ. eigenvalues --   -0.70476  -0.68774  -0.67186  -0.65160  -0.63579
 Alpha  occ. eigenvalues --   -0.62426  -0.60235  -0.57574  -0.56906  -0.55083
 Alpha  occ. eigenvalues --   -0.54555  -0.50831  -0.50374  -0.48802  -0.48118
 Alpha  occ. eigenvalues --   -0.47732  -0.46219  -0.45977  -0.43605  -0.41634
 Alpha  occ. eigenvalues --   -0.40020  -0.33451
 Alpha virt. eigenvalues --    0.07899   0.11264   0.17404   0.21608   0.23700
 Alpha virt. eigenvalues --    0.25160   0.26774   0.28283   0.29102   0.29434
 Alpha virt. eigenvalues --    0.29742   0.31601   0.32048   0.32799   0.33914
 Alpha virt. eigenvalues --    0.34374   0.35732   0.37398   0.38690   0.40272
 Alpha virt. eigenvalues --    0.41532   0.42426   0.44933   0.45895   0.46817
 Alpha virt. eigenvalues --    0.47555   0.49185   0.53550   0.57424   0.58388
 Alpha virt. eigenvalues --    0.62446   0.69551   0.69918   0.72979   0.74257
 Alpha virt. eigenvalues --    0.75208   0.75829   0.76694   0.78685   0.79220
 Alpha virt. eigenvalues --    0.81235   0.84303   0.85249   0.85974   0.88535
 Alpha virt. eigenvalues --    0.89429   0.90611   0.91740   0.92685   0.94029
 Alpha virt. eigenvalues --    0.95364   0.97937   0.99019   1.01740   1.01917
 Alpha virt. eigenvalues --    1.04060   1.05950   1.06497   1.07910   1.08546
 Alpha virt. eigenvalues --    1.10830   1.11479   1.11574   1.11956   1.13881
 Alpha virt. eigenvalues --    1.14328   1.14900   1.15824   1.16171   1.17927
 Alpha virt. eigenvalues --    1.18087   1.19246   1.20246   1.21959   1.23514
 Alpha virt. eigenvalues --    1.24106   1.24623   1.25698   1.27983   1.29765
 Alpha virt. eigenvalues --    1.31331   1.33364   1.36000   1.37319   1.38409
 Alpha virt. eigenvalues --    1.38887   1.42831   1.43973   1.50612   1.52687
 Alpha virt. eigenvalues --    1.55349   1.57099   1.60884   1.63092   1.65809
 Alpha virt. eigenvalues --    1.68363   1.71077   1.73117   1.74800   1.75483
 Alpha virt. eigenvalues --    1.77981   1.82728   1.86541   1.90403   1.92244
 Alpha virt. eigenvalues --    1.92472   1.96146   1.99387   2.01289   2.02762
 Alpha virt. eigenvalues --    2.04376   2.05228   2.07560   2.10393   2.14027
 Alpha virt. eigenvalues --    2.15134   2.15490   2.19491   2.20518   2.21265
 Alpha virt. eigenvalues --    2.22453   2.25092   2.26332   2.28221   2.29851
 Alpha virt. eigenvalues --    2.31653   2.33292   2.33674   2.37016   2.37675
 Alpha virt. eigenvalues --    2.39173   2.40132   2.42603   2.45757   2.47507
 Alpha virt. eigenvalues --    2.50076   2.52378   2.54302   2.55098   2.62333
 Alpha virt. eigenvalues --    2.62757   2.65288   2.67223   2.70489   2.71577
 Alpha virt. eigenvalues --    2.72531   2.72782   2.74578   2.78180   2.85113
 Alpha virt. eigenvalues --    2.86692   2.89570   2.92110   2.95807   2.97394
 Alpha virt. eigenvalues --    3.00180   3.01588   3.02996   3.05322   3.08938
 Alpha virt. eigenvalues --    3.09272   3.15646   3.20284   3.21161   3.25346
 Alpha virt. eigenvalues --    3.32169   3.36557   3.38977   3.47440   3.63961
 Alpha virt. eigenvalues --    4.09769   4.21141   4.26908   4.36458   4.47386
 Alpha virt. eigenvalues --    4.55889   4.62190   4.63916   4.73695   4.78499
 Alpha virt. eigenvalues --    4.99013   5.00982   5.04969   5.11242
          Condensed to atoms (all electrons):
               1          2          3          4          5          6
     1  O    8.304061   0.292283  -0.076891  -0.083168   0.002674  -0.000029
     2  N    0.292283   5.800492   0.299024   0.237772  -0.049070   0.001574
     3  O   -0.076891   0.299024   8.321045  -0.088730   0.008043   0.000471
     4  C   -0.083168   0.237772  -0.088730   5.242473   0.564143  -0.049494
     5  C    0.002674  -0.049070   0.008043   0.564143   4.671271   0.321189
     6  N   -0.000029   0.001574   0.000471  -0.049494   0.321189   7.193585
     7  C    0.000006  -0.000116  -0.000003   0.005179  -0.031648   0.175417
     8  H   -0.000000   0.000002   0.000000  -0.000284   0.003395  -0.049901
     9  C   -0.000000  -0.000005  -0.000000   0.000894   0.000609  -0.063526
    10  C    0.000000   0.000000   0.000000  -0.000045  -0.000056   0.003816
    11  C   -0.000000  -0.000000  -0.000000  -0.000025   0.000026  -0.000187
    12  C   -0.000000   0.000002   0.000000  -0.000144  -0.000187   0.003794
    13  C   -0.000026  -0.000054   0.000000  -0.011847  -0.000745  -0.048141
    14  H   -0.000012  -0.000089   0.000001   0.002534   0.005358  -0.006507
    15  N    0.000090   0.002548  -0.000035  -0.067946  -0.005398   0.002246
    16  C    0.003550  -0.027027   0.002096   0.317042  -0.039550  -0.002997
    17  H    0.000046  -0.004714   0.009913  -0.029984   0.383388  -0.033900
    18  H    0.000001  -0.000065   0.000007   0.001807  -0.029489   0.337717
    19  H    0.000000  -0.000005   0.000000  -0.001409   0.001240  -0.000297
    20  H   -0.000000  -0.000000   0.000000  -0.000071   0.000124  -0.000157
    21  H    0.000000   0.000000  -0.000000   0.000001   0.000001  -0.000079
    22  H   -0.000000   0.000000   0.000000  -0.000000  -0.000003  -0.000114
    23  H   -0.000000  -0.000000   0.000000   0.000040  -0.000001  -0.000030
    24  H   -0.000000   0.000000   0.000000   0.000000  -0.000000   0.000006
    25  H    0.000000  -0.000000   0.000000   0.000023  -0.000000  -0.000088
    26  H   -0.000000  -0.000000   0.000000   0.000007  -0.000003  -0.000058
    27  H    0.003478  -0.000067   0.000042  -0.075358   0.002327   0.000025
               7          8          9         10         11         12
     1  O    0.000006  -0.000000  -0.000000   0.000000  -0.000000  -0.000000
     2  N   -0.000116   0.000002  -0.000005   0.000000  -0.000000   0.000002
     3  O   -0.000003   0.000000  -0.000000   0.000000  -0.000000   0.000000
     4  C    0.005179  -0.000284   0.000894  -0.000045  -0.000025  -0.000144
     5  C   -0.031648   0.003395   0.000609  -0.000056   0.000026  -0.000187
     6  N    0.175417  -0.049901  -0.063526   0.003816  -0.000187   0.003794
     7  C    5.017714   0.417777   0.352172  -0.054696  -0.008975  -0.060531
     8  H    0.417777   0.538323  -0.054821   0.000634  -0.000295  -0.002394
     9  C    0.352172  -0.054821   5.157282   0.324891  -0.050453  -0.005149
    10  C   -0.054696   0.000634   0.324891   5.119246   0.336973  -0.061213
    11  C   -0.008975  -0.000295  -0.050453   0.336973   5.120223   0.335975
    12  C   -0.060531  -0.002394  -0.005149  -0.061213   0.335975   5.118649
    13  C    0.335732  -0.037469  -0.061853   0.000048  -0.051015   0.370883
    14  H   -0.046700  -0.000770   0.004420  -0.000402   0.004180  -0.036014
    15  N   -0.057972   0.003788  -0.013843   0.001581  -0.013184  -0.081811
    16  C   -0.003114   0.000055  -0.001307  -0.000037   0.000006   0.003024
    17  H    0.001942  -0.000064  -0.000065   0.000001   0.000000   0.000000
    18  H   -0.021642  -0.004620   0.001426  -0.000084   0.000003  -0.000113
    19  H   -0.037117   0.004345   0.390638  -0.032323  -0.002217   0.000684
    20  H   -0.042503  -0.002028   0.399464  -0.035264   0.003932  -0.000417
    21  H    0.004601  -0.000077  -0.036324   0.402299  -0.034985   0.004374
    22  H   -0.004866   0.003573  -0.046923   0.397743  -0.045403  -0.001073
    23  H    0.000570   0.000034  -0.001951  -0.039051   0.399278  -0.037942
    24  H   -0.000134  -0.000104   0.004385  -0.038427   0.402357  -0.038690
    25  H    0.005127  -0.000020  -0.000430   0.004203  -0.033477   0.398436
    26  H   -0.003966   0.001674   0.000985  -0.002269  -0.041426   0.396762
    27  H   -0.000429   0.000009  -0.000062   0.000007   0.000012  -0.000045
              13         14         15         16         17         18
     1  O   -0.000026  -0.000012   0.000090   0.003550   0.000046   0.000001
     2  N   -0.000054  -0.000089   0.002548  -0.027027  -0.004714  -0.000065
     3  O    0.000000   0.000001  -0.000035   0.002096   0.009913   0.000007
     4  C   -0.011847   0.002534  -0.067946   0.317042  -0.029984   0.001807
     5  C   -0.000745   0.005358  -0.005398  -0.039550   0.383388  -0.029489
     6  N   -0.048141  -0.006507   0.002246  -0.002997  -0.033900   0.337717
     7  C    0.335732  -0.046700  -0.057972  -0.003114   0.001942  -0.021642
     8  H   -0.037469  -0.000770   0.003788   0.000055  -0.000064  -0.004620
     9  C   -0.061853   0.004420  -0.013843  -0.001307  -0.000065   0.001426
    10  C    0.000048  -0.000402   0.001581  -0.000037   0.000001  -0.000084
    11  C   -0.051015   0.004180  -0.013184   0.000006   0.000000   0.000003
    12  C    0.370883  -0.036014  -0.081811   0.003024   0.000000  -0.000113
    13  C    5.041209   0.404216   0.251068  -0.072674  -0.000065   0.002903
    14  H    0.404216   0.524240  -0.037948  -0.004742   0.000078  -0.000124
    15  N    0.251068  -0.037948   6.944315   0.600283  -0.000043  -0.000140
    16  C   -0.072674  -0.004742   0.600283   4.694489   0.002114  -0.000183
    17  H   -0.000065   0.000078  -0.000043   0.002114   0.398598  -0.003049
    18  H    0.002903  -0.000124  -0.000140  -0.000183  -0.003049   0.311813
    19  H   -0.007368   0.000105   0.007355   0.003020   0.000016  -0.000153
    20  H    0.004390  -0.000066   0.000124  -0.000036  -0.000001   0.000774
    21  H   -0.000451   0.000010  -0.000045   0.000003  -0.000000   0.000001
    22  H    0.000064  -0.000054   0.000020  -0.000002  -0.000000   0.000001
    23  H   -0.007517   0.000003   0.008469   0.000101   0.000000   0.000000
    24  H    0.004709  -0.000057   0.000129   0.000008   0.000000  -0.000000
    25  H   -0.035639  -0.002845   0.000384  -0.000012  -0.000000   0.000002
    26  H   -0.047261  -0.001015   0.004858  -0.000073   0.000000  -0.000000
    27  H    0.005413  -0.000175  -0.038058   0.407362  -0.000089   0.000001
              19         20         21         22         23         24
     1  O    0.000000  -0.000000   0.000000  -0.000000  -0.000000  -0.000000
     2  N   -0.000005  -0.000000   0.000000   0.000000  -0.000000   0.000000
     3  O    0.000000   0.000000  -0.000000   0.000000   0.000000   0.000000
     4  C   -0.001409  -0.000071   0.000001  -0.000000   0.000040   0.000000
     5  C    0.001240   0.000124   0.000001  -0.000003  -0.000001  -0.000000
     6  N   -0.000297  -0.000157  -0.000079  -0.000114  -0.000030   0.000006
     7  C   -0.037117  -0.042503   0.004601  -0.004866   0.000570  -0.000134
     8  H    0.004345  -0.002028  -0.000077   0.003573   0.000034  -0.000104
     9  C    0.390638   0.399464  -0.036324  -0.046923  -0.001951   0.004385
    10  C   -0.032323  -0.035264   0.402299   0.397743  -0.039051  -0.038427
    11  C   -0.002217   0.003932  -0.034985  -0.045403   0.399278   0.402357
    12  C    0.000684  -0.000417   0.004374  -0.001073  -0.037942  -0.038690
    13  C   -0.007368   0.004390  -0.000451   0.000064  -0.007517   0.004709
    14  H    0.000105  -0.000066   0.000010  -0.000054   0.000003  -0.000057
    15  N    0.007355   0.000124  -0.000045   0.000020   0.008469   0.000129
    16  C    0.003020  -0.000036   0.000003  -0.000002   0.000101   0.000008
    17  H    0.000016  -0.000001  -0.000000  -0.000000   0.000000   0.000000
    18  H   -0.000153   0.000774   0.000001   0.000001   0.000000  -0.000000
    19  H    0.506283  -0.024726  -0.002790   0.003975   0.001517  -0.000068
    20  H   -0.024726   0.540792  -0.002723  -0.002981  -0.000046  -0.000083
    21  H   -0.002790  -0.002723   0.524892  -0.027474  -0.002900  -0.002251
    22  H    0.003975  -0.002981  -0.027474   0.571614   0.004143  -0.003653
    23  H    0.001517  -0.000046  -0.002900   0.004143   0.499808  -0.025543
    24  H   -0.000068  -0.000083  -0.002251  -0.003653  -0.025543   0.538582
    25  H   -0.000029   0.000013  -0.000087  -0.000081  -0.002304  -0.002311
    26  H    0.000020  -0.000031  -0.000080   0.002385   0.004068  -0.003021
    27  H    0.000099   0.000000  -0.000000   0.000000  -0.000035  -0.000000
              25         26         27
     1  O    0.000000  -0.000000   0.003478
     2  N   -0.000000  -0.000000  -0.000067
     3  O    0.000000   0.000000   0.000042
     4  C    0.000023   0.000007  -0.075358
     5  C   -0.000000  -0.000003   0.002327
     6  N   -0.000088  -0.000058   0.000025
     7  C    0.005127  -0.003966  -0.000429
     8  H   -0.000020   0.001674   0.000009
     9  C   -0.000430   0.000985  -0.000062
    10  C    0.004203  -0.002269   0.000007
    11  C   -0.033477  -0.041426   0.000012
    12  C    0.398436   0.396762  -0.000045
    13  C   -0.035639  -0.047261   0.005413
    14  H   -0.002845  -0.001015  -0.000175
    15  N    0.000384   0.004858  -0.038058
    16  C   -0.000012  -0.000073   0.407362
    17  H   -0.000000   0.000000  -0.000089
    18  H    0.000002  -0.000000   0.000001
    19  H   -0.000029   0.000020   0.000099
    20  H    0.000013  -0.000031   0.000000
    21  H   -0.000087  -0.000080  -0.000000
    22  H   -0.000081   0.002385   0.000000
    23  H   -0.002304   0.004068  -0.000035
    24  H   -0.002311  -0.003021  -0.000000
    25  H    0.506412  -0.024112  -0.000013
    26  H   -0.024112   0.562163   0.000001
    27  H   -0.000013   0.000001   0.463153
 Mulliken charges:
               1
     1  O   -0.446063
     2  N    0.447517
     3  O   -0.474984
     4  C    0.036592
     5  C    0.192363
     6  N   -0.784336
     7  C    0.058175
     8  H    0.179236
     9  C   -0.300456
    10  C   -0.327574
    11  C   -0.321324
    12  C   -0.306861
    13  C   -0.038512
    14  H    0.192373
    15  N   -0.510835
    16  C    0.118599
    17  H    0.275876
    18  H    0.403207
    19  H    0.189203
    20  H    0.161519
    21  H    0.174081
    22  H    0.149110
    23  H    0.199287
    24  H    0.164166
    25  H    0.186848
    26  H    0.150393
    27  H    0.232400
 Sum of Mulliken charges =  -0.00000
 Mulliken charges with hydrogens summed into heavy atoms:
               1
     1  O   -0.446063
     2  N    0.447517
     3  O   -0.474984
     4  C    0.036592
     5  C    0.468239
     6  N   -0.381129
     7  C    0.237411
     9  C    0.050266
    10  C   -0.004384
    11  C    0.042129
    12  C    0.030380
    13  C    0.153861
    15  N   -0.510835
    16  C    0.350999
 Electronic spatial extent (au):  <R**2>=           2990.5391
 Charge=             -0.0000 electrons
 Dipole moment (field-independent basis, Debye):
    X=              5.0397    Y=              4.6054    Z=              1.5077  Tot=              6.9915
 Quadrupole moment (field-independent basis, Debye-Ang):
   XX=           -104.1380   YY=            -78.9149   ZZ=            -82.4670
   XY=             -1.8724   XZ=             -1.1669   YZ=              4.8481
 Traceless Quadrupole moment (field-independent basis, Debye-Ang):
   XX=            -15.6314   YY=              9.5918   ZZ=              6.0396
   XY=             -1.8724   XZ=             -1.1669   YZ=              4.8481
 Octapole moment (field-independent basis, Debye-Ang**2):
  XXX=             80.2617  YYY=             34.2881  ZZZ=              0.4005  XYY=             -7.3588
  XXY=             11.6184  XXZ=             11.5580  XZZ=             -6.5729  YZZ=             -1.0350
  YYZ=              7.8134  XYZ=            -10.0011
 Hexadecapole moment (field-independent basis, Debye-Ang**3):
 XXXX=          -3305.3554 YYYY=           -596.7363 ZZZZ=           -319.9223 XXXY=            -33.8635
 XXXZ=            -57.0547 YYYX=             -5.2479 YYYZ=             48.6633 ZZZX=            -15.2900
 ZZZY=             27.2485 XXYY=           -614.1190 XXZZ=           -534.4309 YYZZ=           -158.2251
 XXYZ=             38.3043 YYXZ=              1.2748 ZZXY=              8.9423
 N-N= 9.312335466472D+02 E-N=-3.409146718117D+03  KE= 6.596148909047D+02
 Unable to Open any file for archive entry.
 1\1\GINC-LOTUS\FOpt\RMP2-FC\6-31G(d)\C9H13N3O2\ALEXEY\30-Jun-2023\0\\#
 MP2/6-31G* SCF=Tight Opt=(ModRedun, MaxCycle=20 ) NoSymm\\MolName:\\0,
 1\O,-3.5912056124,-1.284199791,0.2305919928\N,-3.1000125453,-0.2198185
 185,-0.1972687668\O,-3.7567643715,0.692094219,-0.7383670954\C,-1.67889
 82513,-0.0332401772,0.034909848\C,-1.301291626,1.2566069048,0.29571967
 37\N,-0.0576721726,1.7397277448,0.4601522086\C,1.2021498595,1.01180262
 25,0.4009930997\H,1.860056237,1.5218716846,1.120414191\C,1.886214855,1
 .0557392081,-0.9646132146\C,3.2889709132,0.4506680375,-0.8368200884\C,
 3.2557393481,-0.9595868869,-0.2421267625\C,2.4816869879,-1.0023299439,
 1.076893852\C,1.0652257837,-0.4524968016,0.8722454219\H,0.5007693217,-
 0.4572766555,1.8179491126\N,0.4104259108,-1.332174952,-0.0917640981\C,
 -0.8423121917,-1.1466963553,-0.3559785243\H,-2.0933756834,1.9949917868
 ,0.3929792793\H,0.0016373505,2.7161088043,0.7225245366\H,1.2824046555,
 0.4927481023,-1.6845933656\H,1.9424765792,2.092156394,-1.3198622429\H,
 3.7778623142,0.4371103193,-1.8177134952\H,3.8963920051,1.1042218392,-0
 .194579067\H,2.7695548199,-1.6422791701,-0.9460417496\H,4.2788255058,-
 1.3232840708,-0.0893735594\H,2.4079232201,-2.0324301909,1.4407518603\H
 ,2.9997647252,-0.4172903068,1.8492559703\H,-1.3265379384,-1.9027338467
 ,-0.9792590169\\Version=ES64L-G16RevC.02\HF=-661.2917783\MP2=-663.3294
 602\RMSD=8.797e-09\RMSF=2.065e-03\Dipole=1.8520146,1.636035,0.5534631\
 PG=C01 [X(C9H13N3O2)]\\@
 The archive entry for this job was punched.


 THE NUMBERS ARE MEANINGLESS, BUT THE TRENDS ARE IMPORTANT.
     -- LARRY BURGGRAF
 Job cpu time:       0 days  1 hours 12 minutes 32.6 seconds.
 Elapsed time:       0 days  0 hours 22 minutes  1.0 seconds.
 File lengths (MBytes):  RWF=     36 Int=      0 D2E=      0 Chk=      7 Scr=      1
 Normal termination of Gaussian 16 at Fri Jun 30 02:39:22 2023.
