 Entering Gaussian System, Link 0=g16
 Initial command:
 /home/alexey/programs//g16/l1.exe "/home/alexey/tmp/Gau-1058620.inp" -scrdir="/home/alexey/tmp/"
 Entering Link 1 = /home/alexey/programs//g16/l1.exe PID=   1058622.
  
 Copyright (c) 1988-2021, Gaussian, Inc.  All Rights Reserved.
  
 This is part of the Gaussian(R) 16 program.  It is based on
 the Gaussian(R) 09 system (copyright 2009, Gaussian, Inc.),
 the Gaussian(R) 03 system (copyright 2003, Gaussian, Inc.),
 the Gaussian(R) 98 system (copyright 1998, Gaussian, Inc.),
 the Gaussian(R) 94 system (copyright 1995, Gaussian, Inc.),
 the Gaussian 92(TM) system (copyright 1992, Gaussian, Inc.),
 the Gaussian 90(TM) system (copyright 1990, Gaussian, Inc.),
 the Gaussian 88(TM) system (copyright 1988, Gaussian, Inc.),
 the Gaussian 86(TM) system (copyright 1986, Carnegie Mellon
 University), and the Gaussian 82(TM) system (copyright 1983,
 Carnegie Mellon University). Gaussian is a federally registered
 trademark of Gaussian, Inc.
  
 This software contains proprietary and confidential information,
 including trade secrets, belonging to Gaussian, Inc.
  
 This software is provided under written license and may be
 used, copied, transmitted, or stored only in accord with that
 written license.
  
 The following legend is applicable only to US Government
 contracts under FAR:
  
                    RESTRICTED RIGHTS LEGEND
  
 Use, reproduction and disclosure by the US Government is
 subject to restrictions as set forth in subparagraphs (a)
 and (c) of the Commercial Computer Software - Restricted
 Rights clause in FAR 52.227-19.
  
 Gaussian, Inc.
 340 Quinnipiac St., Bldg. 40, Wallingford CT 06492
  
  
 ---------------------------------------------------------------
 Warning -- This program may not be used in any manner that
 competes with the business of Gaussian, Inc. or will provide
 assistance to any competitor of Gaussian, Inc.  The licensee
 of this program is prohibited from giving any competitor of
 Gaussian, Inc. access to this program.  By using this program,
 the user acknowledges that Gaussian, Inc. is engaged in the
 business of creating and licensing software in the field of
 computational chemistry and represents and warrants to the
 licensee that it is not a competitor of Gaussian, Inc. and that
 it will not use this program in any manner prohibited above.
 ---------------------------------------------------------------
  

 Cite this work as:
 Gaussian 16, Revision C.02,
 M. J. Frisch, G. W. Trucks, H. B. Schlegel, G. E. Scuseria, 
 M. A. Robb, J. R. Cheeseman, G. Scalmani, V. Barone, 
 G. A. Petersson, H. Nakatsuji, X. Li, M. Caricato, A. V. Marenich, 
 J. Bloino, B. G. Janesko, R. Gomperts, B. Mennucci, H. P. Hratchian, 
 J. V. Ortiz, A. F. Izmaylov, J. L. Sonnenberg, D. Williams-Young, 
 F. Ding, F. Lipparini, F. Egidi, J. Goings, B. Peng, A. Petrone, 
 T. Henderson, D. Ranasinghe, V. G. Zakrzewski, J. Gao, N. Rega, 
 G. Zheng, W. Liang, M. Hada, M. Ehara, K. Toyota, R. Fukuda, 
 J. Hasegawa, M. Ishida, T. Nakajima, Y. Honda, O. Kitao, H. Nakai, 
 T. Vreven, K. Throssell, J. A. Montgomery, Jr., J. E. Peralta, 
 F. Ogliaro, M. J. Bearpark, J. J. Heyd, E. N. Brothers, K. N. Kudin, 
 V. N. Staroverov, T. A. Keith, R. Kobayashi, J. Normand, 
 K. Raghavachari, A. P. Rendell, J. C. Burant, S. S. Iyengar, 
 J. Tomasi, M. Cossi, J. M. Millam, M. Klene, C. Adamo, R. Cammi, 
 J. W. Ochterski, R. L. Martin, K. Morokuma, O. Farkas, 
 J. B. Foresman, and D. J. Fox, Gaussian, Inc., Wallingford CT, 2019.
 
 ******************************************
 Gaussian 16:  ES64L-G16RevC.02  7-Dec-2021
                30-Jun-2023 
 ******************************************
 %mem=8GB
 %NPROCS=4
 Will use up to    4 processors via shared memory.
 %NoSave
 ---------------------------------------------------------
 #MP2/6-31G* SCF=Tight Opt=(ModRedun, MaxCycle=20 ) NoSymm
 ---------------------------------------------------------
 1/6=20,18=120,19=15,38=1/1,3;
 2/9=110,12=2,15=1,17=6,18=5,40=1/2;
 3/5=1,6=6,7=1,11=9,25=1,30=1,71=1/1,2,3;
 4//1;
 5/5=2,32=2,38=5/2;
 8/6=4,10=2/1;
 9/15=2,16=-3/6;
 10/5=1,31=1/2;
 6/7=2,8=2,9=2,10=2/1;
 7/12=2,30=1/1,2,3,16;
 1/6=20,18=20,19=15/3(2);
 2/9=110,15=1/2;
 99//99;
 2/9=110,15=1/2;
 3/5=1,6=6,7=1,11=9,25=1,30=1,71=1/1,2,3;
 4/5=5,16=3,69=1/1;
 5/5=2,32=2,38=5/2;
 8/6=4,10=2/1;
 9/15=2,16=-3/6;
 10/5=1,31=1/2;
 7/12=2,30=1/1,2,3,16;
 1/6=20,18=20,19=15/3(-8);
 2/9=110,15=1/2;
 6/7=2,8=2,9=2,10=2/1;
 99/9=10/99;
 --------
 MolName:
 --------
 Symbolic Z-matrix:
 Charge =  0 Multiplicity = 1
 8                    0    -3.64376  -1.14702   0.58815 
 7                    0    -3.20482  -0.24854  -0.12472 
 8                    0    -3.87515   0.50695  -0.82663 
 6                    0    -1.73603   0.00148  -0.05017 
 6                    0    -1.37374   1.30331   0.29165 
 7                    0    -0.09142   1.74528   0.48305 
 6                    0     1.18968   0.97708   0.41101 
 1                    0     1.863     1.4529    1.17031 
 6                    0     1.93279   1.07399  -0.94483 
 6                    0     3.3504    0.48932  -0.79556 
 6                    0     3.30487  -0.94473  -0.24465 
 6                    0     2.47713  -1.02283   1.05616 
 6                    0     1.03352  -0.48983   0.8452 
 1                    0     0.49785  -0.56051   1.82088 
 7                    0     0.36784  -1.3398   -0.1474 
 6                    0    -0.87946  -1.14431  -0.42232 
 1                    0    -2.17835   2.03674   0.46907 
 1                    0     0.14395   2.73558   0.38232 
 1                    0     1.37371   0.51834  -1.72754 
 1                    0     2.00822   2.13474  -1.26539 
 1                    0     3.86986   0.49848  -1.77875 
 1                    0     3.93508   1.12452  -0.09319 
 1                    0     2.84989  -1.61301  -1.01022 
 1                    0     4.338    -1.30918  -0.05472 
 1                    0     2.43083  -2.08014   1.39775 
 1                    0     2.97886  -0.43207   1.85094 
 1                    0    -1.40274  -1.90375  -1.02338 
 
 The following ModRedundant input section has been read:
 D       1       2       4      16 F                                           
 D       7      13      15      16 F                                           
 D       7       9      10      11 F                                           
 D       9      10      11      12 F                                           
 D       6       7      13      15 F                                           
 

 GradGradGradGradGradGradGradGradGradGradGradGradGradGradGradGradGradGrad
 Berny optimization.
 Initialization pass.
                           ----------------------------
                           !    Initial Parameters    !
                           ! (Angstroms and Degrees)  !
 --------------------------                            --------------------------
 ! Name  Definition              Value          Derivative Info.                !
 --------------------------------------------------------------------------------
 ! R1    R(1,2)                  1.2281         estimate D2E/DX2                !
 ! R2    R(2,3)                  1.23           estimate D2E/DX2                !
 ! R3    R(2,4)                  1.4918         estimate D2E/DX2                !
 ! R4    R(4,5)                  1.3939         estimate D2E/DX2                !
 ! R5    R(4,16)                 1.4782         estimate D2E/DX2                !
 ! R6    R(5,6)                  1.3698         estimate D2E/DX2                !
 ! R7    R(5,17)                 1.1031         estimate D2E/DX2                !
 ! R8    R(6,7)                  1.4955         estimate D2E/DX2                !
 ! R9    R(6,18)                 1.0229         estimate D2E/DX2                !
 ! R10   R(7,8)                  1.1208         estimate D2E/DX2                !
 ! R11   R(7,9)                  1.5492         estimate D2E/DX2                !
 ! R12   R(7,13)                 1.5378         estimate D2E/DX2                !
 ! R13   R(9,10)                 1.5407         estimate D2E/DX2                !
 ! R14   R(9,19)                 1.1108         estimate D2E/DX2                !
 ! R15   R(9,20)                 1.1107         estimate D2E/DX2                !
 ! R16   R(10,11)                1.5369         estimate D2E/DX2                !
 ! R17   R(10,21)                1.112          estimate D2E/DX2                !
 ! R18   R(10,22)                1.1129         estimate D2E/DX2                !
 ! R19   R(11,12)                1.5438         estimate D2E/DX2                !
 ! R20   R(11,23)                1.1134         estimate D2E/DX2                !
 ! R21   R(11,24)                1.1119         estimate D2E/DX2                !
 ! R22   R(12,13)                1.5533         estimate D2E/DX2                !
 ! R23   R(12,25)                1.1121         estimate D2E/DX2                !
 ! R24   R(12,26)                1.1101         estimate D2E/DX2                !
 ! R25   R(13,14)                1.1153         estimate D2E/DX2                !
 ! R26   R(13,15)                1.4666         estimate D2E/DX2                !
 ! R27   R(15,16)                1.2921         estimate D2E/DX2                !
 ! R28   R(16,27)                1.1008         estimate D2E/DX2                !
 ! A1    A(1,2,3)              125.8645         estimate D2E/DX2                !
 ! A2    A(1,2,4)              116.4572         estimate D2E/DX2                !
 ! A3    A(3,2,4)              117.5277         estimate D2E/DX2                !
 ! A4    A(2,4,5)              115.1316         estimate D2E/DX2                !
 ! A5    A(2,4,16)             115.3439         estimate D2E/DX2                !
 ! A6    A(5,4,16)             129.4256         estimate D2E/DX2                !
 ! A7    A(4,5,6)              125.3759         estimate D2E/DX2                !
 ! A8    A(4,5,17)             118.0891         estimate D2E/DX2                !
 ! A9    A(6,5,17)             116.4769         estimate D2E/DX2                !
 ! A10   A(5,6,7)              129.0105         estimate D2E/DX2                !
 ! A11   A(5,6,18)             120.9334         estimate D2E/DX2                !
 ! A12   A(7,6,18)             107.185          estimate D2E/DX2                !
 ! A13   A(6,7,8)              105.3018         estimate D2E/DX2                !
 ! A14   A(6,7,9)              114.894          estimate D2E/DX2                !
 ! A15   A(6,7,13)             112.9179         estimate D2E/DX2                !
 ! A16   A(8,7,9)              106.1517         estimate D2E/DX2                !
 ! A17   A(8,7,13)             105.9433         estimate D2E/DX2                !
 ! A18   A(9,7,13)             110.8242         estimate D2E/DX2                !
 ! A19   A(7,9,10)             109.4406         estimate D2E/DX2                !
 ! A20   A(7,9,19)             110.1189         estimate D2E/DX2                !
 ! A21   A(7,9,20)             110.1767         estimate D2E/DX2                !
 ! A22   A(10,9,19)            109.9704         estimate D2E/DX2                !
 ! A23   A(10,9,20)            109.1411         estimate D2E/DX2                !
 ! A24   A(19,9,20)            107.9711         estimate D2E/DX2                !
 ! A25   A(9,10,11)            111.196          estimate D2E/DX2                !
 ! A26   A(9,10,21)            109.9395         estimate D2E/DX2                !
 ! A27   A(9,10,22)            109.1433         estimate D2E/DX2                !
 ! A28   A(11,10,21)           109.7826         estimate D2E/DX2                !
 ! A29   A(11,10,22)           108.7771         estimate D2E/DX2                !
 ! A30   A(21,10,22)           107.931          estimate D2E/DX2                !
 ! A31   A(10,11,12)           111.4149         estimate D2E/DX2                !
 ! A32   A(10,11,23)           109.0065         estimate D2E/DX2                !
 ! A33   A(10,11,24)           109.8494         estimate D2E/DX2                !
 ! A34   A(12,11,23)           109.2625         estimate D2E/DX2                !
 ! A35   A(12,11,24)           109.7357         estimate D2E/DX2                !
 ! A36   A(23,11,24)           107.4824         estimate D2E/DX2                !
 ! A37   A(11,12,13)           111.501          estimate D2E/DX2                !
 ! A38   A(11,12,25)           109.2222         estimate D2E/DX2                !
 ! A39   A(11,12,26)           109.5115         estimate D2E/DX2                !
 ! A40   A(13,12,25)           109.2246         estimate D2E/DX2                !
 ! A41   A(13,12,26)           109.5529         estimate D2E/DX2                !
 ! A42   A(25,12,26)           107.7491         estimate D2E/DX2                !
 ! A43   A(7,13,12)            105.742          estimate D2E/DX2                !
 ! A44   A(7,13,14)            110.8689         estimate D2E/DX2                !
 ! A45   A(7,13,15)            114.0699         estimate D2E/DX2                !
 ! A46   A(12,13,14)           107.8079         estimate D2E/DX2                !
 ! A47   A(12,13,15)           108.3552         estimate D2E/DX2                !
 ! A48   A(14,13,15)           109.7158         estimate D2E/DX2                !
 ! A49   A(13,15,16)           119.6355         estimate D2E/DX2                !
 ! A50   A(4,16,15)            128.5416         estimate D2E/DX2                !
 ! A51   A(4,16,27)            113.3754         estimate D2E/DX2                !
 ! A52   A(15,16,27)           118.077          estimate D2E/DX2                !
 ! D1    D(1,2,4,5)           -123.2713         estimate D2E/DX2                !
 ! D2    D(1,2,4,16)            59.9998         Frozen                          !
 ! D3    D(3,2,4,5)             52.5333         estimate D2E/DX2                !
 ! D4    D(3,2,4,16)          -124.1955         estimate D2E/DX2                !
 ! D5    D(2,4,5,6)            176.6238         estimate D2E/DX2                !
 ! D6    D(2,4,5,17)            -0.4978         estimate D2E/DX2                !
 ! D7    D(16,4,5,6)            -7.2041         estimate D2E/DX2                !
 ! D8    D(16,4,5,17)          175.6743         estimate D2E/DX2                !
 ! D9    D(2,4,16,15)         -161.1602         estimate D2E/DX2                !
 ! D10   D(2,4,16,27)           19.7543         estimate D2E/DX2                !
 ! D11   D(5,4,16,15)           22.6745         estimate D2E/DX2                !
 ! D12   D(5,4,16,27)         -156.4111         estimate D2E/DX2                !
 ! D13   D(4,5,6,7)             -1.5538         estimate D2E/DX2                !
 ! D14   D(4,5,6,18)           156.6887         estimate D2E/DX2                !
 ! D15   D(17,5,6,7)           175.6093         estimate D2E/DX2                !
 ! D16   D(17,5,6,18)          -26.1482         estimate D2E/DX2                !
 ! D17   D(5,6,7,8)           -146.9029         estimate D2E/DX2                !
 ! D18   D(5,6,7,9)             96.6793         estimate D2E/DX2                !
 ! D19   D(5,6,7,13)           -31.7609         estimate D2E/DX2                !
 ! D20   D(18,6,7,8)            52.5367         estimate D2E/DX2                !
 ! D21   D(18,6,7,9)           -63.8811         estimate D2E/DX2                !
 ! D22   D(18,6,7,13)          167.6787         estimate D2E/DX2                !
 ! D23   D(6,7,9,10)           168.5537         estimate D2E/DX2                !
 ! D24   D(6,7,9,19)           -70.4479         estimate D2E/DX2                !
 ! D25   D(6,7,9,20)            48.5436         estimate D2E/DX2                !
 ! D26   D(8,7,9,10)            52.6228         estimate D2E/DX2                !
 ! D27   D(8,7,9,19)           173.6211         estimate D2E/DX2                !
 ! D28   D(8,7,9,20)           -67.3873         estimate D2E/DX2                !
 ! D29   D(13,7,9,10)          -61.9667         estimate D2E/DX2                !
 ! D30   D(13,7,9,19)           59.0317         estimate D2E/DX2                !
 ! D31   D(13,7,9,20)          178.0232         estimate D2E/DX2                !
 ! D32   D(6,7,13,12)         -166.0142         estimate D2E/DX2                !
 ! D33   D(6,7,13,14)          -49.4297         estimate D2E/DX2                !
 ! D34   D(6,7,13,15)           75.0225         Frozen                          !
 ! D35   D(8,7,13,12)          -51.2577         estimate D2E/DX2                !
 ! D36   D(8,7,13,14)           65.3267         estimate D2E/DX2                !
 ! D37   D(8,7,13,15)         -170.221          estimate D2E/DX2                !
 ! D38   D(9,7,13,12)           63.4623         estimate D2E/DX2                !
 ! D39   D(9,7,13,14)         -179.9533         estimate D2E/DX2                !
 ! D40   D(9,7,13,15)          -55.501          estimate D2E/DX2                !
 ! D41   D(7,9,10,11)           54.8124         Frozen                          !
 ! D42   D(7,9,10,21)          176.6046         estimate D2E/DX2                !
 ! D43   D(7,9,10,22)          -65.192          estimate D2E/DX2                !
 ! D44   D(19,9,10,11)         -66.276          estimate D2E/DX2                !
 ! D45   D(19,9,10,21)          55.5162         estimate D2E/DX2                !
 ! D46   D(19,9,10,22)         173.7196         estimate D2E/DX2                !
 ! D47   D(20,9,10,11)         175.4549         estimate D2E/DX2                !
 ! D48   D(20,9,10,21)         -62.7529         estimate D2E/DX2                !
 ! D49   D(20,9,10,22)          55.4505         estimate D2E/DX2                !
 ! D50   D(9,10,11,12)         -52.8222         Frozen                          !
 ! D51   D(9,10,11,23)          67.8342         estimate D2E/DX2                !
 ! D52   D(9,10,11,24)        -174.6398         estimate D2E/DX2                !
 ! D53   D(21,10,11,12)       -174.7057         estimate D2E/DX2                !
 ! D54   D(21,10,11,23)        -54.0493         estimate D2E/DX2                !
 ! D55   D(21,10,11,24)         63.4767         estimate D2E/DX2                !
 ! D56   D(22,10,11,12)         67.3991         estimate D2E/DX2                !
 ! D57   D(22,10,11,23)       -171.9445         estimate D2E/DX2                !
 ! D58   D(22,10,11,24)        -54.4185         estimate D2E/DX2                !
 ! D59   D(10,11,12,13)         56.7309         estimate D2E/DX2                !
 ! D60   D(10,11,12,25)        177.5379         estimate D2E/DX2                !
 ! D61   D(10,11,12,26)        -64.6827         estimate D2E/DX2                !
 ! D62   D(23,11,12,13)        -63.7752         estimate D2E/DX2                !
 ! D63   D(23,11,12,25)         57.0318         estimate D2E/DX2                !
 ! D64   D(23,11,12,26)        174.8112         estimate D2E/DX2                !
 ! D65   D(24,11,12,13)        178.6144         estimate D2E/DX2                !
 ! D66   D(24,11,12,25)        -60.5786         estimate D2E/DX2                !
 ! D67   D(24,11,12,26)         57.2008         estimate D2E/DX2                !
 ! D68   D(11,12,13,7)         -60.5677         estimate D2E/DX2                !
 ! D69   D(11,12,13,14)       -179.2063         estimate D2E/DX2                !
 ! D70   D(11,12,13,15)         62.1148         estimate D2E/DX2                !
 ! D71   D(25,12,13,7)         178.6267         estimate D2E/DX2                !
 ! D72   D(25,12,13,14)         59.9881         estimate D2E/DX2                !
 ! D73   D(25,12,13,15)        -58.6909         estimate D2E/DX2                !
 ! D74   D(26,12,13,7)          60.8218         estimate D2E/DX2                !
 ! D75   D(26,12,13,14)        -57.8168         estimate D2E/DX2                !
 ! D76   D(26,12,13,15)       -176.4957         estimate D2E/DX2                !
 ! D77   D(7,13,15,16)         -67.1602         Frozen                          !
 ! D78   D(12,13,15,16)        175.3702         estimate D2E/DX2                !
 ! D79   D(14,13,15,16)         57.9065         estimate D2E/DX2                !
 ! D80   D(13,15,16,4)          12.111          estimate D2E/DX2                !
 ! D81   D(13,15,16,27)       -168.8404         estimate D2E/DX2                !
 --------------------------------------------------------------------------------
 Trust Radius=3.00D-01 FncErr=1.00D-07 GrdErr=1.00D-07 EigMax=2.50D+02 EigMin=1.00D-04
 Number of steps in this run=     20 maximum allowed number of steps=    162.
 GradGradGradGradGradGradGradGradGradGradGradGradGradGradGradGradGradGrad

                          Input orientation:                          
 ---------------------------------------------------------------------
 Center     Atomic      Atomic             Coordinates (Angstroms)
 Number     Number       Type             X           Y           Z
 ---------------------------------------------------------------------
      1          8           0       -3.643760   -1.147020    0.588150
      2          7           0       -3.204820   -0.248540   -0.124720
      3          8           0       -3.875150    0.506950   -0.826630
      4          6           0       -1.736030    0.001480   -0.050170
      5          6           0       -1.373740    1.303310    0.291650
      6          7           0       -0.091420    1.745280    0.483050
      7          6           0        1.189680    0.977080    0.411010
      8          1           0        1.863000    1.452900    1.170310
      9          6           0        1.932790    1.073990   -0.944830
     10          6           0        3.350400    0.489320   -0.795560
     11          6           0        3.304870   -0.944730   -0.244650
     12          6           0        2.477130   -1.022830    1.056160
     13          6           0        1.033520   -0.489830    0.845200
     14          1           0        0.497850   -0.560510    1.820880
     15          7           0        0.367840   -1.339800   -0.147400
     16          6           0       -0.879460   -1.144310   -0.422320
     17          1           0       -2.178350    2.036740    0.469070
     18          1           0        0.143950    2.735580    0.382320
     19          1           0        1.373710    0.518340   -1.727540
     20          1           0        2.008220    2.134740   -1.265390
     21          1           0        3.869860    0.498480   -1.778750
     22          1           0        3.935080    1.124520   -0.093190
     23          1           0        2.849890   -1.613010   -1.010220
     24          1           0        4.338000   -1.309180   -0.054720
     25          1           0        2.430830   -2.080140    1.397750
     26          1           0        2.978860   -0.432070    1.850940
     27          1           0       -1.402740   -1.903750   -1.023380
 ---------------------------------------------------------------------
                    Distance matrix (angstroms):
                    1          2          3          4          5
     1  O    0.000000
     2  N    1.228055   0.000000
     3  O    2.188781   1.229953   0.000000
     4  C    2.316450   1.491781   2.331142   0.000000
     5  C    3.353360   2.436074   2.853382   1.393864   0.000000
     6  N    4.582092   3.746727   4.191102   2.455586   1.369787
     7  C    5.282549   4.593559   5.235005   3.118375   2.586850
     8  H    6.117426   5.500436   6.148899   4.068072   3.357217
     9  C    6.195226   5.368119   5.836752   3.925676   3.537600
    10  C    7.315090   6.630639   7.225638   5.163852   4.915496
    11  C    7.001281   6.547910   7.348385   5.132622   5.218304
    12  C    6.140012   5.854789   6.799749   4.474807   4.563398
    13  C    4.730214   4.354594   5.280495   2.951860   3.052322
    14  H    4.360797   4.194335   5.222251   2.967639   3.052084
    15  N    4.083030   3.735674   4.677051   2.496949   3.195606
    16  C    2.943197   2.509635   3.444457   1.478189   2.597096
    17  H    3.506841   2.574632   2.626447   2.146518   1.103084
    18  H    5.428047   4.514014   4.752001   3.346143   2.088780
    19  H    5.771555   4.911219   5.325627   3.570882   3.498827
    20  H    6.793411   5.844394   6.120151   4.477384   3.814879
    21  H    8.047631   7.303763   7.803319   5.887359   5.694704
    22  H    7.941217   7.270795   7.868864   5.781398   5.325752
    23  H    6.703687   6.269402   7.053659   4.955697   5.295171
    24  H    8.009249   7.617348   8.446893   6.213831   6.290393
    25  H    6.198936   6.118270   7.169818   4.877739   5.210177
    26  H    6.779741   6.494214   7.418126   5.102193   4.938426
    27  H    2.862139   2.606684   3.458756   2.165207   3.466321
                    6          7          8          9         10
     6  N    0.000000
     7  C    1.495506   0.000000
     8  H    2.092264   1.120848   0.000000
     9  C    2.566495   1.549163   2.149944   0.000000
    10  C    3.880516   2.522386   2.646789   1.540694   0.000000
    11  C    4.393232   2.932111   3.135240   2.539308   1.536904
    12  C    3.819468   2.464424   2.553316   2.949054   2.545204
    13  C    2.528312   1.537768   2.137272   2.541344   3.003125
    14  H    2.730146   2.197850   2.518074   3.518493   4.010604
    15  N    3.182154   2.520947   3.430894   2.985188   3.558294
    16  C    3.128967   3.078323   4.099153   3.619754   4.549700
    17  H    2.107231   3.531271   4.143081   4.452805   5.878850
    18  H    1.022859   2.046142   2.285023   2.778877   4.088326
    19  H    2.922105   2.194927   3.083884   1.110834   2.185574
    20  H    2.759929   2.195564   2.533501   1.110693   2.174763
    21  H    4.728846   3.493919   3.692609   2.186064   1.112019
    22  H    4.114620   2.795206   2.449037   2.176467   1.112948
    23  H    4.707364   3.388917   3.889533   2.839950   2.171723
    24  H    5.407281   3.918649   3.905817   3.500976   2.181467
    25  H    4.672500   3.443937   3.585601   3.960336   3.501192
    26  H    4.004822   2.694488   2.293799   3.343473   2.826829
    27  H    4.159845   4.132469   5.171502   4.472009   5.326446
                   11         12         13         14         15
    11  C    0.000000
    12  C    1.543813   0.000000
    13  C    2.560027   1.553256   0.000000
    14  H    3.506195   2.171655   1.115298   0.000000
    15  N    2.965077   2.449108   1.466572   2.120925   0.000000
    16  C    4.192853   3.669790   2.386303   2.696248   1.292112
    17  H    6.282059   5.601708   4.103796   3.966755   4.273657
    18  H    4.891747   4.474755   3.377701   3.613711   4.115757
    19  H    2.840584   3.367748   2.784085   3.810818   2.638428
    20  H    3.493758   3.947115   3.506137   4.366996   4.001647
    21  H    2.180718   3.505823   3.988320   5.044725   4.278402
    22  H    2.168387   2.838615   3.450471   4.279900   4.336013
    23  H    1.113419   2.181098   2.829013   3.828182   2.641907
    24  H    1.111870   2.186067   3.521474   4.338794   3.971360
    25  H    2.179582   1.112084   2.187892   2.494940   2.681701
    26  H    2.181880   1.110138   2.190707   2.484514   3.410977
    27  H    4.867004   4.489309   3.380255   3.675099   2.054345
                   16         17         18         19         20
    16  C    0.000000
    17  H    3.549756   0.000000
    18  H    4.092476   2.426722   0.000000
    19  H    3.089463   4.443846   3.298480   0.000000
    20  H    4.449902   4.532695   2.559582   1.796924   0.000000
    21  H    5.205257   6.633233   4.853581   2.496754   2.531124
    22  H    5.332515   6.206634   4.146600   3.098253   2.471313
    23  H    3.804387   6.386875   5.307684   2.690039   3.849565
    24  H    5.232992   7.343865   5.843042   3.863311   4.330610
    25  H    3.891844   6.249455   5.426977   4.199647   5.003611
    26  H    4.534493   5.882296   4.497507   4.035506   4.152369
    27  H    1.100838   4.284442   5.088381   3.751138   5.291750
                   21         22         23         24         25
    21  H    0.000000
    22  H    1.799248   0.000000
    23  H    2.467664   3.084259   0.000000
    24  H    2.541470   2.467128   1.794370   0.000000
    25  H    4.337077   3.841291   2.488401   2.518203   0.000000
    26  H    3.851552   2.667765   3.097981   2.499625   1.794952
    27  H    5.843082   6.207092   4.262577   5.852172   4.537537
                   26         27
    26  H    0.000000
    27  H    5.442975   0.000000
 Symmetry turned off by external request.
 Stoichiometry    C9H13N3O2
 Framework group  C1[X(C9H13N3O2)]
 Deg. of freedom    75
 Full point group                 C1      NOp   1
 Rotational constants (GHZ):           1.6619633           0.4044243           0.3644250
 Standard basis: 6-31G(d) (6D, 7F)
   236 basis functions,   444 primitive gaussians,   236 cartesian basis functions
    52 alpha electrons       52 beta electrons
       nuclear repulsion energy       920.1039598892 Hartrees.
 NAtoms=   27 NActive=   27 NUniq=   27 SFac= 1.00D+00 NAtFMM=   60 NAOKFM=F Big=F
 Integral buffers will be    131072 words long.
 Raffenetti 1 integral format.
 Two-electron integral symmetry is turned off.
 One-electron integrals computed using PRISM.
 NBasis=   236 RedAO= T EigKep=  1.70D-03  NBF=   236
 NBsUse=   236 1.00D-06 EigRej= -1.00D+00 NBFU=   236
 ExpMin= 1.61D-01 ExpMax= 5.48D+03 ExpMxC= 8.25D+02 IAcc=3 IRadAn=         5 AccDes= 0.00D+00
 Harris functional with IExCor=  205 and IRadAn=       5 diagonalized for initial guess.
 HarFok:  IExCor=  205 AccDes= 0.00D+00 IRadAn=         5 IDoV= 1 UseB2=F ITyADJ=14
 ICtDFT=  3500011 ScaDFX=  1.000000  1.000000  1.000000  1.000000
 FoFCou: FMM=F IPFlag=           0 FMFlag=      100000 FMFlg1=           0
         NFxFlg=           0 DoJE=T BraDBF=F KetDBF=T FulRan=T
         wScrn=  0.000000 ICntrl=       500 IOpCl=  0 I1Cent=   200000004 NGrid=           0
         NMat0=    1 NMatS0=      1 NMatT0=    0 NMatD0=    1 NMtDS0=    0 NMtDT0=    0
 Symmetry not used in FoFCou.
 Keep R1 ints in memory in canonical form, NReq=397720213.
 Requested convergence on RMS density matrix=1.00D-08 within 128 cycles.
 Requested convergence on MAX density matrix=1.00D-06.
 Requested convergence on             energy=1.00D-06.
 No special actions if energy rises.
 SCF Done:  E(RHF) =  -661.273821087     A.U. after   17 cycles
            NFock= 17  Conv=0.52D-08     -V/T= 2.0035
 ExpMin= 1.61D-01 ExpMax= 5.48D+03 ExpMxC= 8.25D+02 IAcc=3 IRadAn=         5 AccDes= 0.00D+00
 HarFok:  IExCor=  205 AccDes= 0.00D+00 IRadAn=         5 IDoV=-2 UseB2=F ITyADJ=14
 ICtDFT= 12500011 ScaDFX=  1.000000  1.000000  1.000000  1.000000
 Range of M.O.s used for correlation:    15   236
 NBasis=   236 NAE=    52 NBE=    52 NFC=    14 NFV=     0
 NROrb=    222 NOA=    38 NOB=    38 NVA=   184 NVB=   184
 Fully direct method using O(ONN) memory.
 JobTyp=1 Pass  1:  I=  15 to  52 NPSUse=  4 ParTrn=T ParDer=T DoDerP=T.
 Spin components of T(2) and E(2):
     alpha-alpha T2 =       0.9179967936D-01 E2=     -0.2717650548D+00
     alpha-beta  T2 =       0.5009312392D+00 E2=     -0.1495300751D+01
     beta-beta   T2 =       0.9179967936D-01 E2=     -0.2717650548D+00
 ANorm=    0.1297894679D+01
 E2 =    -0.2038830861D+01 EUMP2 =    -0.66331265194784D+03
          IDoAtm=111111111111111111111111111
          Differentiating once with respect to electric field.
                with respect to dipole field.
          Differentiating once with respect to nuclear coordinates.
 Keep R1 ints in memory in canonical form, NReq=397723379.
          There are     1 degrees of freedom in the 1st order CPHF.  IDoFFX=0 NUNeed=     1.
 LinEq1:  Iter=  0 NonCon=     1 RMS=4.52D-03 Max=1.23D-01 NDo=     1
 AX will form     1 AO Fock derivatives at one time.
 LinEq1:  Iter=  1 NonCon=     1 RMS=1.51D-03 Max=3.10D-02 NDo=     1
 LinEq1:  Iter=  2 NonCon=     1 RMS=6.20D-04 Max=1.80D-02 NDo=     1
 LinEq1:  Iter=  3 NonCon=     1 RMS=2.82D-04 Max=6.35D-03 NDo=     1
 LinEq1:  Iter=  4 NonCon=     1 RMS=8.61D-05 Max=1.79D-03 NDo=     1
 LinEq1:  Iter=  5 NonCon=     1 RMS=3.45D-05 Max=1.43D-03 NDo=     1
 LinEq1:  Iter=  6 NonCon=     1 RMS=1.44D-05 Max=6.45D-04 NDo=     1
 LinEq1:  Iter=  7 NonCon=     1 RMS=5.41D-06 Max=1.06D-04 NDo=     1
 LinEq1:  Iter=  8 NonCon=     1 RMS=2.18D-06 Max=5.46D-05 NDo=     1
 LinEq1:  Iter=  9 NonCon=     1 RMS=7.22D-07 Max=1.22D-05 NDo=     1
 LinEq1:  Iter= 10 NonCon=     1 RMS=3.40D-07 Max=1.41D-05 NDo=     1
 LinEq1:  Iter= 11 NonCon=     1 RMS=1.49D-07 Max=4.52D-06 NDo=     1
 LinEq1:  Iter= 12 NonCon=     1 RMS=6.02D-08 Max=1.07D-06 NDo=     1
 LinEq1:  Iter= 13 NonCon=     1 RMS=1.89D-08 Max=4.77D-07 NDo=     1
 LinEq1:  Iter= 14 NonCon=     1 RMS=6.60D-09 Max=1.67D-07 NDo=     1
 LinEq1:  Iter= 15 NonCon=     1 RMS=2.54D-09 Max=4.93D-08 NDo=     1
 LinEq1:  Iter= 16 NonCon=     1 RMS=9.31D-10 Max=1.97D-08 NDo=     1
 LinEq1:  Iter= 17 NonCon=     1 RMS=2.84D-10 Max=4.42D-09 NDo=     1
 LinEq1:  Iter= 18 NonCon=     1 RMS=1.00D-10 Max=2.15D-09 NDo=     1
 LinEq1:  Iter= 19 NonCon=     0 RMS=3.12D-11 Max=5.05D-10 NDo=     1
 Linear equations converged to 1.000D-10 1.000D-09 after    19 iterations.
 End of Minotr F.D. properties file   721 does not exist.
 End of Minotr F.D. properties file   722 does not exist.
 End of Minotr F.D. properties file   788 does not exist.

 **********************************************************************

            Population analysis using the SCF Density.

 **********************************************************************

 Alpha  occ. eigenvalues --  -20.60389 -20.60267 -15.85022 -15.62610 -15.56784
 Alpha  occ. eigenvalues --  -11.35351 -11.30850 -11.29857 -11.29390 -11.27632
 Alpha  occ. eigenvalues --  -11.24410 -11.23735 -11.23293 -11.22755  -1.59118
 Alpha  occ. eigenvalues --   -1.38803  -1.28189  -1.22670  -1.13472  -1.08854
 Alpha  occ. eigenvalues --   -1.01689  -1.00666  -0.93786  -0.88968  -0.84741
 Alpha  occ. eigenvalues --   -0.81759  -0.78357  -0.77162  -0.74107  -0.71382
 Alpha  occ. eigenvalues --   -0.71145  -0.69079  -0.66937  -0.64484  -0.63071
 Alpha  occ. eigenvalues --   -0.61630  -0.60374  -0.57319  -0.56339  -0.54750
 Alpha  occ. eigenvalues --   -0.53616  -0.50891  -0.50267  -0.48658  -0.48008
 Alpha  occ. eigenvalues --   -0.47632  -0.46181  -0.45526  -0.44116  -0.42015
 Alpha  occ. eigenvalues --   -0.39921  -0.33013
 Alpha virt. eigenvalues --    0.08456   0.10650   0.18402   0.21081   0.23111
 Alpha virt. eigenvalues --    0.24208   0.25398   0.27784   0.28629   0.28793
 Alpha virt. eigenvalues --    0.29057   0.30874   0.31946   0.32410   0.33406
 Alpha virt. eigenvalues --    0.33927   0.34911   0.36419   0.37725   0.38608
 Alpha virt. eigenvalues --    0.40729   0.41861   0.44538   0.45140   0.45491
 Alpha virt. eigenvalues --    0.47061   0.49290   0.53542   0.57512   0.58084
 Alpha virt. eigenvalues --    0.62103   0.68801   0.69357   0.72228   0.74063
 Alpha virt. eigenvalues --    0.74437   0.75865   0.76132   0.78050   0.78912
 Alpha virt. eigenvalues --    0.80542   0.82967   0.84804   0.85489   0.88333
 Alpha virt. eigenvalues --    0.88956   0.89468   0.91169   0.91986   0.93249
 Alpha virt. eigenvalues --    0.94616   0.97131   0.98596   1.00739   1.01602
 Alpha virt. eigenvalues --    1.03851   1.05190   1.06564   1.07585   1.08491
 Alpha virt. eigenvalues --    1.10117   1.10592   1.10777   1.11003   1.12743
 Alpha virt. eigenvalues --    1.13334   1.13906   1.14629   1.15304   1.15997
 Alpha virt. eigenvalues --    1.17115   1.17404   1.18684   1.20991   1.21954
 Alpha virt. eigenvalues --    1.23114   1.23725   1.25506   1.26048   1.28505
 Alpha virt. eigenvalues --    1.29900   1.32275   1.32861   1.34169   1.38083
 Alpha virt. eigenvalues --    1.39608   1.41257   1.43622   1.47465   1.51670
 Alpha virt. eigenvalues --    1.53211   1.55675   1.60377   1.63143   1.67352
 Alpha virt. eigenvalues --    1.68412   1.71639   1.72851   1.74009   1.75119
 Alpha virt. eigenvalues --    1.78450   1.78879   1.84783   1.90105   1.90206
 Alpha virt. eigenvalues --    1.92222   1.97138   1.98079   1.99898   2.00719
 Alpha virt. eigenvalues --    2.02694   2.03758   2.06025   2.10189   2.12051
 Alpha virt. eigenvalues --    2.12860   2.15721   2.17518   2.18842   2.20102
 Alpha virt. eigenvalues --    2.22008   2.22570   2.25263   2.26279   2.27490
 Alpha virt. eigenvalues --    2.30018   2.31062   2.33111   2.34489   2.35603
 Alpha virt. eigenvalues --    2.38788   2.39338   2.41394   2.43638   2.45354
 Alpha virt. eigenvalues --    2.48422   2.49848   2.51634   2.56673   2.57287
 Alpha virt. eigenvalues --    2.60821   2.63114   2.65690   2.68303   2.69586
 Alpha virt. eigenvalues --    2.69943   2.71766   2.73486   2.75574   2.83283
 Alpha virt. eigenvalues --    2.85716   2.86130   2.88571   2.93730   2.95684
 Alpha virt. eigenvalues --    2.97218   3.00358   3.03775   3.05474   3.06154
 Alpha virt. eigenvalues --    3.08288   3.13433   3.19282   3.20663   3.24873
 Alpha virt. eigenvalues --    3.28433   3.33499   3.38787   3.40075   3.59323
 Alpha virt. eigenvalues --    4.10973   4.20415   4.25386   4.32540   4.44519
 Alpha virt. eigenvalues --    4.53012   4.59895   4.61422   4.71244   4.77598
 Alpha virt. eigenvalues --    4.97717   4.99393   5.03693   5.09923
          Condensed to atoms (all electrons):
               1          2          3          4          5          6
     1  O    8.296476   0.302581  -0.080314  -0.084661   0.000244  -0.000037
     2  N    0.302581   5.767956   0.297649   0.240578  -0.044507   0.001329
     3  O   -0.080314   0.297649   8.311439  -0.088503   0.008626   0.000242
     4  C   -0.084661   0.240578  -0.088503   5.240580   0.588254  -0.053458
     5  C    0.000244  -0.044507   0.008626   0.588254   4.634859   0.316055
     6  N   -0.000037   0.001329   0.000242  -0.053458   0.316055   7.176776
     7  C    0.000006  -0.000104  -0.000003   0.003655  -0.030187   0.206905
     8  H   -0.000000   0.000002  -0.000000  -0.000160   0.002423  -0.048798
     9  C    0.000000  -0.000005   0.000000   0.000448   0.001945  -0.058198
    10  C   -0.000000   0.000000   0.000000  -0.000019  -0.000075   0.003405
    11  C   -0.000000  -0.000000  -0.000000  -0.000018   0.000017  -0.000156
    12  C   -0.000000   0.000001   0.000000  -0.000096  -0.000159   0.003591
    13  C   -0.000025  -0.000035   0.000001  -0.009580   0.000473  -0.045757
    14  H   -0.000008  -0.000055   0.000001   0.002311   0.004479  -0.005390
    15  N    0.000002   0.001988  -0.000035  -0.066201  -0.005252   0.002864
    16  C    0.005750  -0.029275   0.001439   0.318052  -0.031120  -0.001552
    17  H   -0.000103  -0.002211   0.004863  -0.033862   0.384488  -0.031436
    18  H    0.000000  -0.000051   0.000008   0.001646  -0.023925   0.328461
    19  H   -0.000000   0.000000   0.000000  -0.000892   0.000644   0.000623
    20  H   -0.000000  -0.000000   0.000000  -0.000030   0.000011  -0.001376
    21  H    0.000000  -0.000000  -0.000000   0.000000   0.000001  -0.000061
    22  H   -0.000000   0.000000   0.000000  -0.000000  -0.000002  -0.000096
    23  H   -0.000000  -0.000000   0.000000   0.000024  -0.000000  -0.000023
    24  H   -0.000000   0.000000   0.000000   0.000000  -0.000000   0.000004
    25  H    0.000000  -0.000000   0.000000   0.000020  -0.000001  -0.000070
    26  H   -0.000000  -0.000000   0.000000   0.000004  -0.000000  -0.000068
    27  H    0.001331   0.000502   0.000046  -0.076317   0.001909   0.000043
               7          8          9         10         11         12
     1  O    0.000006  -0.000000   0.000000  -0.000000  -0.000000  -0.000000
     2  N   -0.000104   0.000002  -0.000005   0.000000  -0.000000   0.000001
     3  O   -0.000003  -0.000000   0.000000   0.000000  -0.000000   0.000000
     4  C    0.003655  -0.000160   0.000448  -0.000019  -0.000018  -0.000096
     5  C   -0.030187   0.002423   0.001945  -0.000075   0.000017  -0.000159
     6  N    0.206905  -0.048798  -0.058198   0.003405  -0.000156   0.003591
     7  C    5.005781   0.415824   0.341832  -0.049526  -0.007666  -0.064303
     8  H    0.415824   0.547598  -0.060412   0.001239  -0.000264  -0.003047
     9  C    0.341832  -0.060412   5.180124   0.317914  -0.053144  -0.005889
    10  C   -0.049526   0.001239   0.317914   5.127705   0.332708  -0.060287
    11  C   -0.007666  -0.000264  -0.053144   0.332708   5.124499   0.330460
    12  C   -0.064303  -0.003047  -0.005889  -0.060287   0.330460   5.137704
    13  C    0.329099  -0.039199  -0.052092  -0.001432  -0.048057   0.367569
    14  H   -0.040323  -0.000952   0.003825  -0.000385   0.003941  -0.040561
    15  N   -0.059433   0.003979  -0.012437   0.001505  -0.007815  -0.073929
    16  C   -0.002257  -0.000017  -0.000564  -0.000054   0.000008   0.002520
    17  H    0.001605  -0.000035  -0.000066   0.000001   0.000000   0.000001
    18  H   -0.029452  -0.002911   0.000778  -0.000117   0.000011  -0.000140
    19  H   -0.035165   0.004078   0.386589  -0.033030  -0.002240   0.000615
    20  H   -0.041481  -0.001780   0.397235  -0.037377   0.004134  -0.000362
    21  H    0.004056  -0.000081  -0.035828   0.399987  -0.035918   0.004228
    22  H   -0.004281   0.003535  -0.045567   0.395840  -0.045604  -0.001262
    23  H    0.000430   0.000034  -0.001986  -0.040171   0.396693  -0.036731
    24  H   -0.000146  -0.000100   0.004384  -0.038482   0.400279  -0.037888
    25  H    0.004994  -0.000001  -0.000380   0.004102  -0.033950   0.395368
    26  H   -0.004472   0.001538   0.001056  -0.002412  -0.042234   0.394693
    27  H   -0.000408   0.000009  -0.000056   0.000004   0.000005  -0.000026
              13         14         15         16         17         18
     1  O   -0.000025  -0.000008   0.000002   0.005750  -0.000103   0.000000
     2  N   -0.000035  -0.000055   0.001988  -0.029275  -0.002211  -0.000051
     3  O    0.000001   0.000001  -0.000035   0.001439   0.004863   0.000008
     4  C   -0.009580   0.002311  -0.066201   0.318052  -0.033862   0.001646
     5  C    0.000473   0.004479  -0.005252  -0.031120   0.384488  -0.023925
     6  N   -0.045757  -0.005390   0.002864  -0.001552  -0.031436   0.328461
     7  C    0.329099  -0.040323  -0.059433  -0.002257   0.001605  -0.029452
     8  H   -0.039199  -0.000952   0.003979  -0.000017  -0.000035  -0.002911
     9  C   -0.052092   0.003825  -0.012437  -0.000564  -0.000066   0.000778
    10  C   -0.001432  -0.000385   0.001505  -0.000054   0.000001  -0.000117
    11  C   -0.048057   0.003941  -0.007815   0.000008   0.000000   0.000011
    12  C    0.367569  -0.040561  -0.073929   0.002520   0.000001  -0.000140
    13  C    5.019807   0.404058   0.247007  -0.070984  -0.000057   0.003773
    14  H    0.404058   0.514034  -0.035922  -0.004650   0.000051   0.000012
    15  N    0.247007  -0.035922   6.918985   0.607512  -0.000047  -0.000126
    16  C   -0.070984  -0.004650   0.607512   4.660492   0.001562  -0.000144
    17  H   -0.000057   0.000051  -0.000047   0.001562   0.407814  -0.002257
    18  H    0.003773   0.000012  -0.000126  -0.000144  -0.002257   0.328861
    19  H   -0.006085   0.000061   0.006695   0.002357   0.000011  -0.000120
    20  H    0.003888  -0.000050   0.000079  -0.000031  -0.000003   0.002726
    21  H   -0.000391   0.000009  -0.000034   0.000002  -0.000000  -0.000000
    22  H    0.000329  -0.000043   0.000005  -0.000001   0.000000   0.000003
    23  H   -0.005881   0.000007   0.006732   0.000087   0.000000   0.000000
    24  H    0.004152  -0.000059   0.000036   0.000005   0.000000  -0.000000
    25  H   -0.034567  -0.002661   0.000886  -0.000048  -0.000000   0.000002
    26  H   -0.044662  -0.000887   0.004154  -0.000051   0.000000  -0.000001
    27  H    0.005001  -0.000159  -0.037125   0.405933  -0.000068   0.000002
              19         20         21         22         23         24
     1  O   -0.000000  -0.000000   0.000000  -0.000000  -0.000000  -0.000000
     2  N    0.000000  -0.000000  -0.000000   0.000000  -0.000000   0.000000
     3  O    0.000000   0.000000  -0.000000   0.000000   0.000000   0.000000
     4  C   -0.000892  -0.000030   0.000000  -0.000000   0.000024   0.000000
     5  C    0.000644   0.000011   0.000001  -0.000002  -0.000000  -0.000000
     6  N    0.000623  -0.001376  -0.000061  -0.000096  -0.000023   0.000004
     7  C   -0.035165  -0.041481   0.004056  -0.004281   0.000430  -0.000146
     8  H    0.004078  -0.001780  -0.000081   0.003535   0.000034  -0.000100
     9  C    0.386589   0.397235  -0.035828  -0.045567  -0.001986   0.004384
    10  C   -0.033030  -0.037377   0.399987   0.395840  -0.040171  -0.038482
    11  C   -0.002240   0.004134  -0.035918  -0.045604   0.396693   0.400279
    12  C    0.000615  -0.000362   0.004228  -0.001262  -0.036731  -0.037888
    13  C   -0.006085   0.003888  -0.000391   0.000329  -0.005881   0.004152
    14  H    0.000061  -0.000050   0.000009  -0.000043   0.000007  -0.000059
    15  N    0.006695   0.000079  -0.000034   0.000005   0.006732   0.000036
    16  C    0.002357  -0.000031   0.000002  -0.000001   0.000087   0.000005
    17  H    0.000011  -0.000003  -0.000000   0.000000   0.000000   0.000000
    18  H   -0.000120   0.002726  -0.000000   0.000003   0.000000  -0.000000
    19  H    0.508078  -0.023840  -0.002597   0.003774   0.001655  -0.000072
    20  H   -0.023840   0.549083  -0.002643  -0.002942  -0.000050  -0.000090
    21  H   -0.002597  -0.002643   0.527110  -0.024768  -0.002827  -0.002075
    22  H    0.003774  -0.002942  -0.024768   0.569339   0.004071  -0.003590
    23  H    0.001655  -0.000050  -0.002827   0.004071   0.510875  -0.025061
    24  H   -0.000072  -0.000090  -0.002075  -0.003590  -0.025061   0.541639
    25  H   -0.000027   0.000011  -0.000086  -0.000082  -0.002080  -0.002395
    26  H    0.000023  -0.000035  -0.000073   0.002455   0.003822  -0.002749
    27  H    0.000084   0.000000  -0.000000   0.000000  -0.000021  -0.000000
              25         26         27
     1  O    0.000000  -0.000000   0.001331
     2  N   -0.000000  -0.000000   0.000502
     3  O    0.000000   0.000000   0.000046
     4  C    0.000020   0.000004  -0.076317
     5  C   -0.000001  -0.000000   0.001909
     6  N   -0.000070  -0.000068   0.000043
     7  C    0.004994  -0.004472  -0.000408
     8  H   -0.000001   0.001538   0.000009
     9  C   -0.000380   0.001056  -0.000056
    10  C    0.004102  -0.002412   0.000004
    11  C   -0.033950  -0.042234   0.000005
    12  C    0.395368   0.394693  -0.000026
    13  C   -0.034567  -0.044662   0.005001
    14  H   -0.002661  -0.000887  -0.000159
    15  N    0.000886   0.004154  -0.037125
    16  C   -0.000048  -0.000051   0.405933
    17  H   -0.000000   0.000000  -0.000068
    18  H    0.000002  -0.000001   0.000002
    19  H   -0.000027   0.000023   0.000084
    20  H    0.000011  -0.000035   0.000000
    21  H   -0.000086  -0.000073  -0.000000
    22  H   -0.000082   0.002455   0.000000
    23  H   -0.002080   0.003822  -0.000021
    24  H   -0.002395  -0.002749  -0.000000
    25  H    0.510788  -0.023149  -0.000012
    26  H   -0.023149   0.560722   0.000001
    27  H   -0.000012   0.000001   0.475166
 Mulliken charges:
               1
     1  O   -0.441241
     2  N    0.463657
     3  O   -0.455461
     4  C    0.018223
     5  C    0.190801
     6  N   -0.793823
     7  C    0.055021
     8  H    0.177500
     9  C   -0.309507
    10  C   -0.321044
    11  C   -0.315690
    12  C   -0.312071
    13  C   -0.026354
    14  H    0.199316
    15  N   -0.504074
    16  C    0.135030
    17  H    0.269750
    18  H    0.392960
    19  H    0.188780
    20  H    0.154926
    21  H    0.171990
    22  H    0.148885
    23  H    0.190403
    24  H    0.162205
    25  H    0.183337
    26  H    0.152325
    27  H    0.224154
 Sum of Mulliken charges =  -0.00000
 Mulliken charges with hydrogens summed into heavy atoms:
               1
     1  O   -0.441241
     2  N    0.463657
     3  O   -0.455461
     4  C    0.018223
     5  C    0.460550
     6  N   -0.400863
     7  C    0.232521
     9  C    0.034199
    10  C   -0.000168
    11  C    0.036918
    12  C    0.023592
    13  C    0.172962
    15  N   -0.504074
    16  C    0.359185
 Electronic spatial extent (au):  <R**2>=           3080.4559
 Charge=              0.0000 electrons
 Dipole moment (field-independent basis, Debye):
    X=              4.8259    Y=              4.1427    Z=              0.7373  Tot=              6.4027
 Quadrupole moment (field-independent basis, Debye-Ang):
   XX=           -102.5239   YY=            -78.6508   ZZ=            -84.4419
   XY=             -1.4723   XZ=             -0.0953   YZ=              3.3905
 Traceless Quadrupole moment (field-independent basis, Debye-Ang):
   XX=            -13.9850   YY=              9.8881   ZZ=              4.0969
   XY=             -1.4723   XZ=             -0.0953   YZ=              3.3905
 Octapole moment (field-independent basis, Debye-Ang**2):
  XXX=             82.9941  YYY=             32.2699  ZZZ=             -2.5762  XYY=             -9.5898
  XXY=             12.1295  XXZ=              7.2495  XZZ=             -1.4617  YZZ=             -3.2462
  YYZ=              0.8985  XYZ=            -12.6929
 Hexadecapole moment (field-independent basis, Debye-Ang**3):
 XXXX=          -3427.0607 YYYY=           -592.3995 ZZZZ=           -332.0882 XXXY=            -43.0311
 XXXZ=            -26.5334 YYYX=             -3.7797 YYYZ=             37.0908 ZZZX=             -0.6158
 ZZZY=             28.0215 XXYY=           -616.2858 XXZZ=           -565.9212 YYZZ=           -166.7087
 XXYZ=             50.1200 YYXZ=             10.6420 ZZXY=              5.6744
 N-N= 9.201039598892D+02 E-N=-3.386304140193D+03  KE= 6.589694331895D+02
 Calling FoFJK, ICntrl=  10002127 FMM=F ISym2X=0 I1Cent= 0 IOpClX= 0 NMat=1 NMatS=1 NMatT=0.
 -------------------------------------------------------------------
 Center     Atomic                   Forces (Hartrees/Bohr)
 Number     Number              X              Y              Z
 -------------------------------------------------------------------
      1        8          -0.007920217   -0.022397051    0.006786242
      2        7           0.036615171    0.017066703    0.008750316
      3        8          -0.013483590    0.011405450   -0.012263550
      4        6           0.005130379    0.009433978    0.004080243
      5        6           0.005086865   -0.020162638   -0.009521396
      6        7           0.018833706   -0.003841555   -0.003826573
      7        6          -0.006239918    0.005888262    0.002716190
      8        1          -0.010429828   -0.001614787   -0.007549157
      9        6          -0.003704956    0.000069073   -0.001885560
     10        6           0.002781453   -0.000924517    0.000694858
     11        6          -0.000759372   -0.004408947   -0.002369358
     12        6           0.000675791   -0.008980721   -0.003461205
     13        6           0.008393304   -0.000998379    0.002658294
     14        1           0.000641104    0.004275377   -0.010227540
     15        7           0.001241568   -0.003904507    0.003696411
     16        6          -0.015324533    0.013182052    0.008345351
     17        1           0.009327707   -0.004624436   -0.004506775
     18        1          -0.017326034   -0.002645571    0.004482095
     19        1           0.003160520    0.005637843    0.007696726
     20        1          -0.003229823   -0.007564536    0.002470207
     21        1          -0.004139363    0.002070680    0.009749006
     22        1          -0.004093683   -0.003787609   -0.007433430
     23        1           0.004031657    0.005820441    0.009404525
     24        1          -0.009413226    0.002578413   -0.001927960
     25        1          -0.000894223    0.010667634   -0.002133050
     26        1          -0.004862050   -0.004663230   -0.004488427
     27        1           0.005901589    0.002422579    0.000063519
 -------------------------------------------------------------------
 Cartesian Forces:  Max     0.036615171 RMS     0.008764273

 GradGradGradGradGradGradGradGradGradGradGradGradGradGradGradGradGradGrad
 Berny optimization.
 FormGI is forming the generalized inverse of G from B-inverse, IUseBI=4.
 Internal  Forces:  Max     0.030768716 RMS     0.006239305
 Search for a local minimum.
 Step number   1 out of a maximum of   20
 All quantities printed in internal units (Hartrees-Bohrs-Radians)
 Mixed Optimization -- RFO/linear search
 Second derivative matrix not updated -- first step.
 ITU=  0
     Eigenvalues ---    0.00499   0.00770   0.01095   0.01179   0.01277
     Eigenvalues ---    0.01494   0.01538   0.01645   0.01998   0.02056
     Eigenvalues ---    0.02134   0.02676   0.03659   0.04508   0.04697
     Eigenvalues ---    0.04837   0.05072   0.05139   0.05302   0.05872
     Eigenvalues ---    0.06268   0.07211   0.07698   0.07716   0.07857
     Eigenvalues ---    0.07996   0.08039   0.08049   0.10458   0.11735
     Eigenvalues ---    0.12266   0.13363   0.15143   0.15580   0.15989
     Eigenvalues ---    0.16000   0.20099   0.22062   0.23276   0.24961
     Eigenvalues ---    0.25000   0.25000   0.25332   0.26160   0.26654
     Eigenvalues ---    0.27986   0.28081   0.28438   0.31478   0.31843
     Eigenvalues ---    0.32045   0.32241   0.32290   0.32380   0.32387
     Eigenvalues ---    0.32403   0.32512   0.32527   0.32585   0.33255
     Eigenvalues ---    0.33343   0.33590   0.34017   0.35267   0.43885
     Eigenvalues ---    0.45154   0.49549   0.67293   0.91106   0.91902
     Eigenvalues --- 1000.000001000.000001000.000001000.000001000.00000
     Eigenvalues --- 1000.000001000.000001000.000001000.000001000.00000
     Eigenvalues --- 1000.000001000.000001000.000001000.000001000.00000
     Eigenvalues --- 1000.000001000.000001000.000001000.000001000.00000
     Eigenvalues --- 1000.000001000.000001000.000001000.000001000.00000
     Eigenvalues --- 1000.000001000.000001000.000001000.000001000.00000
     Eigenvalues --- 1000.000001000.000001000.000001000.000001000.00000
     Eigenvalues --- 1000.000001000.000001000.000001000.000001000.00000
     Eigenvalues --- 1000.000001000.000001000.000001000.000001000.00000
     Eigenvalues --- 1000.000001000.000001000.000001000.000001000.00000
     Eigenvalues --- 1000.000001000.000001000.000001000.000001000.00000
     Eigenvalues --- 1000.000001000.000001000.000001000.000001000.00000
     Eigenvalues --- 1000.000001000.000001000.000001000.000001000.00000
     Eigenvalues --- 1000.000001000.000001000.000001000.000001000.00000
     Eigenvalues --- 1000.000001000.000001000.000001000.000001000.00000
     Eigenvalues --- 1000.000001000.000001000.000001000.000001000.00000
     Eigenvalues --- 1000.000001000.000001000.000001000.000001000.00000
     Eigenvalues --- 1000.000001000.000001000.000001000.000001000.00000
     Eigenvalues --- 1000.00000
 RFO step:  Lambda=-1.92844681D-02 EMin= 4.98689797D-03
 Linear search not attempted -- first point.
 Iteration  1 RMS(Cart)=  0.04829924 RMS(Int)=  0.00113503
 Iteration  2 RMS(Cart)=  0.00139902 RMS(Int)=  0.00026434
 Iteration  3 RMS(Cart)=  0.00000091 RMS(Int)=  0.00026434
 Iteration  1 RMS(Cart)=  0.00002390 RMS(Int)=  0.00001923
 Iteration  2 RMS(Cart)=  0.00001415 RMS(Int)=  0.00002104
 Iteration  3 RMS(Cart)=  0.00000913 RMS(Int)=  0.00002362
 Iteration  4 RMS(Cart)=  0.00000642 RMS(Int)=  0.00002579
 Iteration  5 RMS(Cart)=  0.00000486 RMS(Int)=  0.00002756
 Iteration  6 RMS(Cart)=  0.00000389 RMS(Int)=  0.00002902
 Iteration  7 RMS(Cart)=  0.00000323 RMS(Int)=  0.00003027
 Iteration  8 RMS(Cart)=  0.00000273 RMS(Int)=  0.00003135
 Iteration  9 RMS(Cart)=  0.00000233 RMS(Int)=  0.00003229
 Iteration 10 RMS(Cart)=  0.00000201 RMS(Int)=  0.00003312
 Iteration 11 RMS(Cart)=  0.00000174 RMS(Int)=  0.00003385
 Iteration 12 RMS(Cart)=  0.00000151 RMS(Int)=  0.00003448
 Iteration 13 RMS(Cart)=  0.00000131 RMS(Int)=  0.00003504
 Iteration 14 RMS(Cart)=  0.00000114 RMS(Int)=  0.00003553
 Iteration 15 RMS(Cart)=  0.00000099 RMS(Int)=  0.00003596
 Variable       Old X    -DE/DX   Delta X   Delta X   Delta X     New X
                                 (Linear)    (Quad)   (Total)
    R1        2.32069   0.02316   0.00000   0.02468   0.02468   2.34537
    R2        2.32427   0.02135   0.00000   0.02295   0.02295   2.34723
    R3        2.81906  -0.01616   0.00000  -0.04593  -0.04593   2.77313
    R4        2.63402  -0.03077   0.00000  -0.06589  -0.06569   2.56833
    R5        2.79337  -0.01944   0.00000  -0.05585  -0.05573   2.73764
    R6        2.58852  -0.01987   0.00000  -0.03832  -0.03818   2.55034
    R7        2.08453  -0.01060   0.00000  -0.03006  -0.03006   2.05446
    R8        2.82610  -0.02046   0.00000  -0.05684  -0.05686   2.76924
    R9        1.93292  -0.00699   0.00000  -0.01526  -0.01526   1.91767
   R10        2.11810  -0.01206   0.00000  -0.03612  -0.03612   2.08198
   R11        2.92749  -0.01271   0.00000  -0.04378  -0.04378   2.88371
   R12        2.90596  -0.00403   0.00000  -0.00786  -0.00791   2.89806
   R13        2.91149  -0.00457   0.00000  -0.01437  -0.01439   2.89710
   R14        2.09917  -0.00983   0.00000  -0.02855  -0.02855   2.07062
   R15        2.09891  -0.00816   0.00000  -0.02367  -0.02367   2.07523
   R16        2.90433  -0.00198   0.00000  -0.00760  -0.00768   2.89665
   R17        2.10141  -0.01054   0.00000  -0.03070  -0.03070   2.07071
   R18        2.10317  -0.00900   0.00000  -0.02631  -0.02631   2.07686
   R19        2.91738  -0.00918   0.00000  -0.02969  -0.02969   2.88769
   R20        2.10406  -0.01161   0.00000  -0.03397  -0.03397   2.07009
   R21        2.10113  -0.00992   0.00000  -0.02890  -0.02890   2.07223
   R22        2.93523  -0.01057   0.00000  -0.03691  -0.03690   2.89833
   R23        2.10154  -0.01076   0.00000  -0.03136  -0.03136   2.07017
   R24        2.09786  -0.00789   0.00000  -0.02287  -0.02287   2.07499
   R25        2.10761  -0.00953   0.00000  -0.02804  -0.02804   2.07957
   R26        2.77142  -0.00655   0.00000  -0.01494  -0.01516   2.75626
   R27        2.44174  -0.00484   0.00000  -0.00704  -0.00712   2.43462
   R28        2.08028  -0.00451   0.00000  -0.01270  -0.01270   2.06758
    A1        2.19675  -0.00238   0.00000  -0.00792  -0.00886   2.18789
    A2        2.03256  -0.00005   0.00000   0.00073  -0.00021   2.03235
    A3        2.05125   0.00315   0.00000   0.01263   0.01169   2.06294
    A4        2.00943  -0.00257   0.00000  -0.00666  -0.00772   2.00170
    A5        2.01313  -0.00140   0.00000  -0.00223  -0.00338   2.00975
    A6        2.25890   0.00396   0.00000   0.00444   0.00378   2.26269
    A7        2.18822   0.00959   0.00000   0.03386   0.03420   2.22243
    A8        2.06104  -0.00256   0.00000  -0.00430  -0.00448   2.05656
    A9        2.03291  -0.00701   0.00000  -0.02919  -0.02940   2.00351
   A10        2.25166  -0.00687   0.00000  -0.02429  -0.02414   2.22751
   A11        2.11069  -0.01135   0.00000  -0.06944  -0.06965   2.04104
   A12        1.87073   0.01821   0.00000   0.09954   0.09962   1.97035
   A13        1.83786  -0.00193   0.00000  -0.01895  -0.01873   1.81913
   A14        2.00528  -0.00094   0.00000  -0.01330  -0.01327   1.99201
   A15        1.97079   0.00148   0.00000   0.00205   0.00137   1.97216
   A16        1.85270   0.00280   0.00000   0.02508   0.02484   1.87754
   A17        1.84906   0.00100   0.00000   0.02172   0.02171   1.87077
   A18        1.93425  -0.00208   0.00000  -0.01173  -0.01142   1.92283
   A19        1.91010   0.00048   0.00000  -0.00407  -0.00420   1.90590
   A20        1.92194  -0.00074   0.00000  -0.01386  -0.01383   1.90810
   A21        1.92295  -0.00185   0.00000  -0.00754  -0.00756   1.91538
   A22        1.91935  -0.00050   0.00000   0.00568   0.00561   1.92496
   A23        1.90487   0.00298   0.00000   0.02575   0.02579   1.93066
   A24        1.88445  -0.00035   0.00000  -0.00556  -0.00583   1.87862
   A25        1.94074  -0.00092   0.00000   0.00604   0.00585   1.94659
   A26        1.91881  -0.00058   0.00000  -0.00664  -0.00664   1.91216
   A27        1.90491   0.00025   0.00000  -0.00315  -0.00319   1.90172
   A28        1.91607   0.00071   0.00000   0.00738   0.00744   1.92351
   A29        1.89852   0.00179   0.00000   0.01143   0.01149   1.91000
   A30        1.88375  -0.00124   0.00000  -0.01559  -0.01569   1.86806
   A31        1.94456   0.00068   0.00000   0.00537   0.00562   1.95017
   A32        1.90252   0.00059   0.00000   0.00641   0.00630   1.90882
   A33        1.91723   0.00042   0.00000   0.00563   0.00560   1.92283
   A34        1.90699  -0.00126   0.00000  -0.01533  -0.01540   1.89159
   A35        1.91525  -0.00040   0.00000   0.00044   0.00031   1.91556
   A36        1.87592  -0.00006   0.00000  -0.00293  -0.00295   1.87297
   A37        1.94606  -0.00291   0.00000  -0.01959  -0.01966   1.92640
   A38        1.90629   0.00242   0.00000   0.01684   0.01663   1.92292
   A39        1.91134   0.00147   0.00000   0.01474   0.01477   1.92610
   A40        1.90633   0.00024   0.00000  -0.00343  -0.00322   1.90311
   A41        1.91206  -0.00030   0.00000  -0.00465  -0.00459   1.90747
   A42        1.88058  -0.00083   0.00000  -0.00336  -0.00358   1.87700
   A43        1.84555   0.00477   0.00000   0.02540   0.02547   1.87102
   A44        1.93503  -0.00434   0.00000  -0.03019  -0.03068   1.90435
   A45        1.99090   0.00122   0.00000   0.01322   0.01330   2.00420
   A46        1.88160   0.00232   0.00000   0.03269   0.03294   1.91454
   A47        1.89116  -0.00455   0.00000  -0.03208  -0.03210   1.85905
   A48        1.91490   0.00077   0.00000  -0.00643  -0.00613   1.90878
   A49        2.08803  -0.00679   0.00000  -0.02006  -0.02002   2.06801
   A50        2.24347  -0.00100   0.00000  -0.00807  -0.00817   2.23530
   A51        1.97877   0.00426   0.00000   0.02480   0.02437   2.00315
   A52        2.06083  -0.00329   0.00000  -0.01736  -0.01779   2.04305
    D1       -2.15149  -0.00903   0.00000  -0.07321  -0.07289  -2.22438
    D2        1.04719  -0.00891   0.00000   0.00000   0.00000   1.04719
    D3        0.91688   0.00088   0.00000   0.00209   0.00225   0.91913
    D4       -2.16762   0.00100   0.00000   0.07530   0.07514  -2.09248
    D5        3.08267  -0.00018   0.00000   0.03273   0.03245   3.11511
    D6       -0.00869  -0.00052   0.00000   0.02462   0.02441   0.01572
    D7       -0.12574  -0.00058   0.00000  -0.05330  -0.05371  -0.17945
    D8        3.06609  -0.00092   0.00000  -0.06140  -0.06175   3.00435
    D9       -2.81278  -0.00056   0.00000  -0.05397  -0.05464  -2.86741
   D10        0.34478   0.00127   0.00000  -0.00556  -0.00565   0.33913
   D11        0.39574  -0.00013   0.00000   0.03235   0.03198   0.42773
   D12       -2.72989   0.00170   0.00000   0.08076   0.08097  -2.64892
   D13       -0.02712   0.00033   0.00000   0.03251   0.03267   0.00556
   D14        2.73473   0.00385   0.00000   0.07283   0.07249   2.80722
   D15        3.06496   0.00077   0.00000   0.04111   0.04108   3.10604
   D16       -0.45637   0.00429   0.00000   0.08142   0.08089  -0.37548
   D17       -2.56394  -0.00072   0.00000  -0.01374  -0.01327  -2.57721
   D18        1.68737  -0.00239   0.00000  -0.02495  -0.02451   1.66286
   D19       -0.55433   0.00007   0.00000   0.00197   0.00216  -0.55218
   D20        0.91694   0.00056   0.00000  -0.02384  -0.02404   0.89290
   D21       -1.11493  -0.00111   0.00000  -0.03505  -0.03528  -1.15021
   D22        2.92655   0.00134   0.00000  -0.00813  -0.00861   2.91793
   D23        2.94182   0.00213   0.00000   0.02885   0.02881   2.97063
   D24       -1.22955   0.00135   0.00000   0.02453   0.02448  -1.20507
   D25        0.84725  -0.00070   0.00000   0.00434   0.00438   0.85162
   D26        0.91844   0.00319   0.00000   0.04300   0.04306   0.96151
   D27        3.03026   0.00240   0.00000   0.03867   0.03873   3.06899
   D28       -1.17613   0.00036   0.00000   0.01848   0.01863  -1.15750
   D29       -1.08152   0.00149   0.00000   0.00938   0.00932  -1.07220
   D30        1.03030   0.00070   0.00000   0.00505   0.00498   1.03528
   D31        3.10709  -0.00134   0.00000  -0.01514  -0.01512   3.09197
   D32       -2.89749  -0.00101   0.00000  -0.01515  -0.01488  -2.91238
   D33       -0.86271   0.00224   0.00000   0.02268   0.02252  -0.84019
   D34        1.30939   0.00073   0.00000   0.00000   0.00001   1.30940
   D35       -0.89462  -0.00198   0.00000  -0.02386  -0.02367  -0.91829
   D36        1.14017   0.00128   0.00000   0.01397   0.01373   1.15390
   D37       -2.97092  -0.00024   0.00000  -0.00871  -0.00878  -2.97970
   D38        1.10763   0.00085   0.00000   0.01186   0.01202   1.11964
   D39       -3.14078   0.00410   0.00000   0.04969   0.04942  -3.09136
   D40       -0.96867   0.00259   0.00000   0.02700   0.02691  -0.94177
   D41        0.95666   0.00081   0.00000   0.00000   0.00001   0.95667
   D42        3.08233   0.00070   0.00000   0.00883   0.00877   3.09110
   D43       -1.13782  -0.00100   0.00000  -0.01592  -0.01589  -1.15370
   D44       -1.15674   0.00174   0.00000   0.01616   0.01624  -1.14049
   D45        0.96894   0.00163   0.00000   0.02499   0.02501   0.99395
   D46        3.03198  -0.00007   0.00000   0.00024   0.00035   3.03233
   D47        3.06227   0.00068   0.00000   0.00414   0.00412   3.06638
   D48       -1.09525   0.00056   0.00000   0.01296   0.01288  -1.08236
   D49        0.96779  -0.00113   0.00000  -0.01178  -0.01178   0.95601
   D50       -0.92192  -0.00063   0.00000   0.00000   0.00001  -0.92191
   D51        1.18393  -0.00137   0.00000  -0.01148  -0.01149   1.17244
   D52       -3.04804  -0.00086   0.00000  -0.00802  -0.00808  -3.05611
   D53       -3.04919   0.00024   0.00000  -0.00066  -0.00062  -3.04981
   D54       -0.94334  -0.00051   0.00000  -0.01213  -0.01212  -0.95546
   D55        1.10788   0.00000   0.00000  -0.00867  -0.00871   1.09917
   D56        1.17634   0.00027   0.00000   0.00723   0.00728   1.18361
   D57       -3.00100  -0.00047   0.00000  -0.00424  -0.00423  -3.00523
   D58       -0.94978   0.00004   0.00000  -0.00078  -0.00081  -0.95059
   D59        0.99014  -0.00094   0.00000  -0.01182  -0.01192   0.97822
   D60        3.09862  -0.00090   0.00000  -0.01744  -0.01765   3.08097
   D61       -1.12893   0.00036   0.00000  -0.00311  -0.00312  -1.13204
   D62       -1.11309  -0.00129   0.00000  -0.01312  -0.01313  -1.12622
   D63        0.99539  -0.00125   0.00000  -0.01874  -0.01886   0.97653
   D64        3.05103   0.00001   0.00000  -0.00441  -0.00433   3.04670
   D65        3.11741  -0.00024   0.00000  -0.00081  -0.00083   3.11658
   D66       -1.05730  -0.00020   0.00000  -0.00643  -0.00656  -1.06385
   D67        0.99834   0.00106   0.00000   0.00790   0.00798   1.00632
   D68       -1.05711  -0.00011   0.00000  -0.00182  -0.00169  -1.05879
   D69       -3.12774   0.00129   0.00000   0.00381   0.00336  -3.12438
   D70        1.08411   0.00159   0.00000   0.01091   0.01066   1.09477
   D71        3.11762  -0.00143   0.00000  -0.00806  -0.00781   3.10981
   D72        1.04699  -0.00002   0.00000  -0.00242  -0.00277   1.04422
   D73       -1.02435   0.00027   0.00000   0.00467   0.00454  -1.01981
   D74        1.06154  -0.00039   0.00000   0.00072   0.00101   1.06255
   D75       -1.00909   0.00102   0.00000   0.00636   0.00605  -1.00304
   D76       -3.08043   0.00132   0.00000   0.01346   0.01336  -3.06707
   D77       -1.17217   0.00395   0.00000   0.00000   0.00001  -1.17216
   D78        3.06079   0.00031   0.00000  -0.01812  -0.01790   3.04289
   D79        1.01066  -0.00028   0.00000  -0.03528  -0.03559   0.97507
   D80        0.21138  -0.00022   0.00000  -0.00474  -0.00503   0.20635
   D81       -2.94682  -0.00206   0.00000  -0.05478  -0.05464  -3.00146
         Item               Value     Threshold  Converged?
 Maximum Force            0.030501     0.000450     NO 
 RMS     Force            0.006226     0.000300     NO 
 Maximum Displacement     0.218186     0.001800     NO 
 RMS     Displacement     0.048833     0.001200     NO 
 Predicted change in Energy=-1.082174D-02
 GradGradGradGradGradGradGradGradGradGradGradGradGradGradGradGradGradGrad

                          Input orientation:                          
 ---------------------------------------------------------------------
 Center     Atomic      Atomic             Coordinates (Angstroms)
 Number     Number       Type             X           Y           Z
 ---------------------------------------------------------------------
      1          8           0       -3.597790   -1.152105    0.545641
      2          7           0       -3.117834   -0.228150   -0.129870
      3          8           0       -3.759691    0.513809   -0.891661
      4          6           0       -1.671623   -0.011677   -0.006966
      5          6           0       -1.312095    1.264048    0.293732
      6          7           0       -0.063978    1.737491    0.492302
      7          6           0        1.196499    0.993108    0.424951
      8          1           0        1.842501    1.486609    1.168565
      9          6           0        1.900411    1.079026   -0.926264
     10          6           0        3.304935    0.477147   -0.802252
     11          6           0        3.257782   -0.952100   -0.250315
     12          6           0        2.465339   -1.029212    1.053977
     13          6           0        1.050506   -0.472303    0.852901
     14          1           0        0.495998   -0.516831    1.802402
     15          7           0        0.400814   -1.334917   -0.127493
     16          6           0       -0.845729   -1.139348   -0.387726
     17          1           0       -2.104357    1.995977    0.429940
     18          1           0        0.065334    2.740823    0.412356
     19          1           0        1.316927    0.531162   -1.674597
     20          1           0        1.955953    2.127029   -1.249643
     21          1           0        3.796783    0.488776   -1.781365
     22          1           0        3.905971    1.108127   -0.132570
     23          1           0        2.779402   -1.609451   -0.984506
     24          1           0        4.274883   -1.328815   -0.088840
     25          1           0        2.395464   -2.068663    1.392728
     26          1           0        2.971550   -0.457306    1.842874
     27          1           0       -1.343946   -1.879264   -1.021284
 ---------------------------------------------------------------------
                    Distance matrix (angstroms):
                    1          2          3          4          5
     1  O    0.000000
     2  N    1.241114   0.000000
     3  O    2.206200   1.242099   0.000000
     4  C    2.305660   1.467478   2.327842   0.000000
     5  C    3.335515   2.380502   2.821124   1.359101   0.000000
     6  N    4.565133   3.684681   4.131712   2.427628   1.349582
     7  C    5.253733   4.518049   5.150438   3.069572   2.526593
     8  H    6.078455   5.406594   6.047762   3.996974   3.281210
     9  C    6.113483   5.246498   5.688359   3.846319   3.441340
    10  C    7.219342   6.496269   7.065287   5.063355   4.810131
    11  C    6.904522   6.417717   7.197579   5.024207   5.107943
    12  C    6.085643   5.763247   6.702046   4.390380   4.483974
    13  C    4.707781   4.289582   5.210942   2.891632   2.984874
    14  H    4.329218   4.108138   5.141117   2.868375   2.952426
    15  N    4.058986   3.688608   4.616443   2.461806   3.141036
    16  C    2.906059   2.461551   3.387928   1.448697   2.541298
    17  H    3.486280   2.507442   2.585263   2.099719   1.087176
    18  H    5.347068   4.386498   4.614203   3.281632   2.022930
    19  H    5.649538   4.757083   5.136666   3.465126   3.364996
    20  H    6.694761   5.704742   5.949724   4.390629   3.715761
    21  H    7.923835   7.145163   7.608712   5.770825   5.568457
    22  H    7.866070   7.149789   7.726048   5.690281   5.237773
    23  H    6.574123   6.116844   6.875797   4.829088   5.160546
    24  H    7.900176   7.474317   8.282160   6.091182   6.171193
    25  H    6.121824   6.008515   7.055036   4.767760   5.104973
    26  H    6.732147   6.405063   7.330100   5.017924   4.869550
    27  H    2.839688   2.582146   3.402856   2.150371   3.407447
                    6          7          8          9         10
     6  N    0.000000
     7  C    1.465417   0.000000
     8  H    2.038367   1.101737   0.000000
     9  C    2.510922   1.525994   2.134898   0.000000
    10  C    3.822815   2.493541   2.653648   1.533077   0.000000
    11  C    4.338142   2.913538   3.156508   2.534727   1.532843
    12  C    3.790458   2.468887   2.594304   2.947061   2.533698
    13  C    2.501059   1.533585   2.136407   2.508862   2.953546
    14  H    2.666815   2.160552   2.495714   3.459011   3.957567
    15  N    3.168575   2.521509   3.423336   2.951939   3.488953
    16  C    3.108341   3.062435   4.067465   3.571063   4.473578
    17  H    2.057632   3.449844   4.047556   4.326460   5.752007
    18  H    1.014785   2.081875   2.302874   2.814424   4.134551
    19  H    2.838587   2.153137   3.045107   1.095724   2.171654
    20  H    2.695596   2.160281   2.504145   1.098166   2.177618
    21  H    4.651272   3.447269   3.676545   2.162364   1.095771
    22  H    4.067808   2.768628   2.468625   2.157098   1.099024
    23  H    4.633335   3.356406   3.885754   2.829121   2.159466
    24  H    5.344687   3.889955   3.927360   3.483833   2.170542
    25  H    4.620220   3.427616   3.604993   3.940907   3.482273
    26  H    3.981911   2.695369   2.346966   3.343020   2.825073
    27  H    4.124339   4.098289   5.126205   4.391624   5.216583
                   11         12         13         14         15
    11  C    0.000000
    12  C    1.528100   0.000000
    13  C    2.513833   1.533731   0.000000
    14  H    3.468509   2.168174   1.100460   0.000000
    15  N    2.885117   2.398247   1.458552   2.098289   0.000000
    16  C    4.110078   3.613006   2.362163   2.642805   1.288347
    17  H    6.156821   5.515734   4.027960   3.867778   4.204934
    18  H    4.926311   4.514960   3.389517   3.567914   4.125002
    19  H    2.827643   3.346451   2.732429   3.723134   2.591339
    20  H    3.489191   3.940558   3.463676   4.293768   3.957618
    21  H    2.170430   3.480833   3.924930   4.974919   4.194491
    22  H    2.162996   2.837522   3.409193   4.244116   4.272542
    23  H    1.095443   2.142598   2.767355   3.764917   2.543132
    24  H    1.096578   2.161074   3.466568   4.303032   3.874267
    25  H    2.165616   1.095488   2.156082   2.486762   2.613060
    26  H    2.169836   1.098037   2.161176   2.476598   3.355776
    27  H    4.757092   4.420401   3.350449   3.635219   2.034543
                   16         17         18         19         20
    16  C    0.000000
    17  H    3.476059   0.000000
    18  H    4.065205   2.294049   0.000000
    19  H    3.020549   4.275505   3.287014   0.000000
    20  H    4.388797   4.395941   2.591028   1.770800   0.000000
    21  H    5.113310   6.479582   4.879328   2.482516   2.520963
    22  H    5.262595   6.101536   4.208698   3.068206   2.467506
    23  H    3.703878   6.233047   5.314346   2.682775   3.835315
    24  H    5.132826   7.212356   5.876517   3.837140   4.320620
    25  H    3.813001   6.139760   5.433396   4.163029   4.977863
    26  H    4.473520   5.812041   4.551979   4.010916   4.156187
    27  H    1.094117   4.207347   5.038511   3.649275   5.195369
                   21         22         23         24         25
    21  H    0.000000
    22  H    1.764666   0.000000
    23  H    2.464266   3.062709   0.000000
    24  H    2.529202   2.465095   1.765628   0.000000
    25  H    4.310344   3.834079   2.451434   2.504922   0.000000
    26  H    3.835518   2.688141   3.059157   2.487915   1.769457
    27  H    5.710730   6.105403   4.132329   5.722210   4.454942
                   26         27
    26  H    0.000000
    27  H    5.371115   0.000000
 Symmetry turned off by external request.
 Stoichiometry    C9H13N3O2
 Framework group  C1[X(C9H13N3O2)]
 Deg. of freedom    75
 Full point group                 C1      NOp   1
 Rotational constants (GHZ):           1.6685784           0.4186466           0.3764001
 Standard basis: 6-31G(d) (6D, 7F)
   236 basis functions,   444 primitive gaussians,   236 cartesian basis functions
    52 alpha electrons       52 beta electrons
       nuclear repulsion energy       930.7689234086 Hartrees.
 NAtoms=   27 NActive=   27 NUniq=   27 SFac= 1.00D+00 NAtFMM=   60 NAOKFM=F Big=F
 Integral buffers will be    131072 words long.
 Raffenetti 1 integral format.
 Two-electron integral symmetry is turned off.
 One-electron integrals computed using PRISM.
 NBasis=   236 RedAO= T EigKep=  1.54D-03  NBF=   236
 NBsUse=   236 1.00D-06 EigRej= -1.00D+00 NBFU=   236
 Initial guess from the checkpoint file:  "/home/alexey/tmp/Gau-1058622.chk"
 B after Tr=     0.040901   -0.001041   -0.001321
         Rot=    0.999998   -0.000262    0.001935    0.000221 Ang=  -0.23 deg.
 ExpMin= 1.61D-01 ExpMax= 5.48D+03 ExpMxC= 8.25D+02 IAcc=3 IRadAn=         5 AccDes= 0.00D+00
 Harris functional with IExCor=  205 and IRadAn=       5 diagonalized for initial guess.
 HarFok:  IExCor=  205 AccDes= 0.00D+00 IRadAn=         5 IDoV= 1 UseB2=F ITyADJ=14
 ICtDFT=  3500011 ScaDFX=  1.000000  1.000000  1.000000  1.000000
 FoFCou: FMM=F IPFlag=           0 FMFlag=      100000 FMFlg1=           0
         NFxFlg=           0 DoJE=T BraDBF=F KetDBF=T FulRan=T
         wScrn=  0.000000 ICntrl=       500 IOpCl=  0 I1Cent=   200000004 NGrid=           0
         NMat0=    1 NMatS0=      1 NMatT0=    0 NMatD0=    1 NMtDS0=    0 NMtDT0=    0
 Symmetry not used in FoFCou.
 Keep R1 ints in memory in canonical form, NReq=397720213.
 Requested convergence on RMS density matrix=1.00D-08 within 128 cycles.
 Requested convergence on MAX density matrix=1.00D-06.
 Requested convergence on             energy=1.00D-06.
 No special actions if energy rises.
 SCF Done:  E(RHF) =  -661.286472809     A.U. after   15 cycles
            NFock= 15  Conv=0.52D-08     -V/T= 2.0025
 ExpMin= 1.61D-01 ExpMax= 5.48D+03 ExpMxC= 8.25D+02 IAcc=3 IRadAn=         5 AccDes= 0.00D+00
 HarFok:  IExCor=  205 AccDes= 0.00D+00 IRadAn=         5 IDoV=-2 UseB2=F ITyADJ=14
 ICtDFT= 12500011 ScaDFX=  1.000000  1.000000  1.000000  1.000000
 Range of M.O.s used for correlation:    15   236
 NBasis=   236 NAE=    52 NBE=    52 NFC=    14 NFV=     0
 NROrb=    222 NOA=    38 NOB=    38 NVA=   184 NVB=   184
 Fully direct method using O(ONN) memory.
 JobTyp=1 Pass  1:  I=  15 to  52 NPSUse=  4 ParTrn=T ParDer=T DoDerP=T.
 Spin components of T(2) and E(2):
     alpha-alpha T2 =       0.9138706363D-01 E2=     -0.2724564936D+00
     alpha-beta  T2 =       0.4951131705D+00 E2=     -0.1492017939D+01
     beta-beta   T2 =       0.9138706363D-01 E2=     -0.2724564936D+00
 ANorm=    0.1295332891D+01
 E2 =    -0.2036930926D+01 EUMP2 =    -0.66332340373489D+03
          IDoAtm=111111111111111111111111111
          Differentiating once with respect to electric field.
                with respect to dipole field.
          Differentiating once with respect to nuclear coordinates.
 Keep R1 ints in memory in canonical form, NReq=397723379.
          There are     1 degrees of freedom in the 1st order CPHF.  IDoFFX=0 NUNeed=     1.
 LinEq1:  Iter=  0 NonCon=     1 RMS=4.50D-03 Max=1.01D-01 NDo=     1
 AX will form     1 AO Fock derivatives at one time.
 LinEq1:  Iter=  1 NonCon=     1 RMS=1.51D-03 Max=2.85D-02 NDo=     1
 LinEq1:  Iter=  2 NonCon=     1 RMS=6.38D-04 Max=1.64D-02 NDo=     1
 LinEq1:  Iter=  3 NonCon=     1 RMS=2.78D-04 Max=4.83D-03 NDo=     1
 LinEq1:  Iter=  4 NonCon=     1 RMS=8.50D-05 Max=1.28D-03 NDo=     1
 LinEq1:  Iter=  5 NonCon=     1 RMS=3.34D-05 Max=1.08D-03 NDo=     1
[...]
                   16         17         18         19         20
    16  C    0.000000
    17  H    3.462826   0.000000
    18  H    4.099208   2.240008   0.000000
    19  H    2.995673   4.232711   3.518479   0.000000
    20  H    4.379547   4.379072   2.885515   1.768188   0.000000
    21  H    5.098845   6.459327   5.090029   2.499669   2.521190
    22  H    5.248937   6.081881   4.313908   3.070398   2.461765
    23  H    3.693651   6.216508   5.426591   2.705134   3.843349
    24  H    5.131421   7.199820   5.939353   3.850108   4.317201
    25  H    3.818407   6.133524   5.372512   4.173415   4.985082
    26  H    4.489232   5.823115   4.480530   4.032804   4.177539
    27  H    1.093557   4.201386   5.099607   3.612307   5.173875
                   21         22         23         24         25
    21  H    0.000000
    22  H    1.758903   0.000000
    23  H    2.469940   3.062263   0.000000
    24  H    2.517298   2.459550   1.764515   0.000000
    25  H    4.311958   3.837357   2.445678   2.518630   0.000000
    26  H    3.844304   2.700406   3.060602   2.493175   1.767964
    27  H    5.677955   6.077982   4.104903   5.705447   4.452836
                   26         27
    26  H    0.000000
    27  H    5.378252   0.000000
 Symmetry turned off by external request.
 Stoichiometry    C9H13N3O2
 Framework group  C1[X(C9H13N3O2)]
 Deg. of freedom    75
 Full point group                 C1      NOp   1
 Rotational constants (GHZ):           1.6601970           0.4197783           0.3768794

 **********************************************************************

            Population analysis using the SCF Density.

 **********************************************************************

 Alpha  occ. eigenvalues --  -20.60091 -20.60079 -15.84681 -15.63412 -15.56163
 Alpha  occ. eigenvalues --  -11.34763 -11.30137 -11.29365 -11.28479 -11.27030
 Alpha  occ. eigenvalues --  -11.23492 -11.23050 -11.22582 -11.21980  -1.57440
 Alpha  occ. eigenvalues --   -1.37182  -1.30444  -1.23134  -1.14698  -1.09816
 Alpha  occ. eigenvalues --   -1.02626  -1.01111  -0.94556  -0.89658  -0.85372
 Alpha  occ. eigenvalues --   -0.82574  -0.78455  -0.77747  -0.75040  -0.72015
 Alpha  occ. eigenvalues --   -0.70668  -0.68688  -0.67027  -0.65219  -0.63507
 Alpha  occ. eigenvalues --   -0.62386  -0.60219  -0.57509  -0.56867  -0.55049
 Alpha  occ. eigenvalues --   -0.54519  -0.50986  -0.50350  -0.48848  -0.48150
 Alpha  occ. eigenvalues --   -0.47805  -0.46223  -0.45944  -0.43635  -0.41583
 Alpha  occ. eigenvalues --   -0.40073  -0.33307
 Alpha virt. eigenvalues --    0.08176   0.10876   0.17465   0.21509   0.23559
 Alpha virt. eigenvalues --    0.25021   0.26550   0.28189   0.29140   0.29392
 Alpha virt. eigenvalues --    0.29529   0.31606   0.32073   0.32828   0.33944
 Alpha virt. eigenvalues --    0.34397   0.35685   0.37400   0.38749   0.40081
 Alpha virt. eigenvalues --    0.41437   0.42498   0.44841   0.45845   0.46890
 Alpha virt. eigenvalues --    0.47618   0.49616   0.53520   0.57498   0.58201
 Alpha virt. eigenvalues --    0.61552   0.69640   0.69983   0.72988   0.74292
 Alpha virt. eigenvalues --    0.75222   0.75856   0.76602   0.78636   0.79226
 Alpha virt. eigenvalues --    0.80906   0.84166   0.85199   0.86041   0.88475
 Alpha virt. eigenvalues --    0.89475   0.90233   0.91902   0.92685   0.93764
 Alpha virt. eigenvalues --    0.95286   0.97856   0.98913   1.01746   1.01950
 Alpha virt. eigenvalues --    1.04192   1.06053   1.06286   1.07877   1.08768
 Alpha virt. eigenvalues --    1.10760   1.11201   1.11650   1.12042   1.13890
 Alpha virt. eigenvalues --    1.14011   1.14737   1.15888   1.16004   1.16780
 Alpha virt. eigenvalues --    1.17766   1.19061   1.19700   1.21914   1.23578
 Alpha virt. eigenvalues --    1.23819   1.24823   1.25213   1.27817   1.29849
 Alpha virt. eigenvalues --    1.30443   1.32671   1.35702   1.36113   1.38145
 Alpha virt. eigenvalues --    1.39661   1.42799   1.43678   1.50509   1.52729
 Alpha virt. eigenvalues --    1.55435   1.56912   1.60894   1.63282   1.65767
 Alpha virt. eigenvalues --    1.68231   1.71433   1.72989   1.74821   1.75103
 Alpha virt. eigenvalues --    1.78340   1.82835   1.87007   1.90823   1.92191
 Alpha virt. eigenvalues --    1.92520   1.96229   1.99520   2.01195   2.02674
 Alpha virt. eigenvalues --    2.04130   2.05213   2.07496   2.10629   2.13416
 Alpha virt. eigenvalues --    2.15053   2.15840   2.18677   2.20498   2.21703
 Alpha virt. eigenvalues --    2.22500   2.25252   2.26748   2.28246   2.29858
 Alpha virt. eigenvalues --    2.31433   2.33142   2.33846   2.37033   2.37559
 Alpha virt. eigenvalues --    2.39072   2.40465   2.41956   2.45960   2.47361
 Alpha virt. eigenvalues --    2.49866   2.52159   2.54363   2.55000   2.62181
 Alpha virt. eigenvalues --    2.62704   2.64972   2.67328   2.70473   2.71282
 Alpha virt. eigenvalues --    2.72497   2.73202   2.74727   2.78212   2.84256
 Alpha virt. eigenvalues --    2.86901   2.89906   2.92156   2.95680   2.97626
 Alpha virt. eigenvalues --    2.99978   3.01725   3.04151   3.05658   3.09171
 Alpha virt. eigenvalues --    3.09272   3.15682   3.20257   3.20856   3.24637
 Alpha virt. eigenvalues --    3.31806   3.36586   3.38990   3.45369   3.63347
 Alpha virt. eigenvalues --    4.10452   4.19332   4.27629   4.36199   4.47720
 Alpha virt. eigenvalues --    4.55843   4.62245   4.64130   4.73802   4.78664
 Alpha virt. eigenvalues --    4.99219   5.01034   5.05115   5.11291
          Condensed to atoms (all electrons):
               1          2          3          4          5          6
     1  O    8.302819   0.288918  -0.076944  -0.080609   0.001630  -0.000032
     2  N    0.288918   5.816145   0.299055   0.233962  -0.048464   0.001643
     3  O   -0.076944   0.299055   8.312850  -0.089262   0.008898   0.000370
     4  C   -0.080609   0.233962  -0.089262   5.236809   0.567794  -0.050535
     5  C    0.001630  -0.048464   0.008898   0.567794   4.659439   0.324949
     6  N   -0.000032   0.001643   0.000370  -0.050535   0.324949   7.191795
     7  C    0.000005  -0.000113  -0.000004   0.004964  -0.032000   0.177855
     8  H   -0.000000   0.000002   0.000000  -0.000282   0.003436  -0.049835
     9  C   -0.000000  -0.000005  -0.000000   0.000908   0.000664  -0.063955
    10  C    0.000000   0.000000   0.000000  -0.000046  -0.000058   0.003833
    11  C   -0.000000  -0.000000  -0.000000  -0.000025   0.000025  -0.000186
    12  C   -0.000000   0.000002   0.000000  -0.000139  -0.000189   0.003768
    13  C   -0.000022  -0.000064   0.000001  -0.011952  -0.000695  -0.048382
    14  H   -0.000012  -0.000090   0.000001   0.002684   0.005352  -0.006491
    15  N    0.000053   0.002462  -0.000036  -0.067973  -0.005709   0.002462
    16  C    0.003477  -0.029773   0.002318   0.319933  -0.037865  -0.003481
    17  H   -0.000015  -0.004185   0.007626  -0.032356   0.386409  -0.034066
    18  H    0.000001  -0.000069   0.000005   0.001912  -0.028895   0.337478
    19  H    0.000000  -0.000006   0.000001  -0.001404   0.001216  -0.000235
    20  H   -0.000000  -0.000000   0.000000  -0.000070   0.000119  -0.000097
    21  H    0.000000   0.000000  -0.000000   0.000001   0.000001  -0.000080
    22  H   -0.000000   0.000000   0.000000  -0.000000  -0.000003  -0.000113
    23  H   -0.000000  -0.000000   0.000000   0.000040  -0.000001  -0.000030
    24  H   -0.000000   0.000000   0.000000   0.000000  -0.000000   0.000006
    25  H    0.000000  -0.000000   0.000000   0.000022  -0.000000  -0.000088
    26  H   -0.000000  -0.000000   0.000000   0.000007  -0.000003  -0.000058
    27  H    0.002351  -0.000113   0.000113  -0.076454   0.002282   0.000020
               7          8          9         10         11         12
     1  O    0.000005  -0.000000  -0.000000   0.000000  -0.000000  -0.000000
     2  N   -0.000113   0.000002  -0.000005   0.000000  -0.000000   0.000002
     3  O   -0.000004   0.000000  -0.000000   0.000000  -0.000000   0.000000
     4  C    0.004964  -0.000282   0.000908  -0.000046  -0.000025  -0.000139
     5  C   -0.032000   0.003436   0.000664  -0.000058   0.000025  -0.000189
     6  N    0.177855  -0.049835  -0.063955   0.003833  -0.000186   0.003768
     7  C    5.015346   0.417801   0.352597  -0.054724  -0.008943  -0.060527
     8  H    0.417801   0.538952  -0.055015   0.000614  -0.000291  -0.002403
     9  C    0.352597  -0.055015   5.157313   0.324776  -0.050428  -0.005116
    10  C   -0.054724   0.000614   0.324776   5.119434   0.336982  -0.061212
    11  C   -0.008943  -0.000291  -0.050428   0.336982   5.120272   0.335903
    12  C   -0.060527  -0.002403  -0.005116  -0.061212   0.335903   5.118657
    13  C    0.335756  -0.037426  -0.062227   0.000116  -0.051077   0.370678
    14  H   -0.046618  -0.000779   0.004418  -0.000401   0.004174  -0.035903
    15  N   -0.058217   0.003780  -0.013726   0.001599  -0.013180  -0.081758
    16  C   -0.003306   0.000053  -0.001243  -0.000041   0.000004   0.003058
    17  H    0.002048  -0.000067  -0.000069   0.000001   0.000000   0.000000
    18  H   -0.021794  -0.004637   0.001436  -0.000084   0.000003  -0.000113
    19  H   -0.037128   0.004347   0.390730  -0.032407  -0.002222   0.000692
    20  H   -0.042484  -0.002015   0.399423  -0.035287   0.003935  -0.000416
    21  H    0.004600  -0.000078  -0.036294   0.402249  -0.035022   0.004379
    22  H   -0.004860   0.003581  -0.046890   0.397714  -0.045425  -0.001088
    23  H    0.000567   0.000035  -0.001944  -0.039066   0.399294  -0.037982
    24  H   -0.000137  -0.000104   0.004380  -0.038424   0.402347  -0.038700
    25  H    0.005117  -0.000017  -0.000433   0.004207  -0.033529   0.398456
    26  H   -0.003974   0.001668   0.000986  -0.002274  -0.041400   0.396809
    27  H   -0.000429   0.000010  -0.000063   0.000007   0.000012  -0.000046
              13         14         15         16         17         18
     1  O   -0.000022  -0.000012   0.000053   0.003477  -0.000015   0.000001
     2  N   -0.000064  -0.000090   0.002462  -0.029773  -0.004185  -0.000069
     3  O    0.000001   0.000001  -0.000036   0.002318   0.007626   0.000005
     4  C   -0.011952   0.002684  -0.067973   0.319933  -0.032356   0.001912
     5  C   -0.000695   0.005352  -0.005709  -0.037865   0.386409  -0.028895
     6  N   -0.048382  -0.006491   0.002462  -0.003481  -0.034066   0.337478
     7  C    0.335756  -0.046618  -0.058217  -0.003306   0.002048  -0.021794
     8  H   -0.037426  -0.000779   0.003780   0.000053  -0.000067  -0.004637
     9  C   -0.062227   0.004418  -0.013726  -0.001243  -0.000069   0.001436
    10  C    0.000116  -0.000401   0.001599  -0.000041   0.000001  -0.000084
    11  C   -0.051077   0.004174  -0.013180   0.000004   0.000000   0.000003
    12  C    0.370678  -0.035903  -0.081758   0.003058   0.000000  -0.000113
    13  C    5.041693   0.404286   0.252038  -0.072634  -0.000071   0.002902
    14  H    0.404286   0.523457  -0.038057  -0.004926   0.000077  -0.000126
    15  N    0.252038  -0.038057   6.937018   0.605997  -0.000041  -0.000142
    16  C   -0.072634  -0.004926   0.605997   4.685961   0.002069  -0.000177
    17  H   -0.000071   0.000077  -0.000041   0.002069   0.406910  -0.003153
    18  H    0.002902  -0.000126  -0.000142  -0.000177  -0.003153   0.312543
    19  H   -0.007334   0.000104   0.007250   0.002958   0.000016  -0.000153
    20  H    0.004405  -0.000066   0.000125  -0.000038  -0.000001   0.000773
    21  H   -0.000455   0.000010  -0.000046   0.000003  -0.000000   0.000001
    22  H    0.000066  -0.000053   0.000020  -0.000002  -0.000000   0.000001
    23  H   -0.007520   0.000003   0.008439   0.000104   0.000000   0.000000
    24  H    0.004710  -0.000057   0.000128   0.000008   0.000000  -0.000000
    25  H   -0.035689  -0.002843   0.000369  -0.000009  -0.000000   0.000002
    26  H   -0.047180  -0.001013   0.004846  -0.000075   0.000000  -0.000000
    27  H    0.005479  -0.000183  -0.037975   0.407861  -0.000093   0.000001
              19         20         21         22         23         24
     1  O    0.000000  -0.000000   0.000000  -0.000000  -0.000000  -0.000000
     2  N   -0.000006  -0.000000   0.000000   0.000000  -0.000000   0.000000
     3  O    0.000001   0.000000  -0.000000   0.000000   0.000000   0.000000
     4  C   -0.001404  -0.000070   0.000001  -0.000000   0.000040   0.000000
     5  C    0.001216   0.000119   0.000001  -0.000003  -0.000001  -0.000000
     6  N   -0.000235  -0.000097  -0.000080  -0.000113  -0.000030   0.000006
     7  C   -0.037128  -0.042484   0.004600  -0.004860   0.000567  -0.000137
     8  H    0.004347  -0.002015  -0.000078   0.003581   0.000035  -0.000104
     9  C    0.390730   0.399423  -0.036294  -0.046890  -0.001944   0.004380
    10  C   -0.032407  -0.035287   0.402249   0.397714  -0.039066  -0.038424
    11  C   -0.002222   0.003935  -0.035022  -0.045425   0.399294   0.402347
    12  C    0.000692  -0.000416   0.004379  -0.001088  -0.037982  -0.038700
    13  C   -0.007334   0.004405  -0.000455   0.000066  -0.007520   0.004710
    14  H    0.000104  -0.000066   0.000010  -0.000053   0.000003  -0.000057
    15  N    0.007250   0.000125  -0.000046   0.000020   0.008439   0.000128
    16  C    0.002958  -0.000038   0.000003  -0.000002   0.000104   0.000008
    17  H    0.000016  -0.000001  -0.000000  -0.000000   0.000000   0.000000
    18  H   -0.000153   0.000773   0.000001   0.000001   0.000000  -0.000000
    19  H    0.506533  -0.024704  -0.002793   0.003979   0.001520  -0.000068
    20  H   -0.024704   0.540892  -0.002729  -0.002979  -0.000046  -0.000083
    21  H   -0.002793  -0.002729   0.525249  -0.027504  -0.002903  -0.002254
    22  H    0.003979  -0.002979  -0.027504   0.571774   0.004147  -0.003653
    23  H    0.001520  -0.000046  -0.002903   0.004147   0.500256  -0.025580
    24  H   -0.000068  -0.000083  -0.002254  -0.003653  -0.025580   0.538836
    25  H   -0.000028   0.000013  -0.000087  -0.000081  -0.002304  -0.002316
    26  H    0.000020  -0.000031  -0.000080   0.002386   0.004069  -0.003020
    27  H    0.000100   0.000000  -0.000000   0.000000  -0.000035  -0.000000
              25         26         27
     1  O    0.000000  -0.000000   0.002351
     2  N   -0.000000  -0.000000  -0.000113
     3  O    0.000000   0.000000   0.000113
     4  C    0.000022   0.000007  -0.076454
     5  C   -0.000000  -0.000003   0.002282
     6  N   -0.000088  -0.000058   0.000020
     7  C    0.005117  -0.003974  -0.000429
     8  H   -0.000017   0.001668   0.000010
     9  C   -0.000433   0.000986  -0.000063
    10  C    0.004207  -0.002274   0.000007
    11  C   -0.033529  -0.041400   0.000012
    12  C    0.398456   0.396809  -0.000046
    13  C   -0.035689  -0.047180   0.005479
    14  H   -0.002843  -0.001013  -0.000183
    15  N    0.000369   0.004846  -0.037975
    16  C   -0.000009  -0.000075   0.407861
    17  H   -0.000000   0.000000  -0.000093
    18  H    0.000002  -0.000000   0.000001
    19  H   -0.000028   0.000020   0.000100
    20  H    0.000013  -0.000031   0.000000
    21  H   -0.000087  -0.000080  -0.000000
    22  H   -0.000081   0.002386   0.000000
    23  H   -0.002304   0.004069  -0.000035
    24  H   -0.002316  -0.003020  -0.000000
    25  H    0.506923  -0.024141  -0.000013
    26  H   -0.024141   0.561925   0.000001
    27  H   -0.000013   0.000001   0.468016
 Mulliken charges:
               1
     1  O   -0.441620
     2  N    0.440694
     3  O   -0.464992
     4  C    0.042072
     5  C    0.191668
     6  N   -0.786517
     7  C    0.058599
     8  H    0.178671
     9  C   -0.300220
    10  C   -0.327508
    11  C   -0.321224
    12  C   -0.306809
    13  C   -0.039404
    14  H    0.193052
    15  N   -0.509725
    16  C    0.119762
    17  H    0.268958
    18  H    0.402284
    19  H    0.189016
    20  H    0.161363
    21  H    0.173830
    22  H    0.148982
    23  H    0.198939
    24  H    0.163980
    25  H    0.186468
    26  H    0.150529
    27  H    0.229151
 Sum of Mulliken charges =  -0.00000
 Mulliken charges with hydrogens summed into heavy atoms:
               1
     1  O   -0.441620
     2  N    0.440694
     3  O   -0.464992
     4  C    0.042072
     5  C    0.460626
     6  N   -0.384233
     7  C    0.237270
     9  C    0.050159
    10  C   -0.004695
    11  C    0.041695
    12  C    0.030188
    13  C    0.153647
    15  N   -0.509725
    16  C    0.348913
 Electronic spatial extent (au):  <R**2>=           2990.2286
 Charge=             -0.0000 electrons
 Dipole moment (field-independent basis, Debye):
    X=              4.8900    Y=              4.4957    Z=              1.5208  Tot=              6.8144
 Quadrupole moment (field-independent basis, Debye-Ang):
   XX=           -103.5358   YY=            -78.3777   ZZ=            -83.2004
   XY=             -1.8825   XZ=             -1.1173   YZ=              5.2382
 Traceless Quadrupole moment (field-independent basis, Debye-Ang):
   XX=            -15.1645   YY=              9.9936   ZZ=              5.1709
   XY=             -1.8825   XZ=             -1.1173   YZ=              5.2382
 Octapole moment (field-independent basis, Debye-Ang**2):
  XXX=             77.1579  YYY=             33.1045  ZZZ=              0.9883  XYY=             -9.8175
  XXY=             12.4727  XXZ=             11.3366  XZZ=             -4.1742  YZZ=             -1.0865
  YYZ=              7.6025  XYZ=            -11.3602
 Hexadecapole moment (field-independent basis, Debye-Ang**3):
 XXXX=          -3293.0887 YYYY=           -586.2836 ZZZZ=           -331.8912 XXXY=            -40.1258
 XXXZ=            -55.4085 YYYX=             -3.2307 YYYZ=             51.4035 ZZZX=            -17.2159
 ZZZY=             29.9466 XXYY=           -604.0762 XXZZ=           -544.5538 YYZZ=           -158.4576
 XXYZ=             43.7703 YYXZ=              2.4242 ZZXY=              9.0890
 N-N= 9.308805164765D+02 E-N=-3.408429610069D+03  KE= 6.596077586903D+02
 Unable to Open any file for archive entry.
 1\1\GINC-LOTUS\FOpt\RMP2-FC\6-31G(d)\C9H13N3O2\ALEXEY\30-Jun-2023\0\\#
 MP2/6-31G* SCF=Tight Opt=(ModRedun, MaxCycle=20 ) NoSymm\\MolName:\\0,
 1\O,-3.6417527917,-1.1876773361,0.3661673755\N,-3.1001567969,-0.218540
 7178,-0.2031504152\O,-3.7059896334,0.6227576621,-0.8967430536\C,-1.677
 8897508,-0.0397460003,0.0449247113\C,-1.3024643653,1.2504922373,0.3030
 364063\N,-0.0587220818,1.7357077216,0.4721173276\C,1.2011325296,1.0091
 128225,0.407152704\H,1.8602419817,1.5158339421,1.1278469552\C,1.882965
 5872,1.0601919374,-0.9593982816\C,3.2867418883,0.4563022707,-0.8372497
 662\C,3.2565918188,-0.9568240468,-0.2492293722\C,2.4852373463,-1.00673
 22283,1.0710473106\C,1.067404252,-0.4583654372,0.8711837784\H,0.504053
 491,-0.4685476469,1.8175268111\N,0.4122263214,-1.3347505502,-0.0953464
 368\C,-0.8417543201,-1.1491094687,-0.3550122582\H,-2.0937815492,1.9904
 433332,0.3978489756\H,-0.0003667942,2.7107848761,0.7389651344\H,1.2785
 25601,0.5000849687,-1.6811456401\H,1.9372174916,2.0984057214,-1.309682
 2701\H,3.7738417523,0.4480449207,-1.8191115263\H,3.8945875484,1.107469
 6527,-0.1929754367\H,2.7699860272,-1.6368746625,-0.9554060444\H,4.2804
 909447,-1.3198452799,-0.1001987052\H,2.4140903874,-2.0385126438,1.4306
 714817\H,3.0037466765,-0.4240748354,1.8449078095\H,-1.326193562,-1.903
 0412128,-0.9817275747\\Version=ES64L-G16RevC.02\HF=-661.2877011\MP2=-6
 63.3265831\RMSD=5.531e-09\RMSF=2.259e-03\Dipole=1.7927537,1.6021313,0.
 5572195\PG=C01 [X(C9H13N3O2)]\\@
 The archive entry for this job was punched.


 "THE TIME HAS COME", THE WALRUS SAID,
 "TO TALK OF MANY THINGS,
 OF SHOES AND SHIPS AND SEALING WAX,
 OF CABBAGES AND KINGS,
 AND WHY THE SEA IS BOILING HOT,
 AND WHETHER PIGS HAVE WINGS."
 Job cpu time:       0 days  1 hours  7 minutes 29.1 seconds.
 Elapsed time:       0 days  0 hours 20 minutes 16.1 seconds.
 File lengths (MBytes):  RWF=     36 Int=      0 D2E=      0 Chk=      7 Scr=      1
 Normal termination of Gaussian 16 at Fri Jun 30 03:00:03 2023.
