 Entering Gaussian System, Link 0=g16
 Initial command:
 /home/alexey/programs//g16/l1.exe "/home/alexey/tmp/Gau-1060675.inp" -scrdir="/home/alexey/tmp/"
 Entering Link 1 = /home/alexey/programs//g16/l1.exe PID=   1060677.
  
 Copyright (c) 1988-2021, Gaussian, Inc.  All Rights Reserved.
  
 This is part of the Gaussian(R) 16 program.  It is based on
 the Gaussian(R) 09 system (copyright 2009, Gaussian, Inc.),
 the Gaussian(R) 03 system (copyright 2003, Gaussian, Inc.),
 the Gaussian(R) 98 system (copyright 1998, Gaussian, Inc.),
 the Gaussian(R) 94 system (copyright 1995, Gaussian, Inc.),
 the Gaussian 92(TM) system (copyright 1992, Gaussian, Inc.),
 the Gaussian 90(TM) system (copyright 1990, Gaussian, Inc.),
 the Gaussian 88(TM) system (copyright 1988, Gaussian, Inc.),
 the Gaussian 86(TM) system (copyright 1986, Carnegie Mellon
 University), and the Gaussian 82(TM) system (copyright 1983,
 Carnegie Mellon University). Gaussian is a federally registered
 trademark of Gaussian, Inc.
  
 This software contains proprietary and confidential information,
 including trade secrets, belonging to Gaussian, Inc.
  
 This software is provided under written license and may be
 used, copied, transmitted, or stored only in accord with that
 written license.
  
 The following legend is applicable only to US Government
 contracts under FAR:
  
                    RESTRICTED RIGHTS LEGEND
  
 Use, reproduction and disclosure by the US Government is
 subject to restrictions as set forth in subparagraphs (a)
 and (c) of the Commercial Computer Software - Restricted
 Rights clause in FAR 52.227-19.
  
 Gaussian, Inc.
 340 Quinnipiac St., Bldg. 40, Wallingford CT 06492
  
  
 ---------------------------------------------------------------
 Warning -- This program may not be used in any manner that
 competes with the business of Gaussian, Inc. or will provide
 assistance to any competitor of Gaussian, Inc.  The licensee
 of this program is prohibited from giving any competitor of
 Gaussian, Inc. access to this program.  By using this program,
 the user acknowledges that Gaussian, Inc. is engaged in the
 business of creating and licensing software in the field of
 computational chemistry and represents and warrants to the
 licensee that it is not a competitor of Gaussian, Inc. and that
 it will not use this program in any manner prohibited above.
 ---------------------------------------------------------------
  

 Cite this work as:
 Gaussian 16, Revision C.02,
 M. J. Frisch, G. W. Trucks, H. B. Schlegel, G. E. Scuseria, 
 M. A. Robb, J. R. Cheeseman, G. Scalmani, V. Barone, 
 G. A. Petersson, H. Nakatsuji, X. Li, M. Caricato, A. V. Marenich, 
 J. Bloino, B. G. Janesko, R. Gomperts, B. Mennucci, H. P. Hratchian, 
 J. V. Ortiz, A. F. Izmaylov, J. L. Sonnenberg, D. Williams-Young, 
 F. Ding, F. Lipparini, F. Egidi, J. Goings, B. Peng, A. Petrone, 
 T. Henderson, D. Ranasinghe, V. G. Zakrzewski, J. Gao, N. Rega, 
 G. Zheng, W. Liang, M. Hada, M. Ehara, K. Toyota, R. Fukuda, 
 J. Hasegawa, M. Ishida, T. Nakajima, Y. Honda, O. Kitao, H. Nakai, 
 T. Vreven, K. Throssell, J. A. Montgomery, Jr., J. E. Peralta, 
 F. Ogliaro, M. J. Bearpark, J. J. Heyd, E. N. Brothers, K. N. Kudin, 
 V. N. Staroverov, T. A. Keith, R. Kobayashi, J. Normand, 
 K. Raghavachari, A. P. Rendell, J. C. Burant, S. S. Iyengar, 
 J. Tomasi, M. Cossi, J. M. Millam, M. Klene, C. Adamo, R. Cammi, 
 J. W. Ochterski, R. L. Martin, K. Morokuma, O. Farkas, 
 J. B. Foresman, and D. J. Fox, Gaussian, Inc., Wallingford CT, 2019.
 
 ******************************************
 Gaussian 16:  ES64L-G16RevC.02  7-Dec-2021
                30-Jun-2023 
 ******************************************
 %mem=8GB
 %NPROCS=4
 Will use up to    4 processors via shared memory.
 %NoSave
 ---------------------------------------------------------
 #MP2/6-31G* SCF=Tight Opt=(ModRedun, MaxCycle=20 ) NoSymm
 ---------------------------------------------------------
 1/6=20,18=120,19=15,38=1/1,3;
 2/9=110,12=2,15=1,17=6,18=5,40=1/2;
 3/5=1,6=6,7=1,11=9,25=1,30=1,71=1/1,2,3;
 4//1;
 5/5=2,32=2,38=5/2;
 8/6=4,10=2/1;
 9/15=2,16=-3/6;
 10/5=1,31=1/2;
 6/7=2,8=2,9=2,10=2/1;
 7/12=2,30=1/1,2,3,16;
 1/6=20,18=20,19=15/3(2);
 2/9=110,15=1/2;
 99//99;
 2/9=110,15=1/2;
 3/5=1,6=6,7=1,11=9,25=1,30=1,71=1/1,2,3;
 4/5=5,16=3,69=1/1;
 5/5=2,32=2,38=5/2;
 8/6=4,10=2/1;
 9/15=2,16=-3/6;
 10/5=1,31=1/2;
 7/12=2,30=1/1,2,3,16;
 1/6=20,18=20,19=15/3(-8);
 2/9=110,15=1/2;
 6/7=2,8=2,9=2,10=2/1;
 99/9=10/99;
 --------
 MolName:
 --------
 Symbolic Z-matrix:
 Charge =  0 Multiplicity = 1
 8                    0    -3.66142  -1.01567   0.71 
 7                    0    -3.19508  -0.25158  -0.13014 
 8                    0    -3.83594   0.41094  -0.94361 
 6                    0    -1.73263  -0.00278  -0.05298 
 6                    0    -1.37635   1.29816   0.29463 
 7                    0    -0.09495   1.74058   0.49069 
 6                    0     1.18698   0.97357   0.41549 
 1                    0     1.85946   1.44627   1.17743 
 6                    0     1.93045   1.07804  -0.93958 
 6                    0     3.34873   0.49438  -0.79277 
 6                    0     3.30487  -0.94243  -0.24896 
 6                    0     2.47688  -1.02802   1.0512 
 6                    0     1.03259  -0.49609   0.84223 
 1                    0     0.49673  -0.5721    1.81743 
 7                    0     0.36832  -1.34276  -0.1546 
 6                    0    -0.87919  -1.14772  -0.42867 
 1                    0    -2.18351   2.0285    0.47314 
 1                    0     0.13957   2.73168   0.39618 
 1                    0     1.37225   0.52553  -1.72515 
 1                    0     2.00467   2.14043  -1.25494 
 1                    0     3.86846   0.50905  -1.77574 
 1                    0     3.93241   1.12683  -0.0871 
 1                    0     2.85101  -1.60751  -1.01797 
 1                    0     4.33842  -1.30646  -0.06051 
 1                    0     2.43199  -2.08702   1.38769 
 1                    0     2.97748  -0.44037   1.84898 
 1                    0    -1.40223  -1.90441  -1.03336 
 
 The following ModRedundant input section has been read:
 D       1       2       4      16 F                                           
 D       7      13      15      16 F                                           
 D       7       9      10      11 F                                           
 D       9      10      11      12 F                                           
 D       6       7      13      15 F                                           
 

 GradGradGradGradGradGradGradGradGradGradGradGradGradGradGradGradGradGrad
 Berny optimization.
 Initialization pass.
                           ----------------------------
                           !    Initial Parameters    !
                           ! (Angstroms and Degrees)  !
 --------------------------                            --------------------------
 ! Name  Definition              Value          Derivative Info.                !
 --------------------------------------------------------------------------------
 ! R1    R(1,2)                  1.2277         estimate D2E/DX2                !
 ! R2    R(2,3)                  1.2294         estimate D2E/DX2                !
 ! R3    R(2,4)                  1.4855         estimate D2E/DX2                !
 ! R4    R(4,5)                  1.3929         estimate D2E/DX2                !
 ! R5    R(4,16)                 1.4766         estimate D2E/DX2                !
 ! R6    R(5,6)                  1.3697         estimate D2E/DX2                !
 ! R7    R(5,17)                 1.1031         estimate D2E/DX2                !
 ! R8    R(6,7)                  1.4958         estimate D2E/DX2                !
 ! R9    R(6,18)                 1.0228         estimate D2E/DX2                !
 ! R10   R(7,8)                  1.1208         estimate D2E/DX2                !
 ! R11   R(7,9)                  1.5492         estimate D2E/DX2                !
 ! R12   R(7,13)                 1.5381         estimate D2E/DX2                !
 ! R13   R(9,10)                 1.5407         estimate D2E/DX2                !
 ! R14   R(9,19)                 1.1108         estimate D2E/DX2                !
 ! R15   R(9,20)                 1.1107         estimate D2E/DX2                !
 ! R16   R(10,11)                1.5369         estimate D2E/DX2                !
 ! R17   R(10,21)                1.112          estimate D2E/DX2                !
 ! R18   R(10,22)                1.1129         estimate D2E/DX2                !
 ! R19   R(11,12)                1.5438         estimate D2E/DX2                !
 ! R20   R(11,23)                1.1134         estimate D2E/DX2                !
 ! R21   R(11,24)                1.1119         estimate D2E/DX2                !
 ! R22   R(12,13)                1.5533         estimate D2E/DX2                !
 ! R23   R(12,25)                1.1121         estimate D2E/DX2                !
 ! R24   R(12,26)                1.1101         estimate D2E/DX2                !
 ! R25   R(13,14)                1.1153         estimate D2E/DX2                !
 ! R26   R(13,15)                1.4669         estimate D2E/DX2                !
 ! R27   R(15,16)                1.2921         estimate D2E/DX2                !
 ! R28   R(16,27)                1.1008         estimate D2E/DX2                !
 ! A1    A(1,2,3)              126.1728         estimate D2E/DX2                !
 ! A2    A(1,2,4)              116.2746         estimate D2E/DX2                !
 ! A3    A(3,2,4)              117.2143         estimate D2E/DX2                !
 ! A4    A(2,4,5)              114.911          estimate D2E/DX2                !
 ! A5    A(2,4,16)             115.2096         estimate D2E/DX2                !
 ! A6    A(5,4,16)             129.7801         estimate D2E/DX2                !
 ! A7    A(4,5,6)              125.2171         estimate D2E/DX2                !
 ! A8    A(4,5,17)             118.1381         estimate D2E/DX2                !
 ! A9    A(6,5,17)             116.5853         estimate D2E/DX2                !
 ! A10   A(5,6,7)              128.9725         estimate D2E/DX2                !
 ! A11   A(5,6,18)             120.9469         estimate D2E/DX2                !
 ! A12   A(7,6,18)             107.201          estimate D2E/DX2                !
 ! A13   A(6,7,8)              105.2941         estimate D2E/DX2                !
 ! A14   A(6,7,9)              114.8793         estimate D2E/DX2                !
 ! A15   A(6,7,13)             112.9537         estimate D2E/DX2                !
 ! A16   A(8,7,9)              106.1558         estimate D2E/DX2                !
 ! A17   A(8,7,13)             105.9376         estimate D2E/DX2                !
 ! A18   A(9,7,13)             110.8112         estimate D2E/DX2                !
 ! A19   A(7,9,10)             109.4444         estimate D2E/DX2                !
 ! A20   A(7,9,19)             110.1136         estimate D2E/DX2                !
 ! A21   A(7,9,20)             110.1777         estimate D2E/DX2                !
 ! A22   A(10,9,19)            109.9707         estimate D2E/DX2                !
 ! A23   A(10,9,20)            109.1412         estimate D2E/DX2                !
 ! A24   A(19,9,20)            107.971          estimate D2E/DX2                !
 ! A25   A(9,10,11)            111.1987         estimate D2E/DX2                !
 ! A26   A(9,10,21)            109.9388         estimate D2E/DX2                !
 ! A27   A(9,10,22)            109.1426         estimate D2E/DX2                !
 ! A28   A(11,10,21)           109.7822         estimate D2E/DX2                !
 ! A29   A(11,10,22)           108.7762         estimate D2E/DX2                !
 ! A30   A(21,10,22)           107.9308         estimate D2E/DX2                !
 ! A31   A(10,11,12)           111.4156         estimate D2E/DX2                !
 ! A32   A(10,11,23)           109.0066         estimate D2E/DX2                !
 ! A33   A(10,11,24)           109.8479         estimate D2E/DX2                !
 ! A34   A(12,11,23)           109.2648         estimate D2E/DX2                !
 ! A35   A(12,11,24)           109.7345         estimate D2E/DX2                !
 ! A36   A(23,11,24)           107.4821         estimate D2E/DX2                !
 ! A37   A(11,12,13)           111.4949         estimate D2E/DX2                !
 ! A38   A(11,12,25)           109.2245         estimate D2E/DX2                !
 ! A39   A(11,12,26)           109.5131         estimate D2E/DX2                !
 ! A40   A(13,12,25)           109.2257         estimate D2E/DX2                !
 ! A41   A(13,12,26)           109.5546         estimate D2E/DX2                !
 ! A42   A(25,12,26)           107.7489         estimate D2E/DX2                !
 ! A43   A(7,13,12)            105.7363         estimate D2E/DX2                !
 ! A44   A(7,13,14)            110.8503         estimate D2E/DX2                !
 ! A45   A(7,13,15)            114.1051         estimate D2E/DX2                !
 ! A46   A(12,13,14)           107.8048         estimate D2E/DX2                !
 ! A47   A(12,13,15)           108.3508         estimate D2E/DX2                !
 ! A48   A(14,13,15)           109.7108         estimate D2E/DX2                !
 ! A49   A(13,15,16)           119.6198         estimate D2E/DX2                !
 ! A50   A(4,16,15)            128.3977         estimate D2E/DX2                !
 ! A51   A(4,16,27)            113.4615         estimate D2E/DX2                !
 ! A52   A(15,16,27)           118.1322         estimate D2E/DX2                !
 ! D1    D(1,2,4,5)           -113.2647         estimate D2E/DX2                !
 ! D2    D(1,2,4,16)            69.9996         Frozen                          !
 ! D3    D(3,2,4,5)             60.4743         estimate D2E/DX2                !
 ! D4    D(3,2,4,16)          -116.2614         estimate D2E/DX2                !
 ! D5    D(2,4,5,6)            176.5852         estimate D2E/DX2                !
 ! D6    D(2,4,5,17)            -0.5079         estimate D2E/DX2                !
 ! D7    D(16,4,5,6)            -7.2586         estimate D2E/DX2                !
 ! D8    D(16,4,5,17)          175.6483         estimate D2E/DX2                !
 ! D9    D(2,4,16,15)         -161.3239         estimate D2E/DX2                !
 ! D10   D(2,4,16,27)           19.7748         estimate D2E/DX2                !
 ! D11   D(5,4,16,15)           22.5293         estimate D2E/DX2                !
 ! D12   D(5,4,16,27)         -156.372          estimate D2E/DX2                !
 ! D13   D(4,5,6,7)             -1.4143         estimate D2E/DX2                !
 ! D14   D(4,5,6,18)           156.8012         estimate D2E/DX2                !
 ! D15   D(17,5,6,7)           175.7194         estimate D2E/DX2                !
 ! D16   D(17,5,6,18)          -26.0652         estimate D2E/DX2                !
 ! D17   D(5,6,7,8)           -146.9998         estimate D2E/DX2                !
 ! D18   D(5,6,7,9)             96.5903         estimate D2E/DX2                !
 ! D19   D(5,6,7,13)           -31.8513         estimate D2E/DX2                !
 ! D20   D(18,6,7,8)            52.4626         estimate D2E/DX2                !
 ! D21   D(18,6,7,9)           -63.9473         estimate D2E/DX2                !
 ! D22   D(18,6,7,13)          167.6111         estimate D2E/DX2                !
 ! D23   D(6,7,9,10)           168.5288         estimate D2E/DX2                !
 ! D24   D(6,7,9,19)           -70.4733         estimate D2E/DX2                !
 ! D25   D(6,7,9,20)            48.5156         estimate D2E/DX2                !
 ! D26   D(8,7,9,10)            52.6127         estimate D2E/DX2                !
 ! D27   D(8,7,9,19)           173.6107         estimate D2E/DX2                !
 ! D28   D(8,7,9,20)           -67.4005         estimate D2E/DX2                !
 ! D29   D(13,7,9,10)          -61.9659         estimate D2E/DX2                !
 ! D30   D(13,7,9,19)           59.0321         estimate D2E/DX2                !
 ! D31   D(13,7,9,20)          178.0209         estimate D2E/DX2                !
 ! D32   D(6,7,13,12)         -166.0045         estimate D2E/DX2                !
 ! D33   D(6,7,13,14)          -49.4363         estimate D2E/DX2                !
 ! D34   D(6,7,13,15)           75.0214         Frozen                          !
 ! D35   D(8,7,13,12)          -51.2425         estimate D2E/DX2                !
 ! D36   D(8,7,13,14)           65.3257         estimate D2E/DX2                !
 ! D37   D(8,7,13,15)         -170.2166         estimate D2E/DX2                !
 ! D38   D(9,7,13,12)           63.4729         estimate D2E/DX2                !
 ! D39   D(9,7,13,14)         -179.9589         estimate D2E/DX2                !
 ! D40   D(9,7,13,15)          -55.5012         estimate D2E/DX2                !
 ! D41   D(7,9,10,11)           54.8122         Frozen                          !
 ! D42   D(7,9,10,21)          176.6054         estimate D2E/DX2                !
 ! D43   D(7,9,10,22)          -65.1923         estimate D2E/DX2                !
 ! D44   D(19,9,10,11)         -66.2723         estimate D2E/DX2                !
 ! D45   D(19,9,10,21)          55.5209         estimate D2E/DX2                !
 ! D46   D(19,9,10,22)         173.7232         estimate D2E/DX2                !
 ! D47   D(20,9,10,11)         175.4584         estimate D2E/DX2                !
 ! D48   D(20,9,10,21)         -62.7484         estimate D2E/DX2                !
 ! D49   D(20,9,10,22)          55.4539         estimate D2E/DX2                !
 ! D50   D(9,10,11,12)         -52.8222         Frozen                          !
 ! D51   D(9,10,11,23)          67.8375         estimate D2E/DX2                !
 ! D52   D(9,10,11,24)        -174.6376         estimate D2E/DX2                !
 ! D53   D(21,10,11,12)       -174.7065         estimate D2E/DX2                !
 ! D54   D(21,10,11,23)        -54.0467         estimate D2E/DX2                !
 ! D55   D(21,10,11,24)         63.4782         estimate D2E/DX2                !
 ! D56   D(22,10,11,12)         67.3993         estimate D2E/DX2                !
 ! D57   D(22,10,11,23)       -171.941          estimate D2E/DX2                !
 ! D58   D(22,10,11,24)        -54.4161         estimate D2E/DX2                !
 ! D59   D(10,11,12,13)         56.7437         estimate D2E/DX2                !
 ! D60   D(10,11,12,25)        177.5496         estimate D2E/DX2                !
 ! D61   D(10,11,12,26)        -64.6691         estimate D2E/DX2                !
 ! D62   D(23,11,12,13)        -63.7645         estimate D2E/DX2                !
 ! D63   D(23,11,12,25)         57.0414         estimate D2E/DX2                !
 ! D64   D(23,11,12,26)        174.8228         estimate D2E/DX2                !
 ! D65   D(24,11,12,13)        178.6247         estimate D2E/DX2                !
 ! D66   D(24,11,12,25)        -60.5693         estimate D2E/DX2                !
 ! D67   D(24,11,12,26)         57.212          estimate D2E/DX2                !
 ! D68   D(11,12,13,7)         -60.5855         estimate D2E/DX2                !
 ! D69   D(11,12,13,14)       -179.198          estimate D2E/DX2                !
 ! D70   D(11,12,13,15)         62.133          estimate D2E/DX2                !
 ! D71   D(25,12,13,7)         178.6093         estimate D2E/DX2                !
 ! D72   D(25,12,13,14)         59.9968         estimate D2E/DX2                !
 ! D73   D(25,12,13,15)        -58.6722         estimate D2E/DX2                !
 ! D74   D(26,12,13,7)          60.8031         estimate D2E/DX2                !
 ! D75   D(26,12,13,14)        -57.8093         estimate D2E/DX2                !
 ! D76   D(26,12,13,15)       -176.4783         estimate D2E/DX2                !
 ! D77   D(7,13,15,16)         -67.1591         Frozen                          !
 ! D78   D(12,13,15,16)        175.3601         estimate D2E/DX2                !
 ! D79   D(14,13,15,16)         57.9054         estimate D2E/DX2                !
 ! D80   D(13,15,16,4)          12.2909         estimate D2E/DX2                !
 ! D81   D(13,15,16,27)       -168.852          estimate D2E/DX2                !
 --------------------------------------------------------------------------------
 Trust Radius=3.00D-01 FncErr=1.00D-07 GrdErr=1.00D-07 EigMax=2.50D+02 EigMin=1.00D-04
 Number of steps in this run=     20 maximum allowed number of steps=    162.
 GradGradGradGradGradGradGradGradGradGradGradGradGradGradGradGradGradGrad

                          Input orientation:                          
 ---------------------------------------------------------------------
 Center     Atomic      Atomic             Coordinates (Angstroms)
 Number     Number       Type             X           Y           Z
 ---------------------------------------------------------------------
      1          8           0       -3.661420   -1.015670    0.710000
      2          7           0       -3.195080   -0.251580   -0.130140
      3          8           0       -3.835940    0.410940   -0.943610
      4          6           0       -1.732630   -0.002780   -0.052980
      5          6           0       -1.376350    1.298160    0.294630
      6          7           0       -0.094950    1.740580    0.490690
      7          6           0        1.186980    0.973570    0.415490
      8          1           0        1.859460    1.446270    1.177430
      9          6           0        1.930450    1.078040   -0.939580
     10          6           0        3.348730    0.494380   -0.792770
     11          6           0        3.304870   -0.942430   -0.248960
     12          6           0        2.476880   -1.028020    1.051200
     13          6           0        1.032590   -0.496090    0.842230
     14          1           0        0.496730   -0.572100    1.817430
     15          7           0        0.368320   -1.342760   -0.154600
     16          6           0       -0.879190   -1.147720   -0.428670
     17          1           0       -2.183510    2.028500    0.473140
     18          1           0        0.139570    2.731680    0.396180
     19          1           0        1.372250    0.525530   -1.725150
     20          1           0        2.004670    2.140430   -1.254940
     21          1           0        3.868460    0.509050   -1.775740
     22          1           0        3.932410    1.126830   -0.087100
     23          1           0        2.851010   -1.607510   -1.017970
     24          1           0        4.338420   -1.306460   -0.060510
     25          1           0        2.431990   -2.087020    1.387690
     26          1           0        2.977480   -0.440370    1.848980
     27          1           0       -1.402230   -1.904410   -1.033360
 ---------------------------------------------------------------------
                    Distance matrix (angstroms):
                    1          2          3          4          5
     1  O    0.000000
     2  N    1.227657   0.000000
     3  O    2.190913   1.229377   0.000000
     4  C    2.308314   1.485468   2.321271   0.000000
     5  C    3.278397   2.426912   2.893092   1.392915   0.000000
     6  N    4.512729   3.736969   4.221394   2.452932   1.369730
     7  C    5.248885   4.582702   5.233873   3.113976   2.586625
     8  H    6.062982   5.490065   6.165087   4.064082   3.357341
     9  C    6.194655   5.356691   5.804851   3.920764   3.536475
    10  C    7.326716   6.619440   7.186738   5.158941   4.914762
    11  C    7.032366   6.537640   7.301049   5.128134   5.218195
    12  C    6.147788   5.845473   6.775070   4.471052   4.564087
    13  C    4.724529   4.344938   5.264457   2.948084   3.053226
    14  H    4.325895   4.186314   5.230845   2.965233   3.053722
    15  N    4.134408   3.726807   4.623181   2.493966   3.196895
    16  C    3.009121   2.501106   3.381857   1.476615   2.598588
    17  H    3.392240   2.566317   2.711864   2.146204   1.103073
    18  H    5.346835   4.505191   4.794325   3.344271   2.088853
    19  H    5.800266   4.899843   5.267749   3.565886   3.497323
    20  H    6.776912   5.833034   6.099245   4.472747   3.813382
    21  H    8.074823   7.292472   7.749829   5.882353   5.693607
    22  H    7.930443   7.259682   7.848144   5.776665   5.325223
    23  H    6.763719   6.259552   6.985340   4.951376   5.294942
    24  H    8.042119   7.607315   8.399374   6.209451   6.290371
    25  H    6.223881   6.110365   7.138747   4.874797   5.211303
    26  H    6.760417   6.484833   7.412556   5.098438   4.939061
    27  H    2.988830   2.600378   3.360334   2.164834   3.467085
                    6          7          8          9         10
     6  N    0.000000
     7  C    1.495762   0.000000
     8  H    2.092355   1.120815   0.000000
     9  C    2.566491   1.549153   2.149968   0.000000
    10  C    3.880621   2.522435   2.646830   1.540692   0.000000
    11  C    4.393677   2.932236   3.135233   2.539347   1.536905
    12  C    3.820161   2.464616   2.553283   2.949115   2.545201
    13  C    2.529352   1.538130   2.137483   2.541434   3.003125
    14  H    2.731083   2.197948   2.518025   3.518468   4.010540
    15  N    3.184023   2.522021   3.431689   2.986087   3.558818
    16  C    3.130900   3.079210   4.099823   3.620651   4.550205
    17  H    2.108385   3.532195   4.144951   4.452395   5.878923
    18  H    1.022845   2.046556   2.284875   2.779574   4.088743
    19  H    2.922151   2.194859   3.083846   1.110844   2.185584
    20  H    2.759621   2.195567   2.533647   1.110690   2.174760
    21  H    4.728847   3.493938   3.692652   2.186046   1.112009
    22  H    4.114627   2.795259   2.449122   2.176453   1.112945
    23  H    4.707913   3.389067   3.889540   2.840027   2.171723
    24  H    5.407684   3.918761   3.905798   3.500989   2.181448
    25  H    4.673388   3.444188   3.585546   3.960471   3.501206
    26  H    4.005162   2.694441   2.293547   3.343338   2.826734
    27  H    4.161449   4.133515   5.172356   4.473316   5.327635
                   11         12         13         14         15
    11  C    0.000000
    12  C    1.543797   0.000000
    13  C    2.559916   1.553252   0.000000
    14  H    3.506104   2.171627   1.115320   0.000000
    15  N    2.965214   2.449294   1.466893   2.121157   0.000000
    16  C    4.192946   3.669816   2.386359   2.696194   1.292067
    17  H    6.282529   5.603187   4.105250   3.969121   4.274493
    18  H    4.892281   4.475200   3.378601   3.614205   4.117857
    19  H    2.840610   3.367765   2.783975   3.810669   2.639131
    20  H    3.493786   3.947194   3.506323   4.367054   4.002624
    21  H    2.180707   3.505805   3.988262   5.044633   4.278817
    22  H    2.168373   2.838604   3.450577   4.279894   4.336608
    23  H    1.113417   2.181111   2.828825   3.828081   2.641827
    24  H    1.111871   2.186037   3.521385   4.338724   3.971381
    25  H    2.179594   1.112080   2.187900   2.494973   2.681663
    26  H    2.181880   1.110129   2.190718   2.484445   3.411210
    27  H    4.868006   4.490094   3.380762   3.675337   2.054876
                   16         17         18         19         20
    16  C    0.000000
    17  H    3.550054   0.000000
    18  H    4.094874   2.428392   0.000000
    19  H    3.090244   4.442390   3.299491   0.000000
    20  H    4.450989   4.532068   2.560151   1.796929   0.000000
    21  H    5.205734   6.632687   4.854064   2.496777   2.531076
    22  H    5.333080   6.207363   4.146654   3.098256   2.471319
    23  H    3.804349   6.386734   5.308512   2.690110   3.849610
    24  H    5.232991   7.344543   5.843414   3.863338   4.330601
    25  H    3.891704   6.251140   5.427536   4.199790   5.003742
    26  H    4.534527   5.884222   4.497362   4.035360   4.152253
    27  H    1.100818   4.283424   5.090586   3.752455   5.293089
                   21         22         23         24         25
    21  H    0.000000
    22  H    1.799235   0.000000
    23  H    2.467640   3.084244   0.000000
    24  H    2.541447   2.467073   1.794366   0.000000
    25  H    4.337086   3.841236   2.488515   2.518141   0.000000
    26  H    3.851472   2.667661   3.098001   2.499684   1.794938
    27  H    5.844321   6.208237   4.263618   5.853123   4.538290
                   26         27
    26  H    0.000000
    27  H    5.443635   0.000000
 Symmetry turned off by external request.
 Stoichiometry    C9H13N3O2
 Framework group  C1[X(C9H13N3O2)]
 Deg. of freedom    75
 Full point group                 C1      NOp   1
 Rotational constants (GHZ):           1.6624573           0.4039255           0.3669811
 Standard basis: 6-31G(d) (6D, 7F)
   236 basis functions,   444 primitive gaussians,   236 cartesian basis functions
    52 alpha electrons       52 beta electrons
       nuclear repulsion energy       920.5889902791 Hartrees.
 NAtoms=   27 NActive=   27 NUniq=   27 SFac= 1.00D+00 NAtFMM=   60 NAOKFM=F Big=F
 Integral buffers will be    131072 words long.
 Raffenetti 1 integral format.
 Two-electron integral symmetry is turned off.
 One-electron integrals computed using PRISM.
 NBasis=   236 RedAO= T EigKep=  1.69D-03  NBF=   236
 NBsUse=   236 1.00D-06 EigRej= -1.00D+00 NBFU=   236
 ExpMin= 1.61D-01 ExpMax= 5.48D+03 ExpMxC= 8.25D+02 IAcc=3 IRadAn=         5 AccDes= 0.00D+00
 Harris functional with IExCor=  205 and IRadAn=       5 diagonalized for initial guess.
 HarFok:  IExCor=  205 AccDes= 0.00D+00 IRadAn=         5 IDoV= 1 UseB2=F ITyADJ=14
 ICtDFT=  3500011 ScaDFX=  1.000000  1.000000  1.000000  1.000000
 FoFCou: FMM=F IPFlag=           0 FMFlag=      100000 FMFlg1=           0
         NFxFlg=           0 DoJE=T BraDBF=F KetDBF=T FulRan=T
         wScrn=  0.000000 ICntrl=       500 IOpCl=  0 I1Cent=   200000004 NGrid=           0
         NMat0=    1 NMatS0=      1 NMatT0=    0 NMatD0=    1 NMtDS0=    0 NMtDT0=    0
 Symmetry not used in FoFCou.
 Keep R1 ints in memory in canonical form, NReq=397720213.
 Requested convergence on RMS density matrix=1.00D-08 within 128 cycles.
 Requested convergence on MAX density matrix=1.00D-06.
 Requested convergence on             energy=1.00D-06.
 No special actions if energy rises.
 SCF Done:  E(RHF) =  -661.270596870     A.U. after   17 cycles
            NFock= 17  Conv=0.54D-08     -V/T= 2.0035
 ExpMin= 1.61D-01 ExpMax= 5.48D+03 ExpMxC= 8.25D+02 IAcc=3 IRadAn=         5 AccDes= 0.00D+00
 HarFok:  IExCor=  205 AccDes= 0.00D+00 IRadAn=         5 IDoV=-2 UseB2=F ITyADJ=14
 ICtDFT= 12500011 ScaDFX=  1.000000  1.000000  1.000000  1.000000
 Range of M.O.s used for correlation:    15   236
 NBasis=   236 NAE=    52 NBE=    52 NFC=    14 NFV=     0
 NROrb=    222 NOA=    38 NOB=    38 NVA=   184 NVB=   184
 Fully direct method using O(ONN) memory.
 JobTyp=1 Pass  1:  I=  15 to  52 NPSUse=  4 ParTrn=T ParDer=T DoDerP=T.
 Spin components of T(2) and E(2):
     alpha-alpha T2 =       0.9177062734D-01 E2=     -0.2717705467D+00
     alpha-beta  T2 =       0.5014609092D+00 E2=     -0.1495892052D+01
     beta-beta   T2 =       0.9177062734D-01 E2=     -0.2717705467D+00
 ANorm=    0.1298076332D+01
 E2 =    -0.2039433145D+01 EUMP2 =    -0.66331003001524D+03
          IDoAtm=111111111111111111111111111
          Differentiating once with respect to electric field.
                with respect to dipole field.
          Differentiating once with respect to nuclear coordinates.
 Keep R1 ints in memory in canonical form, NReq=397723379.
          There are     1 degrees of freedom in the 1st order CPHF.  IDoFFX=0 NUNeed=     1.
 LinEq1:  Iter=  0 NonCon=     1 RMS=4.50D-03 Max=1.31D-01 NDo=     1
 AX will form     1 AO Fock derivatives at one time.
 LinEq1:  Iter=  1 NonCon=     1 RMS=1.50D-03 Max=3.24D-02 NDo=     1
 LinEq1:  Iter=  2 NonCon=     1 RMS=6.17D-04 Max=1.89D-02 NDo=     1
 LinEq1:  Iter=  3 NonCon=     1 RMS=2.81D-04 Max=5.74D-03 NDo=     1
 LinEq1:  Iter=  4 NonCon=     1 RMS=8.55D-05 Max=1.73D-03 NDo=     1
 LinEq1:  Iter=  5 NonCon=     1 RMS=3.41D-05 Max=1.31D-03 NDo=     1
 LinEq1:  Iter=  6 NonCon=     1 RMS=1.41D-05 Max=6.46D-04 NDo=     1
 LinEq1:  Iter=  7 NonCon=     1 RMS=5.39D-06 Max=9.94D-05 NDo=     1
 LinEq1:  Iter=  8 NonCon=     1 RMS=2.17D-06 Max=5.89D-05 NDo=     1
 LinEq1:  Iter=  9 NonCon=     1 RMS=7.01D-07 Max=1.48D-05 NDo=     1
 LinEq1:  Iter= 10 NonCon=     1 RMS=2.71D-07 Max=9.47D-06 NDo=     1
 LinEq1:  Iter= 11 NonCon=     1 RMS=1.26D-07 Max=4.54D-06 NDo=     1
 LinEq1:  Iter= 12 NonCon=     1 RMS=6.12D-08 Max=1.53D-06 NDo=     1
 LinEq1:  Iter= 13 NonCon=     1 RMS=2.13D-08 Max=6.14D-07 NDo=     1
 LinEq1:  Iter= 14 NonCon=     1 RMS=7.63D-09 Max=2.07D-07 NDo=     1
 LinEq1:  Iter= 15 NonCon=     1 RMS=2.83D-09 Max=6.08D-08 NDo=     1
 LinEq1:  Iter= 16 NonCon=     1 RMS=1.01D-09 Max=2.51D-08 NDo=     1
 LinEq1:  Iter= 17 NonCon=     1 RMS=2.97D-10 Max=6.31D-09 NDo=     1
 LinEq1:  Iter= 18 NonCon=     1 RMS=1.06D-10 Max=2.83D-09 NDo=     1
 LinEq1:  Iter= 19 NonCon=     0 RMS=3.29D-11 Max=6.61D-10 NDo=     1
 Linear equations converged to 1.000D-10 1.000D-09 after    19 iterations.
 End of Minotr F.D. properties file   721 does not exist.
 End of Minotr F.D. properties file   722 does not exist.
 End of Minotr F.D. properties file   788 does not exist.

 **********************************************************************

            Population analysis using the SCF Density.

 **********************************************************************

 Alpha  occ. eigenvalues --  -20.60540 -20.60487 -15.85015 -15.62410 -15.56790
 Alpha  occ. eigenvalues --  -11.35190 -11.30883 -11.29789 -11.29257 -11.27604
 Alpha  occ. eigenvalues --  -11.24348 -11.23694 -11.23264 -11.22727  -1.59313
 Alpha  occ. eigenvalues --   -1.39000  -1.28069  -1.22650  -1.13504  -1.08928
 Alpha  occ. eigenvalues --   -1.01652  -1.00645  -0.93811  -0.88968  -0.84689
 Alpha  occ. eigenvalues --   -0.81787  -0.78463  -0.77177  -0.74037  -0.71558
 Alpha  occ. eigenvalues --   -0.71170  -0.69022  -0.66872  -0.64476  -0.63012
 Alpha  occ. eigenvalues --   -0.61589  -0.60356  -0.57279  -0.56289  -0.54705
 Alpha  occ. eigenvalues --   -0.53577  -0.51071  -0.50289  -0.48685  -0.48032
 Alpha  occ. eigenvalues --   -0.47639  -0.46168  -0.45489  -0.44174  -0.41986
 Alpha  occ. eigenvalues --   -0.39924  -0.32830
 Alpha virt. eigenvalues --    0.08773   0.10224   0.18469   0.21051   0.23061
 Alpha virt. eigenvalues --    0.24200   0.25234   0.27795   0.28577   0.28830
 Alpha virt. eigenvalues --    0.29046   0.30894   0.31969   0.32441   0.33435
 Alpha virt. eigenvalues --    0.33969   0.34946   0.36628   0.37767   0.38527
 Alpha virt. eigenvalues --    0.40733   0.41949   0.44464   0.45145   0.45547
 Alpha virt. eigenvalues --    0.46988   0.49891   0.53636   0.57492   0.57956
 Alpha virt. eigenvalues --    0.61356   0.68792   0.69397   0.72218   0.73890
 Alpha virt. eigenvalues --    0.74404   0.75891   0.76242   0.78097   0.78983
 Alpha virt. eigenvalues --    0.80396   0.82988   0.84862   0.85598   0.88314
 Alpha virt. eigenvalues --    0.88653   0.89484   0.91238   0.92305   0.92995
 Alpha virt. eigenvalues --    0.94602   0.97087   0.98607   1.00812   1.01626
 Alpha virt. eigenvalues --    1.03922   1.05270   1.06598   1.07466   1.08225
 Alpha virt. eigenvalues --    1.09769   1.10629   1.10787   1.11116   1.12752
 Alpha virt. eigenvalues --    1.13155   1.13730   1.14198   1.15438   1.15949
 Alpha virt. eigenvalues --    1.17161   1.17221   1.18598   1.21003   1.21948
 Alpha virt. eigenvalues --    1.23195   1.23617   1.25365   1.25965   1.28041
 Alpha virt. eigenvalues --    1.28798   1.31121   1.32691   1.34391   1.37702
 Alpha virt. eigenvalues --    1.39701   1.42030   1.44032   1.47548   1.52116
 Alpha virt. eigenvalues --    1.53332   1.55756   1.60344   1.64396   1.67273
 Alpha virt. eigenvalues --    1.68311   1.71472   1.72841   1.74380   1.75484
 Alpha virt. eigenvalues --    1.78529   1.80091   1.85068   1.90158   1.91448
 Alpha virt. eigenvalues --    1.92545   1.97589   1.98526   2.00092   2.01127
 Alpha virt. eigenvalues --    2.02894   2.03666   2.05920   2.10313   2.11483
 Alpha virt. eigenvalues --    2.12742   2.14816   2.17356   2.19423   2.19951
 Alpha virt. eigenvalues --    2.22305   2.22901   2.25420   2.26368   2.28515
 Alpha virt. eigenvalues --    2.30142   2.30895   2.33391   2.34237   2.35778
 Alpha virt. eigenvalues --    2.38768   2.39102   2.41747   2.43627   2.45251
 Alpha virt. eigenvalues --    2.48278   2.49566   2.51661   2.56418   2.57030
 Alpha virt. eigenvalues --    2.60854   2.63030   2.65712   2.68236   2.69545
 Alpha virt. eigenvalues --    2.69962   2.71918   2.73662   2.75895   2.82821
 Alpha virt. eigenvalues --    2.85958   2.86458   2.88431   2.93409   2.95978
 Alpha virt. eigenvalues --    2.97399   3.00927   3.04406   3.05955   3.06837
 Alpha virt. eigenvalues --    3.08964   3.13484   3.19790   3.20884   3.24244
 Alpha virt. eigenvalues --    3.27934   3.33256   3.38902   3.39572   3.59188
 Alpha virt. eigenvalues --    4.12865   4.19608   4.27531   4.32686   4.44951
 Alpha virt. eigenvalues --    4.53245   4.59904   4.61045   4.71334   4.78084
 Alpha virt. eigenvalues --    4.98481   4.99427   5.04005   5.09937
          Condensed to atoms (all electrons):
               1          2          3          4          5          6
     1  O    8.299398   0.300289  -0.080321  -0.084802  -0.000758  -0.000042
     2  N    0.300289   5.777646   0.296449   0.239738  -0.046100   0.001338
     3  O   -0.080321   0.296449   8.310019  -0.089255   0.007535   0.000192
     4  C   -0.084802   0.239738  -0.089255   5.230105   0.596928  -0.053839
     5  C   -0.000758  -0.046100   0.007535   0.596928   4.625090   0.319057
     6  N   -0.000042   0.001338   0.000192  -0.053839   0.319057   7.173703
     7  C    0.000007  -0.000111  -0.000003   0.003496  -0.030288   0.208719
     8  H   -0.000000   0.000002   0.000000  -0.000156   0.002436  -0.048768
     9  C    0.000000  -0.000006   0.000000   0.000446   0.001995  -0.058458
    10  C   -0.000000   0.000000   0.000000  -0.000019  -0.000076   0.003417
    11  C   -0.000000  -0.000000  -0.000000  -0.000019   0.000017  -0.000156
    12  C   -0.000000   0.000002   0.000000  -0.000087  -0.000160   0.003577
    13  C   -0.000026  -0.000036   0.000002  -0.009586   0.000575  -0.045896
    14  H   -0.000007  -0.000061   0.000001   0.002328   0.004549  -0.005403
    15  N   -0.000014   0.001976  -0.000034  -0.066646  -0.005821   0.003085
    16  C    0.005056  -0.031168   0.001578   0.320468  -0.029780  -0.001885
    17  H   -0.000152  -0.002064   0.003534  -0.034840   0.385855  -0.031430
    18  H    0.000000  -0.000054   0.000008   0.001695  -0.023731   0.328419
    19  H   -0.000000  -0.000000   0.000000  -0.000886   0.000642   0.000645
    20  H   -0.000000  -0.000000   0.000000  -0.000031   0.000013  -0.001349
    21  H    0.000000  -0.000000  -0.000000   0.000000   0.000001  -0.000061
    22  H   -0.000000   0.000000   0.000000  -0.000000  -0.000002  -0.000096
    23  H   -0.000000  -0.000000   0.000000   0.000024  -0.000000  -0.000023
    24  H   -0.000000   0.000000   0.000000   0.000000  -0.000000   0.000004
    25  H    0.000000  -0.000000   0.000000   0.000020  -0.000001  -0.000070
    26  H   -0.000000  -0.000000   0.000000   0.000004  -0.000000  -0.000067
    27  H    0.000697   0.000536   0.000192  -0.077039   0.001792   0.000040
               7          8          9         10         11         12
     1  O    0.000007  -0.000000   0.000000  -0.000000  -0.000000  -0.000000
     2  N   -0.000111   0.000002  -0.000006   0.000000  -0.000000   0.000002
     3  O   -0.000003   0.000000   0.000000   0.000000  -0.000000   0.000000
     4  C    0.003496  -0.000156   0.000446  -0.000019  -0.000019  -0.000087
     5  C   -0.030288   0.002436   0.001995  -0.000076   0.000017  -0.000160
     6  N    0.208719  -0.048768  -0.058458   0.003417  -0.000156   0.003577
     7  C    5.003998   0.415771   0.342017  -0.049559  -0.007641  -0.064394
     8  H    0.415771   0.548040  -0.060548   0.001220  -0.000258  -0.003050
     9  C    0.342017  -0.060548   5.180260   0.317818  -0.053138  -0.005872
    10  C   -0.049559   0.001220   0.317818   5.127880   0.332721  -0.060263
    11  C   -0.007641  -0.000258  -0.053138   0.332721   5.124533   0.330419
    12  C   -0.064394  -0.003050  -0.005872  -0.060263   0.330419   5.137816
    13  C    0.329082  -0.039114  -0.052243  -0.001410  -0.048070   0.367428
    14  H   -0.040213  -0.000953   0.003815  -0.000384   0.003938  -0.040508
    15  N   -0.059776   0.003980  -0.012405   0.001520  -0.007827  -0.073872
    16  C   -0.002091  -0.000031  -0.000492  -0.000057   0.000009   0.002516
    17  H    0.001621  -0.000035  -0.000067   0.000001   0.000000   0.000001
    18  H   -0.029574  -0.002887   0.000734  -0.000115   0.000011  -0.000139
    19  H   -0.035167   0.004080   0.386642  -0.033098  -0.002243   0.000622
    20  H   -0.041431  -0.001770   0.397223  -0.037401   0.004136  -0.000361
    21  H    0.004056  -0.000082  -0.035820   0.399953  -0.035939   0.004229
    22  H   -0.004278   0.003540  -0.045546   0.395819  -0.045608  -0.001270
    23  H    0.000428   0.000034  -0.001983  -0.040183   0.396684  -0.036763
    24  H   -0.000147  -0.000099   0.004382  -0.038485   0.400265  -0.037898
    25  H    0.004994  -0.000000  -0.000381   0.004104  -0.033980   0.395359
    26  H   -0.004469   0.001533   0.001055  -0.002410  -0.042216   0.394712
    27  H   -0.000408   0.000009  -0.000056   0.000004   0.000005  -0.000026
              13         14         15         16         17         18
     1  O   -0.000026  -0.000007  -0.000014   0.005056  -0.000152   0.000000
     2  N   -0.000036  -0.000061   0.001976  -0.031168  -0.002064  -0.000054
     3  O    0.000002   0.000001  -0.000034   0.001578   0.003534   0.000008
     4  C   -0.009586   0.002328  -0.066646   0.320468  -0.034840   0.001695
     5  C    0.000575   0.004549  -0.005821  -0.029780   0.385855  -0.023731
     6  N   -0.045896  -0.005403   0.003085  -0.001885  -0.031430   0.328419
     7  C    0.329082  -0.040213  -0.059776  -0.002091   0.001621  -0.029574
     8  H   -0.039114  -0.000953   0.003980  -0.000031  -0.000035  -0.002887
     9  C   -0.052243   0.003815  -0.012405  -0.000492  -0.000067   0.000734
    10  C   -0.001410  -0.000384   0.001520  -0.000057   0.000001  -0.000115
    11  C   -0.048070   0.003938  -0.007827   0.000009   0.000000   0.000011
    12  C    0.367428  -0.040508  -0.073872   0.002516   0.000001  -0.000139
    13  C    5.019787   0.404089   0.247844  -0.071146  -0.000054   0.003785
    14  H    0.404089   0.513082  -0.035823  -0.004767   0.000051   0.000013
    15  N    0.247844  -0.035823   6.914525   0.611465  -0.000050  -0.000126
    16  C   -0.071146  -0.004767   0.611465   4.656893   0.001510  -0.000142
    17  H   -0.000054   0.000051  -0.000050   0.001510   0.412369  -0.002269
    18  H    0.003785   0.000013  -0.000126  -0.000142  -0.002269   0.329864
    19  H   -0.006071   0.000060   0.006642   0.002296   0.000011  -0.000117
    20  H    0.003890  -0.000050   0.000079  -0.000032  -0.000003   0.002721
    21  H   -0.000392   0.000009  -0.000035   0.000002  -0.000000  -0.000000
    22  H    0.000331  -0.000042   0.000006  -0.000001   0.000000   0.000003
    23  H   -0.005877   0.000007   0.006730   0.000088   0.000000   0.000000
    24  H    0.004151  -0.000059   0.000036   0.000005   0.000000  -0.000000
    25  H   -0.034615  -0.002658   0.000892  -0.000045  -0.000000   0.000002
    26  H   -0.044611  -0.000890   0.004148  -0.000052   0.000000  -0.000001
    27  H    0.005010  -0.000159  -0.036648   0.406006  -0.000071   0.000002
              19         20         21         22         23         24
     1  O   -0.000000  -0.000000   0.000000  -0.000000  -0.000000  -0.000000
     2  N   -0.000000  -0.000000  -0.000000   0.000000  -0.000000   0.000000
     3  O    0.000000   0.000000  -0.000000   0.000000   0.000000   0.000000
     4  C   -0.000886  -0.000031   0.000000  -0.000000   0.000024   0.000000
     5  C    0.000642   0.000013   0.000001  -0.000002  -0.000000  -0.000000
     6  N    0.000645  -0.001349  -0.000061  -0.000096  -0.000023   0.000004
     7  C   -0.035167  -0.041431   0.004056  -0.004278   0.000428  -0.000147
     8  H    0.004080  -0.001770  -0.000082   0.003540   0.000034  -0.000099
     9  C    0.386642   0.397223  -0.035820  -0.045546  -0.001983   0.004382
    10  C   -0.033098  -0.037401   0.399953   0.395819  -0.040183  -0.038485
    11  C   -0.002243   0.004136  -0.035939  -0.045608   0.396684   0.400265
    12  C    0.000622  -0.000361   0.004229  -0.001270  -0.036763  -0.037898
    13  C   -0.006071   0.003890  -0.000392   0.000331  -0.005877   0.004151
    14  H    0.000060  -0.000050   0.000009  -0.000042   0.000007  -0.000059
    15  N    0.006642   0.000079  -0.000035   0.000006   0.006730   0.000036
    16  C    0.002296  -0.000032   0.000002  -0.000001   0.000088   0.000005
    17  H    0.000011  -0.000003  -0.000000   0.000000   0.000000   0.000000
    18  H   -0.000117   0.002721  -0.000000   0.000003   0.000000  -0.000000
    19  H    0.508277  -0.023820  -0.002600   0.003778   0.001659  -0.000072
    20  H   -0.023820   0.549089  -0.002647  -0.002941  -0.000050  -0.000090
    21  H   -0.002600  -0.002647   0.527401  -0.024791  -0.002831  -0.002078
    22  H    0.003778  -0.002941  -0.024791   0.569446   0.004074  -0.003589
    23  H    0.001659  -0.000050  -0.002831   0.004074   0.511206  -0.025082
    24  H   -0.000072  -0.000090  -0.002078  -0.003589  -0.025082   0.541856
    25  H   -0.000027   0.000011  -0.000087  -0.000082  -0.002081  -0.002398
    26  H    0.000023  -0.000035  -0.000073   0.002454   0.003822  -0.002748
    27  H    0.000085   0.000000  -0.000000   0.000000  -0.000020  -0.000000
              25         26         27
     1  O    0.000000  -0.000000   0.000697
     2  N   -0.000000  -0.000000   0.000536
     3  O    0.000000   0.000000   0.000192
     4  C    0.000020   0.000004  -0.077039
     5  C   -0.000001  -0.000000   0.001792
     6  N   -0.000070  -0.000067   0.000040
     7  C    0.004994  -0.004469  -0.000408
     8  H   -0.000000   0.001533   0.000009
     9  C   -0.000381   0.001055  -0.000056
    10  C    0.004104  -0.002410   0.000004
    11  C   -0.033980  -0.042216   0.000005
    12  C    0.395359   0.394712  -0.000026
    13  C   -0.034615  -0.044611   0.005010
    14  H   -0.002658  -0.000890  -0.000159
    15  N    0.000892   0.004148  -0.036648
    16  C   -0.000045  -0.000052   0.406006
    17  H   -0.000000   0.000000  -0.000071
    18  H    0.000002  -0.000001   0.000002
    19  H   -0.000027   0.000023   0.000085
    20  H    0.000011  -0.000035   0.000000
    21  H   -0.000087  -0.000073  -0.000000
    22  H   -0.000082   0.002454   0.000000
    23  H   -0.002081   0.003822  -0.000020
    24  H   -0.002398  -0.002748  -0.000000
    25  H    0.511208  -0.023169  -0.000012
    26  H   -0.023169   0.560569   0.000001
    27  H   -0.000012   0.000001   0.477251
 Mulliken charges:
               1
     1  O   -0.439326
     2  N    0.461624
     3  O   -0.449898
     4  C    0.021949
     5  C    0.190231
     6  N   -0.794655
     7  C    0.055365
     8  H    0.177106
     9  C   -0.309368
    10  C   -0.320998
    11  C   -0.315642
    12  C   -0.312017
    13  C   -0.026828
    14  H    0.200036
    15  N   -0.503851
    16  C    0.133795
    17  H    0.266085
    18  H    0.391897
    19  H    0.188640
    20  H    0.154848
    21  H    0.171783
    22  H    0.148796
    23  H    0.190138
    24  H    0.162047
    25  H    0.183015
    26  H    0.152419
    27  H    0.222810
 Sum of Mulliken charges =  -0.00000
 Mulliken charges with hydrogens summed into heavy atoms:
               1
     1  O   -0.439326
     2  N    0.461624
     3  O   -0.449898
     4  C    0.021949
     5  C    0.456315
     6  N   -0.402759
     7  C    0.232470
     9  C    0.034120
    10  C   -0.000419
    11  C    0.036544
    12  C    0.023417
    13  C    0.173209
    15  N   -0.503851
    16  C    0.356605
 Electronic spatial extent (au):  <R**2>=           3072.4856
 Charge=             -0.0000 electrons
 Dipole moment (field-independent basis, Debye):
    X=              4.6905    Y=              4.0286    Z=              0.7210  Tot=              6.2250
 Quadrupole moment (field-independent basis, Debye-Ang):
   XX=           -101.9379   YY=            -77.9763   ZZ=            -85.2209
   XY=             -1.3364   XZ=              0.0666   YZ=              3.4233
 Traceless Quadrupole moment (field-independent basis, Debye-Ang):
   XX=            -13.5596   YY=             10.4020   ZZ=              3.1575
   XY=             -1.3364   XZ=              0.0666   YZ=              3.4233
 Octapole moment (field-independent basis, Debye-Ang**2):
  XXX=             79.4869  YYY=             31.0635  ZZZ=             -2.2277  XYY=            -12.6473
  XXY=             12.1825  XXZ=              6.6239  XZZ=              1.1205  YZZ=             -3.0941
  YYZ=              0.9583  XYZ=            -12.7777
 Hexadecapole moment (field-independent basis, Debye-Ang**3):
 XXXX=          -3404.9053 YYYY=           -580.4954 ZZZZ=           -344.5892 XXXY=            -44.2873
 XXXZ=            -22.8768 YYYX=              0.0146 YYYZ=             36.6605 ZZZX=             -1.1283
 ZZZY=             27.7988 XXYY=           -602.5634 XXZZ=           -576.0795 YYZZ=           -166.7496
 XXYZ=             50.1832 YYXZ=             11.2337 ZZXY=              5.3279
 N-N= 9.205889902791D+02 E-N=-3.387298316039D+03  KE= 6.589967084581D+02
 Calling FoFJK, ICntrl=  10002127 FMM=F ISym2X=0 I1Cent= 0 IOpClX= 0 NMat=1 NMatS=1 NMatT=0.
 -------------------------------------------------------------------
 Center     Atomic                   Forces (Hartrees/Bohr)
 Number     Number              X              Y              Z
 -------------------------------------------------------------------
      1        8          -0.010514947   -0.022444971    0.009283493
      2        7           0.034575137    0.020816035    0.010735283
      3        8          -0.014709319    0.008081851   -0.016134223
      4        6           0.008332381    0.008369314    0.003443982
      5        6           0.005257451   -0.021163358   -0.009657648
      6        7           0.019860128   -0.002947619   -0.003222436
      7        6          -0.006566959    0.006108449    0.002735406
      8        1          -0.010372678   -0.001589077   -0.007557341
      9        6          -0.003667415   -0.000016464   -0.001851587
     10        6           0.002767023   -0.000920300    0.000661844
     11        6          -0.000719530   -0.004388051   -0.002375818
     12        6           0.000674349   -0.008973135   -0.003545977
     13        6           0.008306893   -0.000934017    0.002430472
     14        1           0.000592495    0.004296370   -0.010271244
     15        7           0.001805929   -0.004554622    0.004107348
     16        6          -0.014337314    0.014542873    0.007999289
     17        1           0.009463548   -0.004346779   -0.004172898
     18        1          -0.017180956   -0.002830733    0.004109396
     19        1           0.003153202    0.005599405    0.007706754
     20        1          -0.003234159   -0.007589297    0.002443638
     21        1          -0.004125185    0.002009662    0.009750757
     22        1          -0.004084325   -0.003757202   -0.007447646
     23        1           0.004013386    0.005774175    0.009431966
     24        1          -0.009407638    0.002567400   -0.001922015
     25        1          -0.000903092    0.010670497   -0.002082264
     26        1          -0.004855483   -0.004645404   -0.004518967
     27        1           0.005877079    0.002265000   -0.000079564
 -------------------------------------------------------------------
 Cartesian Forces:  Max     0.034575137 RMS     0.008976389

 GradGradGradGradGradGradGradGradGradGradGradGradGradGradGradGradGradGrad
 Berny optimization.
 FormGI is forming the generalized inverse of G from B-inverse, IUseBI=4.
 Internal  Forces:  Max     0.030217851 RMS     0.006234342
 Search for a local minimum.
 Step number   1 out of a maximum of   20
 All quantities printed in internal units (Hartrees-Bohrs-Radians)
 Mixed Optimization -- RFO/linear search
 Second derivative matrix not updated -- first step.
 ITU=  0
     Eigenvalues ---    0.00608   0.00770   0.01098   0.01181   0.01310
     Eigenvalues ---    0.01501   0.01538   0.01656   0.02000   0.02065
     Eigenvalues ---    0.02141   0.02673   0.03658   0.04508   0.04697
     Eigenvalues ---    0.04837   0.05070   0.05139   0.05301   0.05869
     Eigenvalues ---    0.06269   0.07211   0.07699   0.07715   0.07856
     Eigenvalues ---    0.07996   0.08038   0.08049   0.10459   0.11735
     Eigenvalues ---    0.12267   0.13365   0.15143   0.15582   0.15989
     Eigenvalues ---    0.15999   0.20100   0.22064   0.23281   0.24961
     Eigenvalues ---    0.25000   0.25000   0.25325   0.26149   0.26655
     Eigenvalues ---    0.27988   0.28081   0.28431   0.31481   0.31840
     Eigenvalues ---    0.32043   0.32241   0.32290   0.32381   0.32388
     Eigenvalues ---    0.32403   0.32511   0.32527   0.32586   0.33345
     Eigenvalues ---    0.33592   0.33951   0.34137   0.35259   0.43887
     Eigenvalues ---    0.45301   0.49569   0.67312   0.91346   0.92070
     Eigenvalues --- 1000.000001000.000001000.000001000.000001000.00000
     Eigenvalues --- 1000.000001000.000001000.000001000.000001000.00000
     Eigenvalues --- 1000.000001000.000001000.000001000.000001000.00000
     Eigenvalues --- 1000.000001000.000001000.000001000.000001000.00000
     Eigenvalues --- 1000.000001000.000001000.000001000.000001000.00000
     Eigenvalues --- 1000.000001000.000001000.000001000.000001000.00000
     Eigenvalues --- 1000.000001000.000001000.000001000.000001000.00000
     Eigenvalues --- 1000.000001000.000001000.000001000.000001000.00000
     Eigenvalues --- 1000.000001000.000001000.000001000.000001000.00000
     Eigenvalues --- 1000.000001000.000001000.000001000.000001000.00000
     Eigenvalues --- 1000.000001000.000001000.000001000.000001000.00000
     Eigenvalues --- 1000.000001000.000001000.000001000.000001000.00000
     Eigenvalues --- 1000.000001000.000001000.000001000.000001000.00000
     Eigenvalues --- 1000.000001000.000001000.000001000.000001000.00000
     Eigenvalues --- 1000.000001000.000001000.000001000.000001000.00000
     Eigenvalues --- 1000.000001000.000001000.000001000.000001000.00000
     Eigenvalues --- 1000.000001000.000001000.000001000.000001000.00000
     Eigenvalues --- 1000.000001000.000001000.000001000.000001000.00000
     Eigenvalues --- 1000.00000
 RFO step:  Lambda=-1.99468498D-02 EMin= 6.08487858D-03
 Linear search not attempted -- first point.
 Iteration  1 RMS(Cart)=  0.05156384 RMS(Int)=  0.00215521
 Iteration  2 RMS(Cart)=  0.00239154 RMS(Int)=  0.00077601
 Iteration  3 RMS(Cart)=  0.00000607 RMS(Int)=  0.00077600
 Iteration  4 RMS(Cart)=  0.00000002 RMS(Int)=  0.00077600
 Iteration  1 RMS(Cart)=  0.00002498 RMS(Int)=  0.00001884
 Iteration  2 RMS(Cart)=  0.00001482 RMS(Int)=  0.00002051
 Iteration  3 RMS(Cart)=  0.00000959 RMS(Int)=  0.00002308
 Iteration  4 RMS(Cart)=  0.00000680 RMS(Int)=  0.00002540
 Iteration  5 RMS(Cart)=  0.00000521 RMS(Int)=  0.00002736
 Iteration  6 RMS(Cart)=  0.00000421 RMS(Int)=  0.00002904
 Iteration  7 RMS(Cart)=  0.00000352 RMS(Int)=  0.00003049
 Iteration  8 RMS(Cart)=  0.00000299 RMS(Int)=  0.00003175
 Iteration  9 RMS(Cart)=  0.00000256 RMS(Int)=  0.00003285
 Iteration 10 RMS(Cart)=  0.00000221 RMS(Int)=  0.00003381
 Iteration 11 RMS(Cart)=  0.00000191 RMS(Int)=  0.00003466
 Iteration 12 RMS(Cart)=  0.00000165 RMS(Int)=  0.00003540
 Iteration 13 RMS(Cart)=  0.00000143 RMS(Int)=  0.00003606
 Iteration 14 RMS(Cart)=  0.00000124 RMS(Int)=  0.00003663
 Iteration 15 RMS(Cart)=  0.00000108 RMS(Int)=  0.00003712
 Iteration 16 RMS(Cart)=  0.00000094 RMS(Int)=  0.00003756
 Variable       Old X    -DE/DX   Delta X   Delta X   Delta X     New X
                                 (Linear)    (Quad)   (Total)
    R1        2.31994   0.02432   0.00000   0.02585   0.02585   2.34579
    R2        2.32319   0.02270   0.00000   0.02432   0.02432   2.34750
    R3        2.80713  -0.01049   0.00000  -0.02918  -0.02918   2.77795
    R4        2.63223  -0.03022   0.00000  -0.06445  -0.06427   2.56796
    R5        2.79040  -0.01893   0.00000  -0.05424  -0.05414   2.73626
    R6        2.58842  -0.01866   0.00000  -0.03587  -0.03572   2.55269
    R7        2.08451  -0.01048   0.00000  -0.02965  -0.02965   2.05486
    R8        2.82658  -0.02076   0.00000  -0.05744  -0.05745   2.76913
    R9        1.93290  -0.00706   0.00000  -0.01539  -0.01539   1.91750
   R10        2.11803  -0.01203   0.00000  -0.03594  -0.03594   2.08209
   R11        2.92748  -0.01268   0.00000  -0.04348  -0.04347   2.88400
   R12        2.90664  -0.00409   0.00000  -0.00813  -0.00817   2.89847
   R13        2.91148  -0.00456   0.00000  -0.01431  -0.01433   2.89715
   R14        2.09919  -0.00982   0.00000  -0.02846  -0.02846   2.07073
   R15        2.09890  -0.00817   0.00000  -0.02366  -0.02366   2.07524
   R16        2.90433  -0.00201   0.00000  -0.00765  -0.00773   2.89660
   R17        2.10139  -0.01052   0.00000  -0.03060  -0.03060   2.07079
   R18        2.10316  -0.00900   0.00000  -0.02625  -0.02625   2.07691
   R19        2.91735  -0.00919   0.00000  -0.02975  -0.02976   2.88759
   R20        2.10405  -0.01160   0.00000  -0.03388  -0.03388   2.07017
   R21        2.10113  -0.00991   0.00000  -0.02881  -0.02881   2.07232
   R22        2.93522  -0.01055   0.00000  -0.03676  -0.03675   2.89848
   R23        2.10153  -0.01075   0.00000  -0.03129  -0.03129   2.07024
   R24        2.09784  -0.00790   0.00000  -0.02283  -0.02283   2.07501
   R25        2.10765  -0.00956   0.00000  -0.02808  -0.02808   2.07957
   R26        2.77203  -0.00683   0.00000  -0.01568  -0.01588   2.75615
   R27        2.44165  -0.00428   0.00000  -0.00633  -0.00641   2.43524
   R28        2.08024  -0.00431   0.00000  -0.01210  -0.01210   2.06815
    A1        2.20213  -0.00509   0.00000  -0.01423  -0.01963   2.18250
    A2        2.02937   0.00236   0.00000   0.01333   0.00794   2.03732
    A3        2.04578   0.00431   0.00000   0.02057   0.01518   2.06096
    A4        2.00557  -0.00202   0.00000  -0.00446  -0.00579   1.99979
    A5        2.01079  -0.00047   0.00000   0.00135  -0.00009   2.01069
    A6        2.26509   0.00247   0.00000  -0.00191  -0.00278   2.26231
    A7        2.18545   0.01023   0.00000   0.03636   0.03671   2.22216
    A8        2.06190  -0.00255   0.00000  -0.00383  -0.00401   2.05789
    A9        2.03480  -0.00765   0.00000  -0.03222  -0.03242   2.00238
   A10        2.25099  -0.00688   0.00000  -0.02419  -0.02400   2.22699
   A11        2.11092  -0.01122   0.00000  -0.06876  -0.06893   2.04199
   A12        1.87101   0.01806   0.00000   0.09798   0.09803   1.96904
   A13        1.83773  -0.00194   0.00000  -0.01835  -0.01813   1.81960
   A14        2.00502  -0.00086   0.00000  -0.01305  -0.01304   1.99198
   A15        1.97141   0.00146   0.00000   0.00173   0.00107   1.97248
   A16        1.85277   0.00278   0.00000   0.02464   0.02441   1.87717
   A17        1.84896   0.00104   0.00000   0.02203   0.02204   1.87100
   A18        1.93402  -0.00215   0.00000  -0.01207  -0.01177   1.92225
   A19        1.91017   0.00053   0.00000  -0.00378  -0.00390   1.90626
   A20        1.92184  -0.00073   0.00000  -0.01374  -0.01371   1.90813
   A21        1.92296  -0.00189   0.00000  -0.00766  -0.00769   1.91528
   A22        1.91935  -0.00053   0.00000   0.00538   0.00531   1.92466
   A23        1.90487   0.00298   0.00000   0.02575   0.02579   1.93066
   A24        1.88445  -0.00035   0.00000  -0.00556  -0.00583   1.87862
   A25        1.94078  -0.00095   0.00000   0.00581   0.00561   1.94639
   A26        1.91879  -0.00055   0.00000  -0.00648  -0.00648   1.91232
   A27        1.90490   0.00026   0.00000  -0.00306  -0.00310   1.90180
   A28        1.91606   0.00070   0.00000   0.00728   0.00734   1.92340
   A29        1.89850   0.00181   0.00000   0.01137   0.01143   1.90993
   A30        1.88375  -0.00124   0.00000  -0.01544  -0.01553   1.86821
   A31        1.94457   0.00069   0.00000   0.00542   0.00568   1.95025
   A32        1.90252   0.00058   0.00000   0.00634   0.00622   1.90874
   A33        1.91721   0.00043   0.00000   0.00560   0.00557   1.92277
   A34        1.90703  -0.00127   0.00000  -0.01527  -0.01536   1.89167
   A35        1.91523  -0.00040   0.00000   0.00043   0.00029   1.91552
   A36        1.87592  -0.00006   0.00000  -0.00292  -0.00293   1.87298
   A37        1.94595  -0.00290   0.00000  -0.01970  -0.01979   1.92617
   A38        1.90633   0.00239   0.00000   0.01660   0.01638   1.92271
   A39        1.91136   0.00148   0.00000   0.01485   0.01489   1.92626
   A40        1.90635   0.00025   0.00000  -0.00333  -0.00311   1.90324
   A41        1.91209  -0.00032   0.00000  -0.00454  -0.00448   1.90761
   A42        1.88057  -0.00083   0.00000  -0.00333  -0.00354   1.87703
   A43        1.84545   0.00481   0.00000   0.02547   0.02556   1.87100
   A44        1.93470  -0.00432   0.00000  -0.02978  -0.03027   1.90443
   A45        1.99151   0.00117   0.00000   0.01248   0.01251   2.00402
   A46        1.88155   0.00232   0.00000   0.03278   0.03302   1.91456
   A47        1.89108  -0.00457   0.00000  -0.03194  -0.03193   1.85914
   A48        1.91482   0.00078   0.00000  -0.00636  -0.00604   1.90878
   A49        2.08776  -0.00677   0.00000  -0.02026  -0.02022   2.06754
   A50        2.24096  -0.00021   0.00000  -0.00539  -0.00548   2.23548
   A51        1.98028   0.00394   0.00000   0.02377   0.02342   2.00369
   A52        2.06180  -0.00376   0.00000  -0.01907  -0.01942   2.04238
    D1       -1.97684  -0.01072   0.00000  -0.08243  -0.08234  -2.05919
    D2        1.22172  -0.01053   0.00000   0.00000   0.00000   1.22172
    D3        1.05548   0.00352   0.00000   0.09781   0.09767   1.15315
    D4       -2.02914   0.00372   0.00000   0.18024   0.18001  -1.84913
    D5        3.08199  -0.00010   0.00000   0.03945   0.03900   3.12099
    D6       -0.00886  -0.00041   0.00000   0.03283   0.03249   0.02362
    D7       -0.12669  -0.00048   0.00000  -0.05750  -0.05776  -0.18445
    D8        3.06564  -0.00079   0.00000  -0.06412  -0.06427   3.00137
    D9       -2.81563  -0.00039   0.00000  -0.05644  -0.05700  -2.87263
   D10        0.34513   0.00123   0.00000  -0.01231  -0.01232   0.33281
   D11        0.39321   0.00004   0.00000   0.04094   0.04044   0.43365
   D12       -2.72921   0.00166   0.00000   0.08506   0.08511  -2.64409
   D13       -0.02468   0.00031   0.00000   0.03127   0.03143   0.00675
   D14        2.73670   0.00367   0.00000   0.06843   0.06823   2.80493
   D15        3.06688   0.00074   0.00000   0.03850   0.03843   3.10531
   D16       -0.45492   0.00411   0.00000   0.07567   0.07523  -0.37969
   D17       -2.56563  -0.00074   0.00000  -0.01182  -0.01137  -2.57700
   D18        1.68582  -0.00241   0.00000  -0.02303  -0.02259   1.66323
   D19       -0.55591   0.00008   0.00000   0.00445   0.00466  -0.55125
   D20        0.91565   0.00064   0.00000  -0.01939  -0.01953   0.89611
   D21       -1.11609  -0.00104   0.00000  -0.03061  -0.03075  -1.14684
   D22        2.92537   0.00146   0.00000  -0.00312  -0.00351   2.92186
   D23        2.94138   0.00214   0.00000   0.02935   0.02932   2.97070
   D24       -1.22999   0.00137   0.00000   0.02491   0.02486  -1.20513
   D25        0.84676  -0.00069   0.00000   0.00473   0.00477   0.85153
   D26        0.91827   0.00318   0.00000   0.04291   0.04299   0.96125
   D27        3.03008   0.00240   0.00000   0.03847   0.03853   3.06861
   D28       -1.17636   0.00035   0.00000   0.01829   0.01844  -1.15792
   D29       -1.08151   0.00147   0.00000   0.00934   0.00929  -1.07222
   D30        1.03030   0.00070   0.00000   0.00490   0.00483   1.03514
   D31        3.10705  -0.00136   0.00000  -0.01528  -0.01526   3.09179
   D32       -2.89733  -0.00101   0.00000  -0.01532  -0.01507  -2.91240
   D33       -0.86283   0.00228   0.00000   0.02285   0.02268  -0.84015
   D34        1.30937   0.00076   0.00000   0.00000   0.00001   1.30938
   D35       -0.89435  -0.00197   0.00000  -0.02328  -0.02309  -0.91744
   D36        1.14015   0.00132   0.00000   0.01489   0.01466   1.15481
   D37       -2.97084  -0.00020   0.00000  -0.00795  -0.00801  -2.97885
   D38        1.10781   0.00082   0.00000   0.01192   0.01208   1.11989
   D39       -3.14088   0.00412   0.00000   0.05009   0.04983  -3.09105
   D40       -0.96868   0.00260   0.00000   0.02724   0.02716  -0.94152
   D41        0.95665   0.00085   0.00000   0.00000   0.00001   0.95666
   D42        3.08235   0.00072   0.00000   0.00865   0.00860   3.09094
   D43       -1.13782  -0.00097   0.00000  -0.01576  -0.01573  -1.15355
   D44       -1.15667   0.00174   0.00000   0.01601   0.01610  -1.14057
   D45        0.96902   0.00161   0.00000   0.02466   0.02468   0.99370
   D46        3.03204  -0.00007   0.00000   0.00025   0.00036   3.03240
   D47        3.06233   0.00069   0.00000   0.00417   0.00416   3.06648
   D48       -1.09517   0.00056   0.00000   0.01282   0.01274  -1.08242
   D49        0.96785  -0.00112   0.00000  -0.01159  -0.01158   0.95627
   D50       -0.92192  -0.00061   0.00000   0.00000   0.00001  -0.92191
   D51        1.18399  -0.00137   0.00000  -0.01143  -0.01144   1.17254
   D52       -3.04800  -0.00086   0.00000  -0.00801  -0.00807  -3.05607
   D53       -3.04920   0.00025   0.00000  -0.00064  -0.00060  -3.04980
   D54       -0.94329  -0.00051   0.00000  -0.01206  -0.01205  -0.95534
   D55        1.10790  -0.00000   0.00000  -0.00864  -0.00868   1.09922
   D56        1.17634   0.00029   0.00000   0.00716   0.00720   1.18354
   D57       -3.00094  -0.00047   0.00000  -0.00427  -0.00425  -3.00519
   D58       -0.94974   0.00004   0.00000  -0.00085  -0.00088  -0.95062
   D59        0.99036  -0.00097   0.00000  -0.01162  -0.01173   0.97864
   D60        3.09882  -0.00092   0.00000  -0.01734  -0.01756   3.08126
   D61       -1.12869   0.00033   0.00000  -0.00304  -0.00306  -1.13174
   D62       -1.11290  -0.00130   0.00000  -0.01288  -0.01291  -1.12581
   D63        0.99556  -0.00125   0.00000  -0.01861  -0.01874   0.97682
   D64        3.05123   0.00001   0.00000  -0.00431  -0.00423   3.04700
   D65        3.11759  -0.00024   0.00000  -0.00062  -0.00064   3.11695
   D66       -1.05713  -0.00019   0.00000  -0.00635  -0.00647  -1.06361
   D67        0.99854   0.00106   0.00000   0.00795   0.00803   1.00657
   D68       -1.05742  -0.00011   0.00000  -0.00218  -0.00204  -1.05946
   D69       -3.12759   0.00125   0.00000   0.00292   0.00245  -3.12514
   D70        1.08443   0.00154   0.00000   0.00980   0.00952   1.09394
   D71        3.11732  -0.00141   0.00000  -0.00811  -0.00785   3.10947
   D72        1.04714  -0.00004   0.00000  -0.00301  -0.00336   1.04379
   D73       -1.02402   0.00024   0.00000   0.00387   0.00371  -1.02031
   D74        1.06121  -0.00037   0.00000   0.00051   0.00080   1.06202
   D75       -1.00896   0.00100   0.00000   0.00561   0.00530  -1.00367
   D76       -3.08013   0.00128   0.00000   0.01248   0.01236  -3.06777
   D77       -1.17215   0.00392   0.00000   0.00000   0.00001  -1.17214
   D78        3.06061   0.00028   0.00000  -0.01785  -0.01765   3.04296
   D79        1.01064  -0.00031   0.00000  -0.03525  -0.03558   0.97506
   D80        0.21452  -0.00061   0.00000  -0.01042  -0.01074   0.20377
   D81       -2.94702  -0.00222   0.00000  -0.05591  -0.05586  -3.00288
         Item               Value     Threshold  Converged?
 Maximum Force            0.029960     0.000450     NO 
 RMS     Force            0.006192     0.000300     NO 
 Maximum Displacement     0.232265     0.001800     NO 
 RMS     Displacement     0.052335     0.001200     NO 
 Predicted change in Energy=-1.157756D-02
 GradGradGradGradGradGradGradGradGradGradGradGradGradGradGradGradGradGrad

                          Input orientation:                          
 ---------------------------------------------------------------------
 Center     Atomic      Atomic             Coordinates (Angstroms)
 Number     Number       Type             X           Y           Z
 ---------------------------------------------------------------------
      1          8           0       -3.642408   -1.015860    0.670093
      2          7           0       -3.120956   -0.219974   -0.127133
      3          8           0       -3.713031    0.343595   -1.062553
      4          6           0       -1.671921   -0.008770    0.001986
      5          6           0       -1.311424    1.265325    0.307519
      6          7           0       -0.061523    1.737438    0.506497
      7          6           0        1.197969    0.992107    0.432687
      8          1           0        1.846290    1.480474    1.177761
      9          6           0        1.899632    1.084981   -0.919412
     10          6           0        3.303802    0.480900   -0.801904
     11          6           0        3.256007   -0.951466   -0.258250
     12          6           0        2.466186   -1.035349    1.047152
     13          6           0        1.051420   -0.476033    0.851790
     14          1           0        0.498326   -0.526116    1.801838
     15          7           0        0.399465   -1.331750   -0.133046
     16          6           0       -0.847621   -1.132894   -0.389773
     17          1           0       -2.102370    1.997774    0.450079
     18          1           0        0.069752    2.740605    0.428792
     19          1           0        1.314237    0.541951   -1.669862
     20          1           0        1.955598    2.134776   -1.236858
     21          1           0        3.793687    0.497535   -1.781981
     22          1           0        3.906959    1.107184   -0.129676
     23          1           0        2.775378   -1.603899   -0.995421
     24          1           0        4.273034   -1.330313   -0.101043
     25          1           0        2.396137   -2.076771    1.379879
     26          1           0        2.974431   -0.468509    1.838407
     27          1           0       -1.347088   -1.867900   -1.028556
 ---------------------------------------------------------------------
                    Distance matrix (angstroms):
                    1          2          3          4          5
     1  O    0.000000
     2  N    1.241337   0.000000
     3  O    2.203445   1.242246   0.000000
     4  C    2.311584   1.470027   2.328848   0.000000
     5  C    3.281578   2.381058   2.914516   1.358906   0.000000
     6  N    4.519972   3.686878   4.211677   2.428405   1.350827
     7  C    5.245717   4.520580   5.174382   3.069776   2.527324
     8  H    6.051051   5.409972   6.100618   3.997261   3.282493
     9  C    6.136308   5.247563   5.663226   3.847240   3.442203
    10  C    7.256508   6.498004   7.023015   5.063974   4.811076
    11  C    6.960898   6.420119   7.133833   5.024030   5.108393
    12  C    6.120252   5.767143   6.673460   4.389780   4.484473
    13  C    4.728261   4.293317   5.199662   2.890863   2.985228
    14  H    4.320460   4.112645   5.166881   2.866546   2.952532
    15  N    4.132984   3.691808   4.536892   2.461535   3.141025
    16  C    2.991296   2.463829   3.292905   1.447964   2.540232
    17  H    3.391477   2.507807   2.760180   2.100545   1.087383
    18  H    5.286718   4.388017   4.720086   3.282476   2.024550
    19  H    5.698289   4.757255   5.067701   3.466339   3.365620
    20  H    6.700794   5.705062   5.947442   4.391858   3.716783
    21  H    7.974870   7.146021   7.542684   5.771633   5.569351
    22  H    7.882886   7.152128   7.714763   5.690921   5.239052
    23  H    6.656404   6.118490   6.774709   4.828843   5.160625
    24  H    7.959130   7.476939   8.216063   6.090942   6.171744
    25  H    6.171982   6.013077   7.010391   4.767003   5.105445
    26  H    6.741447   6.409279   7.334659   5.017209   4.870149
    27  H    2.979913   2.583570   3.238757   2.150325   3.406386
                    6          7          8          9         10
     6  N    0.000000
     7  C    1.465362   0.000000
     8  H    2.038719   1.101797   0.000000
     9  C    2.510985   1.526148   2.134805   0.000000
    10  C    3.823116   2.494009   2.653783   1.533106   0.000000
    11  C    4.338323   2.913828   3.156543   2.534562   1.532814
    12  C    3.790774   2.469113   2.594359   2.946890   2.533697
    13  C    2.501464   1.533806   2.136819   2.508662   2.953583
    14  H    2.667399   2.160804   2.496574   3.458973   3.957809
    15  N    3.168823   2.521503   3.423466   2.951180   3.488301
    16  C    3.108062   3.062108   4.067432   3.570278   4.473086
    17  H    2.058157   3.450203   4.048337   4.327206   5.752831
    18  H    1.014700   2.080897   2.303253   2.811975   4.132791
    19  H    2.838739   2.153340   3.045137   1.095785   2.171508
    20  H    2.695541   2.160342   2.504086   1.098168   2.177647
    21  H    4.651574   3.447769   3.676765   2.162536   1.095817
    22  H    4.068266   2.769137   2.468824   2.157205   1.099054
    23  H    4.633389   3.356629   3.885779   2.828919   2.159413
    24  H    5.344959   3.890312   3.927461   3.483735   2.170509
    25  H    4.620723   3.427943   3.605159   3.940803   3.482200
    26  H    3.982110   2.695415   2.346847   3.342766   2.825085
    27  H    4.124017   4.097827   5.126119   4.390058   5.215267
                   11         12         13         14         15
    11  C    0.000000
    12  C    1.528047   0.000000
    13  C    2.513649   1.533807   0.000000
    14  H    3.468384   2.168258   1.100460   0.000000
    15  N    2.884462   2.398345   1.458492   2.098237   0.000000
    16  C    4.109741   3.613251   2.362054   2.642520   1.288672
    17  H    6.157268   5.516161   4.028335   3.867931   4.205347
    18  H    4.925002   4.514764   3.389596   3.569369   4.124130
    19  H    2.827262   3.346196   2.732049   3.722791   2.590245
    20  H    3.489073   3.940444   3.463570   4.293910   3.956862
    21  H    2.170359   3.480803   3.924871   4.975040   4.193568
    22  H    2.162941   2.837463   3.409392   4.244666   4.272110
    23  H    1.095487   2.142651   2.767002   3.764471   2.542188
    24  H    1.096623   2.161031   3.466479   4.303034   3.873701
    25  H    2.165445   1.095524   2.156271   2.486819   2.613560
    26  H    2.169908   1.098046   2.161352   2.477045   3.355929
    27  H    4.756228   4.420720   3.350497   3.635528   2.034660
                   16         17         18         19         20
    16  C    0.000000
    17  H    3.475748   0.000000
    18  H    4.063940   2.295727   0.000000
    19  H    3.019497   4.276303   3.284383   0.000000
    20  H    4.387853   4.396774   2.588018   1.770854   0.000000
    21  H    5.112561   6.480455   4.877148   2.482381   2.521168
    22  H    5.262283   6.102564   4.207625   3.068202   2.467713
    23  H    3.703347   6.233293   5.312580   2.682252   3.835103
    24  H    5.132586   7.212882   5.875430   3.836801   4.320582
    25  H    3.813730   6.140278   5.433576   4.162827   4.977802
    26  H    4.473731   5.812393   4.552207   4.010638   4.156004
    27  H    1.094416   4.207166   5.036825   3.647095   5.193509
                   21         22         23         24         25
    21  H    0.000000
    22  H    1.764828   0.000000
    23  H    2.464072   3.062672   0.000000
    24  H    2.529102   2.465000   1.765710   0.000000
    25  H    4.310169   3.833915   2.451425   2.504609   0.000000
    26  H    3.835574   2.688078   3.059299   2.488080   1.769513
    27  H    5.708808   6.104434   4.131043   5.721455   4.455998
                   26         27
    26  H    0.000000
    27  H    5.371526   0.000000
 Symmetry turned off by external request.
 Stoichiometry    C9H13N3O2
 Framework group  C1[X(C9H13N3O2)]
 Deg. of freedom    75
 Full point group                 C1      NOp   1
 Rotational constants (GHZ):           1.6642243           0.4159960           0.3784723
 Standard basis: 6-31G(d) (6D, 7F)
   236 basis functions,   444 primitive gaussians,   236 cartesian basis functions
    52 alpha electrons       52 beta electrons
       nuclear repulsion energy       930.2675480279 Hartrees.
 NAtoms=   27 NActive=   27 NUniq=   27 SFac= 1.00D+00 NAtFMM=   60 NAOKFM=F Big=F
 Integral buffers will be    131072 words long.
 Raffenetti 1 integral format.
 Two-electron integral symmetry is turned off.
 One-electron integrals computed using PRISM.
 NBasis=   236 RedAO= T EigKep=  1.54D-03  NBF=   236
 NBsUse=   236 1.00D-06 EigRej= -1.00D+00 NBFU=   236
 Initial guess from the checkpoint file:  "/home/alexey/tmp/Gau-1060677.chk"
 B after Tr=     0.037931   -0.005025   -0.003676
         Rot=    0.999995    0.001267    0.002780   -0.000581 Ang=   0.36 deg.
 ExpMin= 1.61D-01 ExpMax= 5.48D+03 ExpMxC= 8.25D+02 IAcc=3 IRadAn=         5 AccDes= 0.00D+00
 Harris functional with IExCor=  205 and IRadAn=       5 diagonalized for initial guess.
 HarFok:  IExCor=  205 AccDes= 0.00D+00 IRadAn=         5 IDoV= 1 UseB2=F ITyADJ=14
 ICtDFT=  3500011 ScaDFX=  1.000000  1.000000  1.000000  1.000000
 FoFCou: FMM=F IPFlag=           0 FMFlag=      100000 FMFlg1=           0
         NFxFlg=           0 DoJE=T BraDBF=F KetDBF=T FulRan=T
         wScrn=  0.000000 ICntrl=       500 IOpCl=  0 I1Cent=   200000004 NGrid=           0
         NMat0=    1 NMatS0=      1 NMatT0=    0 NMatD0=    1 NMtDS0=    0 NMtDT0=    0
 Symmetry not used in FoFCou.
 Keep R1 ints in memory in canonical form, NReq=397720213.
 Requested convergence on RMS density matrix=1.00D-08 within 128 cycles.
 Requested convergence on MAX density matrix=1.00D-06.
 Requested convergence on             energy=1.00D-06.
 No special actions if energy rises.
 SCF Done:  E(RHF) =  -661.281979939     A.U. after   16 cycles
            NFock= 16  Conv=0.38D-08     -V/T= 2.0025
 ExpMin= 1.61D-01 ExpMax= 5.48D+03 ExpMxC= 8.25D+02 IAcc=3 IRadAn=         5 AccDes= 0.00D+00
 HarFok:  IExCor=  205 AccDes= 0.00D+00 IRadAn=         5 IDoV=-2 UseB2=F ITyADJ=14
 ICtDFT= 12500011 ScaDFX=  1.000000  1.000000  1.000000  1.000000
 Range of M.O.s used for correlation:    15   236
 NBasis=   236 NAE=    52 NBE=    52 NFC=    14 NFV=     0
 NROrb=    222 NOA=    38 NOB=    38 NVA=   184 NVB=   184
 Fully direct method using O(ONN) memory.
 JobTyp=1 Pass  1:  I=  15 to  52 NPSUse=  4 ParTrn=T ParDer=T DoDerP=T.
 Spin components of T(2) and E(2):
     alpha-alpha T2 =       0.9141772709D-01 E2=     -0.2724749266D+00
     alpha-beta  T2 =       0.4963713845D+00 E2=     -0.1493275050D+01
     beta-beta   T2 =       0.9141772709D-01 E2=     -0.2724749266D+00
 ANorm=    0.1295842135D+01
 E2 =    -0.2038224903D+01 EUMP2 =    -0.66332020484220D+03
          IDoAtm=111111111111111111111111111
          Differentiating once with respect to electric field.
                with respect to dipole field.
          Differentiating once with respect to nuclear coordinates.
 Keep R1 ints in memory in canonical form, NReq=397723379.
          There are     1 degrees of freedom in the 1st order CPHF.  IDoFFX=0 NUNeed=     1.
 LinEq1:  Iter=  0 NonCon=     1 RMS=4.50D-03 Max=1.11D-01 NDo=     1
 AX will form     1 AO Fock derivatives at one time.
 LinEq1:  Iter=  1 NonCon=     1 RMS=1.50D-03 Max=3.06D-02 NDo=     1
 LinEq1:  Iter=  2 NonCon=     1 RMS=6.36D-04 Max=1.77D-02 NDo=     1
 LinEq1:  Iter=  3 NonCon=     1 RMS=2.77D-04 Max=3.78D-03 NDo=     1
 LinEq1:  Iter=  4 NonCon=     1 RMS=8.46D-05 Max=1.19D-03 NDo=     1
[...]
    26  H    2.175572   1.098693   2.167464   2.500781   3.362625
    27  H    4.734802   4.420608   3.354037   3.639299   2.032413
                   16         17         18         19         20
    16  C    0.000000
    17  H    3.462596   0.000000
    18  H    4.098985   2.238876   0.000000
    19  H    2.995595   4.236395   3.520799   0.000000
    20  H    4.379587   4.383483   2.889298   1.768012   0.000000
    21  H    5.098459   6.462473   5.093037   2.499801   2.521372
    22  H    5.248667   6.083256   4.316278   3.070378   2.461817
    23  H    3.692794   6.216913   5.427644   2.705352   3.843372
    24  H    5.130820   7.199654   5.940571   3.850260   4.317234
    25  H    3.818828   6.130740   5.371782   4.174112   4.985178
    26  H    4.488968   5.819742   4.479267   4.032427   4.176694
    27  H    1.093988   4.202633   5.099681   3.610638   5.172654
                   21         22         23         24         25
    21  H    0.000000
    22  H    1.758861   0.000000
    23  H    2.469982   3.062159   0.000000
    24  H    2.517172   2.459479   1.764475   0.000000
    25  H    4.311992   3.836914   2.446095   2.518445   0.000000
    26  H    3.843858   2.699645   3.060654   2.493508   1.767916
    27  H    5.675792   6.076593   4.102636   5.703706   4.453464
                   26         27
    26  H    0.000000
    27  H    5.378055   0.000000
 Symmetry turned off by external request.
 Stoichiometry    C9H13N3O2
 Framework group  C1[X(C9H13N3O2)]
 Deg. of freedom    75
 Full point group                 C1      NOp   1
 Rotational constants (GHZ):           1.6607695           0.4176063           0.3783916

 **********************************************************************

            Population analysis using the SCF Density.

 **********************************************************************

 Alpha  occ. eigenvalues --  -20.60403 -20.60381 -15.84759 -15.63133 -15.56210
 Alpha  occ. eigenvalues --  -11.34631 -11.30225 -11.29264 -11.28466 -11.26985
 Alpha  occ. eigenvalues --  -11.23392 -11.22986 -11.22543 -11.21937  -1.57603
 Alpha  occ. eigenvalues --   -1.37365  -1.30243  -1.23123  -1.14663  -1.09771
 Alpha  occ. eigenvalues --   -1.02553  -1.01037  -0.94525  -0.89695  -0.85299
 Alpha  occ. eigenvalues --   -0.82578  -0.78402  -0.77831  -0.74945  -0.72016
 Alpha  occ. eigenvalues --   -0.70883  -0.68624  -0.66910  -0.65255  -0.63424
 Alpha  occ. eigenvalues --   -0.62315  -0.60199  -0.57440  -0.56819  -0.54999
 Alpha  occ. eigenvalues --   -0.54457  -0.51158  -0.50308  -0.48903  -0.48205
 Alpha  occ. eigenvalues --   -0.47856  -0.46203  -0.45902  -0.43692  -0.41519
 Alpha  occ. eigenvalues --   -0.40098  -0.33164
 Alpha virt. eigenvalues --    0.08522   0.10402   0.17522   0.21417   0.23470
 Alpha virt. eigenvalues --    0.24901   0.26343   0.28145   0.29177   0.29242
 Alpha virt. eigenvalues --    0.29511   0.31643   0.32105   0.32864   0.33994
 Alpha virt. eigenvalues --    0.34439   0.35646   0.37404   0.38819   0.39753
 Alpha virt. eigenvalues --    0.41358   0.42587   0.44698   0.45845   0.47000
 Alpha virt. eigenvalues --    0.47749   0.50111   0.53554   0.57508   0.58187
 Alpha virt. eigenvalues --    0.60546   0.69743   0.70055   0.72993   0.74345
 Alpha virt. eigenvalues --    0.75104   0.75890   0.76489   0.78654   0.79230
 Alpha virt. eigenvalues --    0.80562   0.84111   0.85241   0.86100   0.88387
 Alpha virt. eigenvalues --    0.89515   0.89971   0.92026   0.92729   0.93470
 Alpha virt. eigenvalues --    0.95212   0.97778   0.98935   1.01795   1.02014
 Alpha virt. eigenvalues --    1.04248   1.06049   1.06184   1.07915   1.09049
 Alpha virt. eigenvalues --    1.10420   1.10935   1.11765   1.12225   1.13650
 Alpha virt. eigenvalues --    1.13904   1.14439   1.15428   1.16175   1.16356
 Alpha virt. eigenvalues --    1.17534   1.19054   1.19495   1.21872   1.23600
 Alpha virt. eigenvalues --    1.23662   1.24578   1.25139   1.27491   1.29016
 Alpha virt. eigenvalues --    1.30250   1.32206   1.34249   1.35896   1.37820
 Alpha virt. eigenvalues --    1.40514   1.43152   1.43338   1.50776   1.53020
 Alpha virt. eigenvalues --    1.55727   1.56724   1.60979   1.63730   1.65743
 Alpha virt. eigenvalues --    1.68077   1.71146   1.72928   1.74826   1.75436
 Alpha virt. eigenvalues --    1.79181   1.83091   1.87615   1.91366   1.92180
 Alpha virt. eigenvalues --    1.93314   1.96348   1.99700   2.01137   2.02643
 Alpha virt. eigenvalues --    2.04246   2.05035   2.07511   2.10692   2.12380
 Alpha virt. eigenvalues --    2.15063   2.15817   2.17492   2.20455   2.22276
 Alpha virt. eigenvalues --    2.22613   2.25399   2.27263   2.28270   2.29772
 Alpha virt. eigenvalues --    2.31391   2.33075   2.34274   2.36759   2.37697
 Alpha virt. eigenvalues --    2.39039   2.40682   2.41646   2.45965   2.47177
 Alpha virt. eigenvalues --    2.49481   2.51981   2.54150   2.54974   2.61878
 Alpha virt. eigenvalues --    2.62615   2.64713   2.67581   2.70458   2.71126
 Alpha virt. eigenvalues --    2.72584   2.73410   2.75137   2.78291   2.83168
 Alpha virt. eigenvalues --    2.87252   2.90385   2.92077   2.95394   2.97532
 Alpha virt. eigenvalues --    2.99749   3.01884   3.05365   3.06547   3.09216
 Alpha virt. eigenvalues --    3.09589   3.15689   3.20133   3.20773   3.23994
 Alpha virt. eigenvalues --    3.31299   3.36786   3.38794   3.43283   3.62925
 Alpha virt. eigenvalues --    4.11937   4.17979   4.28962   4.36022   4.48110
 Alpha virt. eigenvalues --    4.55868   4.62284   4.63882   4.73903   4.79096
 Alpha virt. eigenvalues --    4.99636   5.01114   5.05388   5.11351
          Condensed to atoms (all electrons):
               1          2          3          4          5          6
     1  O    8.300235   0.287822  -0.077400  -0.077197   0.000448  -0.000033
     2  N    0.287822   5.827546   0.298048   0.231801  -0.049057   0.001626
     3  O   -0.077400   0.298048   8.307968  -0.090616   0.009176   0.000261
     4  C   -0.077197   0.231801  -0.090616   5.223201   0.574575  -0.051307
     5  C    0.000448  -0.049057   0.009176   0.574575   4.647497   0.329991
     6  N   -0.000033   0.001626   0.000261  -0.051307   0.329991   7.188709
     7  C    0.000005  -0.000116  -0.000005   0.004598  -0.032194   0.180197
     8  H   -0.000000   0.000002   0.000000  -0.000271   0.003438  -0.049778
     9  C   -0.000000  -0.000005  -0.000000   0.000907   0.000760  -0.064241
    10  C   -0.000000   0.000000   0.000000  -0.000046  -0.000061   0.003840
    11  C    0.000000  -0.000000  -0.000000  -0.000026   0.000025  -0.000187
    12  C   -0.000000   0.000002   0.000000  -0.000120  -0.000191   0.003749
    13  C   -0.000020  -0.000068   0.000003  -0.012036  -0.000573  -0.048681
    14  H   -0.000012  -0.000094   0.000001   0.002848   0.005502  -0.006564
    15  N    0.000019   0.002361  -0.000032  -0.067377  -0.006395   0.002695
    16  C    0.002613  -0.032343   0.002695   0.324705  -0.037034  -0.003913
    17  H   -0.000062  -0.003822   0.005330  -0.034277   0.389035  -0.034319
    18  H    0.000001  -0.000073   0.000004   0.002030  -0.028411   0.337351
    19  H   -0.000000  -0.000006   0.000001  -0.001371   0.001170  -0.000161
    20  H   -0.000000  -0.000000   0.000000  -0.000070   0.000121  -0.000037
    21  H    0.000000   0.000000  -0.000000   0.000001   0.000001  -0.000080
    22  H   -0.000000   0.000000   0.000000  -0.000000  -0.000003  -0.000113
    23  H   -0.000000  -0.000000   0.000000   0.000039  -0.000001  -0.000030
    24  H   -0.000000   0.000000   0.000000   0.000000  -0.000000   0.000006
    25  H    0.000000  -0.000000   0.000000   0.000022   0.000000  -0.000088
    26  H    0.000000  -0.000000   0.000000   0.000006  -0.000002  -0.000056
    27  H    0.001262  -0.000134   0.000272  -0.076848   0.002163   0.000013
               7          8          9         10         11         12
     1  O    0.000005  -0.000000  -0.000000  -0.000000   0.000000  -0.000000
     2  N   -0.000116   0.000002  -0.000005   0.000000  -0.000000   0.000002
     3  O   -0.000005   0.000000  -0.000000   0.000000  -0.000000   0.000000
     4  C    0.004598  -0.000271   0.000907  -0.000046  -0.000026  -0.000120
     5  C   -0.032194   0.003438   0.000760  -0.000061   0.000025  -0.000191
     6  N    0.180197  -0.049778  -0.064241   0.003840  -0.000187   0.003749
     7  C    5.011799   0.417800   0.352999  -0.054737  -0.008897  -0.060547
     8  H    0.417800   0.539831  -0.055251   0.000611  -0.000288  -0.002396
     9  C    0.352999  -0.055251   5.157389   0.324620  -0.050400  -0.005084
    10  C   -0.054737   0.000611   0.324620   5.119655   0.336984  -0.061202
    11  C   -0.008897  -0.000288  -0.050400   0.336984   5.120329   0.335869
    12  C   -0.060547  -0.002396  -0.005084  -0.061202   0.335869   5.118705
    13  C    0.336316  -0.037439  -0.062594   0.000184  -0.051113   0.370493
    14  H   -0.046502  -0.000775   0.004413  -0.000400   0.004169  -0.035805
    15  N   -0.058551   0.003785  -0.013719   0.001627  -0.013250  -0.081829
    16  C   -0.003264   0.000043  -0.001157  -0.000044   0.000007   0.003052
    17  H    0.002131  -0.000069  -0.000074   0.000001   0.000000   0.000000
    18  H   -0.021933  -0.004653   0.001450  -0.000084   0.000003  -0.000113
    19  H   -0.037120   0.004354   0.390798  -0.032506  -0.002231   0.000702
    20  H   -0.042408  -0.002001   0.399334  -0.035325   0.003939  -0.000415
    21  H    0.004594  -0.000079  -0.036243   0.402207  -0.035060   0.004383
    22  H   -0.004843   0.003591  -0.046868   0.397668  -0.045460  -0.001102
    23  H    0.000567   0.000035  -0.001943  -0.039078   0.399308  -0.038016
    24  H   -0.000139  -0.000103   0.004375  -0.038418   0.402318  -0.038716
    25  H    0.005103  -0.000016  -0.000436   0.004211  -0.033585   0.398466
    26  H   -0.003977   0.001666   0.000984  -0.002277  -0.041357   0.396851
    27  H   -0.000427   0.000010  -0.000064   0.000007   0.000012  -0.000046
              13         14         15         16         17         18
     1  O   -0.000020  -0.000012   0.000019   0.002613  -0.000062   0.000001
     2  N   -0.000068  -0.000094   0.002361  -0.032343  -0.003822  -0.000073
     3  O    0.000003   0.000001  -0.000032   0.002695   0.005330   0.000004
     4  C   -0.012036   0.002848  -0.067377   0.324705  -0.034277   0.002030
     5  C   -0.000573   0.005502  -0.006395  -0.037034   0.389035  -0.028411
     6  N   -0.048681  -0.006564   0.002695  -0.003913  -0.034319   0.337351
     7  C    0.336316  -0.046502  -0.058551  -0.003264   0.002131  -0.021933
     8  H   -0.037439  -0.000775   0.003785   0.000043  -0.000069  -0.004653
     9  C   -0.062594   0.004413  -0.013719  -0.001157  -0.000074   0.001450
    10  C    0.000184  -0.000400   0.001627  -0.000044   0.000001  -0.000084
    11  C   -0.051113   0.004169  -0.013250   0.000007   0.000000   0.000003
    12  C    0.370493  -0.035805  -0.081829   0.003052   0.000000  -0.000113
    13  C    5.042314   0.404204   0.252797  -0.072682  -0.000066   0.002902
    14  H    0.404204   0.522828  -0.038096  -0.005103   0.000078  -0.000127
    15  N    0.252797  -0.038096   6.930901   0.610996  -0.000047  -0.000142
    16  C   -0.072682  -0.005103   0.610996   4.677804   0.002001  -0.000167
    17  H   -0.000066   0.000078  -0.000047   0.002001   0.415267  -0.003263
    18  H    0.002902  -0.000127  -0.000142  -0.000167  -0.003263   0.313484
    19  H   -0.007322   0.000103   0.007174   0.002881   0.000016  -0.000153
    20  H    0.004420  -0.000066   0.000127  -0.000040  -0.000001   0.000757
    21  H   -0.000457   0.000010  -0.000047   0.000004  -0.000000   0.000001
    22  H    0.000065  -0.000053   0.000021  -0.000002  -0.000000   0.000001
    23  H   -0.007531   0.000003   0.008425   0.000106   0.000000   0.000000
    24  H    0.004711  -0.000057   0.000128   0.000008   0.000000  -0.000000
    25  H   -0.035737  -0.002840   0.000348  -0.000005  -0.000000   0.000002
    26  H   -0.047137  -0.001014   0.004846  -0.000076   0.000000  -0.000000
    27  H    0.005523  -0.000189  -0.037867   0.408063  -0.000096   0.000001
              19         20         21         22         23         24
     1  O   -0.000000  -0.000000   0.000000  -0.000000  -0.000000  -0.000000
     2  N   -0.000006  -0.000000   0.000000   0.000000  -0.000000   0.000000
     3  O    0.000001   0.000000  -0.000000   0.000000   0.000000   0.000000
     4  C   -0.001371  -0.000070   0.000001  -0.000000   0.000039   0.000000
     5  C    0.001170   0.000121   0.000001  -0.000003  -0.000001  -0.000000
     6  N   -0.000161  -0.000037  -0.000080  -0.000113  -0.000030   0.000006
     7  C   -0.037120  -0.042408   0.004594  -0.004843   0.000567  -0.000139
     8  H    0.004354  -0.002001  -0.000079   0.003591   0.000035  -0.000103
     9  C    0.390798   0.399334  -0.036243  -0.046868  -0.001943   0.004375
    10  C   -0.032506  -0.035325   0.402207   0.397668  -0.039078  -0.038418
    11  C   -0.002231   0.003939  -0.035060  -0.045460   0.399308   0.402318
    12  C    0.000702  -0.000415   0.004383  -0.001102  -0.038016  -0.038716
    13  C   -0.007322   0.004420  -0.000457   0.000065  -0.007531   0.004711
    14  H    0.000103  -0.000066   0.000010  -0.000053   0.000003  -0.000057
    15  N    0.007174   0.000127  -0.000047   0.000021   0.008425   0.000128
    16  C    0.002881  -0.000040   0.000004  -0.000002   0.000106   0.000008
    17  H    0.000016  -0.000001  -0.000000  -0.000000   0.000000   0.000000
    18  H   -0.000153   0.000757   0.000001   0.000001   0.000000  -0.000000
    19  H    0.506764  -0.024673  -0.002797   0.003985   0.001523  -0.000068
    20  H   -0.024673   0.541009  -0.002734  -0.002980  -0.000046  -0.000083
    21  H   -0.002797  -0.002734   0.525638  -0.027551  -0.002909  -0.002257
    22  H    0.003985  -0.002980  -0.027551   0.572052   0.004153  -0.003654
    23  H    0.001523  -0.000046  -0.002909   0.004153   0.500665  -0.025624
    24  H   -0.000068  -0.000083  -0.002257  -0.003654  -0.025624   0.539174
    25  H   -0.000028   0.000013  -0.000088  -0.000080  -0.002302  -0.002319
    26  H    0.000020  -0.000031  -0.000080   0.002388   0.004070  -0.003017
    27  H    0.000101   0.000000  -0.000000   0.000000  -0.000035  -0.000000
              25         26         27
     1  O    0.000000   0.000000   0.001262
     2  N   -0.000000  -0.000000  -0.000134
     3  O    0.000000   0.000000   0.000272
     4  C    0.000022   0.000006  -0.076848
     5  C    0.000000  -0.000002   0.002163
     6  N   -0.000088  -0.000056   0.000013
     7  C    0.005103  -0.003977  -0.000427
     8  H   -0.000016   0.001666   0.000010
     9  C   -0.000436   0.000984  -0.000064
    10  C    0.004211  -0.002277   0.000007
    11  C   -0.033585  -0.041357   0.000012
    12  C    0.398466   0.396851  -0.000046
    13  C   -0.035737  -0.047137   0.005523
    14  H   -0.002840  -0.001014  -0.000189
    15  N    0.000348   0.004846  -0.037867
    16  C   -0.000005  -0.000076   0.408063
    17  H   -0.000000   0.000000  -0.000096
    18  H    0.000002  -0.000000   0.000001
    19  H   -0.000028   0.000020   0.000101
    20  H    0.000013  -0.000031   0.000000
    21  H   -0.000088  -0.000080  -0.000000
    22  H   -0.000080   0.002388   0.000000
    23  H   -0.002302   0.004070  -0.000035
    24  H   -0.002319  -0.003017  -0.000000
    25  H    0.507555  -0.024177  -0.000013
    26  H   -0.024177   0.561752   0.000001
    27  H   -0.000013   0.000001   0.471436
 Mulliken charges:
               1
     1  O   -0.437682
     2  N    0.436510
     3  O   -0.455708
     4  C    0.046828
     5  C    0.190020
     6  N   -0.788851
     7  C    0.059549
     8  H    0.177954
     9  C   -0.299948
    10  C   -0.327438
    11  C   -0.321108
    12  C   -0.306690
    13  C   -0.040474
    14  H    0.193537
    15  N   -0.508899
    16  C    0.120852
    17  H    0.262236
    18  H    0.401132
    19  H    0.188845
    20  H    0.161191
    21  H    0.173542
    22  H    0.148786
    23  H    0.198619
    24  H    0.163734
    25  H    0.185993
    26  H    0.150617
    27  H    0.226854
 Sum of Mulliken charges =  -0.00000
 Mulliken charges with hydrogens summed into heavy atoms:
               1
     1  O   -0.437682
     2  N    0.436510
     3  O   -0.455708
     4  C    0.046828
     5  C    0.452256
     6  N   -0.387719
     7  C    0.237504
     9  C    0.050087
    10  C   -0.005110
    11  C    0.041245
    12  C    0.029921
    13  C    0.153063
    15  N   -0.508899
    16  C    0.347705
 Electronic spatial extent (au):  <R**2>=           2990.6381
 Charge=              0.0000 electrons
 Dipole moment (field-independent basis, Debye):
    X=              4.7188    Y=              4.3824    Z=              1.5348  Tot=              6.6203
 Quadrupole moment (field-independent basis, Debye-Ang):
   XX=           -102.9306   YY=            -77.7188   ZZ=            -84.0294
   XY=             -1.8975   XZ=             -0.9774   YZ=              5.4283
 Traceless Quadrupole moment (field-independent basis, Debye-Ang):
   XX=            -14.7044   YY=             10.5075   ZZ=              4.1969
   XY=             -1.8975   XZ=             -0.9774   YZ=              5.4283
 Octapole moment (field-independent basis, Debye-Ang**2):
  XXX=             74.2139  YYY=             31.8196  ZZZ=              1.6635  XYY=            -12.8099
  XXY=             13.2346  XXZ=             10.5013  XZZ=             -1.4401  YZZ=             -0.9083
  YYZ=              7.4745  XYZ=            -11.9597
 Hexadecapole moment (field-independent basis, Debye-Ang**3):
 XXXX=          -3284.6359 YYYY=           -573.6435 ZZZZ=           -345.6734 XXXY=            -45.8780
 XXXZ=            -49.1252 YYYX=             -1.3354 YYYZ=             52.0557 ZZZX=            -17.6542
 ZZZY=             30.7805 XXYY=           -591.9221 XXZZ=           -556.4062 YYZZ=           -158.3842
 XXYZ=             45.9253 YYXZ=              3.9940 ZZXY=              8.3762
 N-N= 9.304960189549D+02 E-N=-3.407655947362D+03  KE= 6.596028222868D+02
 Unable to Open any file for archive entry.
 1\1\GINC-LOTUS\FOpt\RMP2-FC\6-31G(d)\C9H13N3O2\ALEXEY\30-Jun-2023\0\\#
 MP2/6-31G* SCF=Tight Opt=(ModRedun, MaxCycle=20 ) NoSymm\\MolName:\\0,
 1\O,-3.6889066385,-1.0663254531,0.5034776124\N,-3.1026334806,-0.219100
 6858,-0.1996472307\O,-3.6612784375,0.5152149972,-1.0389221473\C,-1.676
 2807268,-0.0440225135,0.0476223055\C,-1.3038742261,1.2445805246,0.3117
 652314\N,-0.0593284343,1.7333087775,0.4782385664\C,1.2005038101,1.0078
 578786,0.4105943162\H,1.859844435,1.510791092,1.133861852\C,1.88350570
 35,1.0648239151,-0.9553146841\C,3.2872091809,0.4603095153,-0.835721674
 2\C,3.2569674104,-0.9555156966,-0.2543137881\C,2.485378371,-1.01143170
 39,1.0655486025\C,1.0675317978,-0.4625913404,0.867392947\H,0.503091810
 9,-0.4774328185,1.8130675707\N,0.4136461256,-1.3347012667,-0.103700130
 5\C,-0.840739554,-1.1481535009,-0.3628023771\H,-2.0947815936,1.9846170
 032,0.4135361121\H,-0.0027141391,2.7057496176,0.7538097882\H,1.2792973
 135,0.5083075429,-1.6800600452\H,1.9378211902,2.1046479493,-1.30070731
 18\H,3.7747893662,0.4566455925,-1.8173817949\H,3.8948895069,1.10835170
 84,-0.1881341225\H,2.770522225,-1.6322734462,-0.9637563292\H,4.2808312
 683,-1.319295333,-0.1067936316\H,2.4147088992,-2.0447317966,1.42091463
 06\H,3.0032875201,-0.4317176481,1.8419679114\H,-1.3233187042,-1.898872
 9107,-0.9955321794\\Version=ES64L-G16RevC.02\HF=-661.2835249\MP2=-663.
 3236244\RMSD=7.472e-09\RMSF=2.083e-03\Dipole=1.7230398,1.565876,0.5602
 05\PG=C01 [X(C9H13N3O2)]\\@
 The archive entry for this job was punched.


 SILVERMAN'S PARADOX - IF MURPHY'S LAW CAN GO WRONG, IT WILL.
 Job cpu time:       0 days  1 hours 22 minutes  7.7 seconds.
 Elapsed time:       0 days  0 hours 24 minutes 42.0 seconds.
 File lengths (MBytes):  RWF=     36 Int=      0 D2E=      0 Chk=      7 Scr=      1
 Normal termination of Gaussian 16 at Fri Jun 30 03:25:12 2023.
