 Entering Gaussian System, Link 0=g16
 Initial command:
 /home/alexey/programs//g16/l1.exe "/home/alexey/tmp/Gau-1063240.inp" -scrdir="/home/alexey/tmp/"
 Entering Link 1 = /home/alexey/programs//g16/l1.exe PID=   1063242.
  
 Copyright (c) 1988-2021, Gaussian, Inc.  All Rights Reserved.
  
 This is part of the Gaussian(R) 16 program.  It is based on
 the Gaussian(R) 09 system (copyright 2009, Gaussian, Inc.),
 the Gaussian(R) 03 system (copyright 2003, Gaussian, Inc.),
 the Gaussian(R) 98 system (copyright 1998, Gaussian, Inc.),
 the Gaussian(R) 94 system (copyright 1995, Gaussian, Inc.),
 the Gaussian 92(TM) system (copyright 1992, Gaussian, Inc.),
 the Gaussian 90(TM) system (copyright 1990, Gaussian, Inc.),
 the Gaussian 88(TM) system (copyright 1988, Gaussian, Inc.),
 the Gaussian 86(TM) system (copyright 1986, Carnegie Mellon
 University), and the Gaussian 82(TM) system (copyright 1983,
 Carnegie Mellon University). Gaussian is a federally registered
 trademark of Gaussian, Inc.
  
 This software contains proprietary and confidential information,
 including trade secrets, belonging to Gaussian, Inc.
  
 This software is provided under written license and may be
 used, copied, transmitted, or stored only in accord with that
 written license.
  
 The following legend is applicable only to US Government
 contracts under FAR:
  
                    RESTRICTED RIGHTS LEGEND
  
 Use, reproduction and disclosure by the US Government is
 subject to restrictions as set forth in subparagraphs (a)
 and (c) of the Commercial Computer Software - Restricted
 Rights clause in FAR 52.227-19.
  
 Gaussian, Inc.
 340 Quinnipiac St., Bldg. 40, Wallingford CT 06492
  
  
 ---------------------------------------------------------------
 Warning -- This program may not be used in any manner that
 competes with the business of Gaussian, Inc. or will provide
 assistance to any competitor of Gaussian, Inc.  The licensee
 of this program is prohibited from giving any competitor of
 Gaussian, Inc. access to this program.  By using this program,
 the user acknowledges that Gaussian, Inc. is engaged in the
 business of creating and licensing software in the field of
 computational chemistry and represents and warrants to the
 licensee that it is not a competitor of Gaussian, Inc. and that
 it will not use this program in any manner prohibited above.
 ---------------------------------------------------------------
  

 Cite this work as:
 Gaussian 16, Revision C.02,
 M. J. Frisch, G. W. Trucks, H. B. Schlegel, G. E. Scuseria, 
 M. A. Robb, J. R. Cheeseman, G. Scalmani, V. Barone, 
 G. A. Petersson, H. Nakatsuji, X. Li, M. Caricato, A. V. Marenich, 
 J. Bloino, B. G. Janesko, R. Gomperts, B. Mennucci, H. P. Hratchian, 
 J. V. Ortiz, A. F. Izmaylov, J. L. Sonnenberg, D. Williams-Young, 
 F. Ding, F. Lipparini, F. Egidi, J. Goings, B. Peng, A. Petrone, 
 T. Henderson, D. Ranasinghe, V. G. Zakrzewski, J. Gao, N. Rega, 
 G. Zheng, W. Liang, M. Hada, M. Ehara, K. Toyota, R. Fukuda, 
 J. Hasegawa, M. Ishida, T. Nakajima, Y. Honda, O. Kitao, H. Nakai, 
 T. Vreven, K. Throssell, J. A. Montgomery, Jr., J. E. Peralta, 
 F. Ogliaro, M. J. Bearpark, J. J. Heyd, E. N. Brothers, K. N. Kudin, 
 V. N. Staroverov, T. A. Keith, R. Kobayashi, J. Normand, 
 K. Raghavachari, A. P. Rendell, J. C. Burant, S. S. Iyengar, 
 J. Tomasi, M. Cossi, J. M. Millam, M. Klene, C. Adamo, R. Cammi, 
 J. W. Ochterski, R. L. Martin, K. Morokuma, O. Farkas, 
 J. B. Foresman, and D. J. Fox, Gaussian, Inc., Wallingford CT, 2019.
 
 ******************************************
 Gaussian 16:  ES64L-G16RevC.02  7-Dec-2021
                30-Jun-2023 
 ******************************************
 %mem=8GB
 %NPROCS=4
 Will use up to    4 processors via shared memory.
 %NoSave
 ---------------------------------------------------------
 #MP2/6-31G* SCF=Tight Opt=(ModRedun, MaxCycle=20 ) NoSymm
 ---------------------------------------------------------
 1/6=20,18=120,19=15,38=1/1,3;
 2/9=110,12=2,15=1,17=6,18=5,40=1/2;
 3/5=1,6=6,7=1,11=9,25=1,30=1,71=1/1,2,3;
 4//1;
 5/5=2,32=2,38=5/2;
 8/6=4,10=2/1;
 9/15=2,16=-3/6;
 10/5=1,31=1/2;
 6/7=2,8=2,9=2,10=2/1;
 7/12=2,30=1/1,2,3,16;
 1/6=20,18=20,19=15/3(2);
 2/9=110,15=1/2;
 99//99;
 2/9=110,15=1/2;
 3/5=1,6=6,7=1,11=9,25=1,30=1,71=1/1,2,3;
 4/5=5,16=3,69=1/1;
 5/5=2,32=2,38=5/2;
 8/6=4,10=2/1;
 9/15=2,16=-3/6;
 10/5=1,31=1/2;
 7/12=2,30=1/1,2,3,16;
 1/6=20,18=20,19=15/3(-8);
 2/9=110,15=1/2;
 6/7=2,8=2,9=2,10=2/1;
 99/9=10/99;
 --------
 MolName:
 --------
 Symbolic Z-matrix:
 Charge =  0 Multiplicity = 1
 8                    0    -3.68299  -0.86375   0.81567 
 7                    0    -3.1877   -0.25394  -0.12744 
 8                    0    -3.79675   0.28288  -1.04976 
 6                    0    -1.73005  -0.00589  -0.05417 
 6                    0    -1.37867   1.29368   0.30026 
 7                    0    -0.09766   1.73697   0.49691 
 6                    0     1.18487   0.97071   0.41913 
 1                    0     1.85631   1.44004   1.18405 
 6                    0     1.92943   1.08255  -0.93474 
 6                    0     3.34806   0.4993   -0.78969 
 6                    0     3.30499  -0.94025  -0.25314 
 6                    0     2.47604  -1.0331    1.04589 
 6                    0     1.03141  -0.50154   0.83838 
 1                    0     0.49498  -0.58277   1.81284 
 7                    0     0.36867  -1.34417  -0.16326 
 6                    0    -0.87881  -1.14857  -0.43692 
 1                    0    -2.18764   2.02051   0.48466 
 1                    0     0.13598   2.72866   0.40648 
 1                    0     1.37229   0.5335   -1.72349 
 1                    0     2.00305   2.14656  -1.24476 
 1                    0     3.86857   0.51935  -1.77217 
 1                    0     3.93064   1.1287   -0.08039 
 1                    0     2.85234  -1.60185  -1.02587 
 1                    0     4.33871  -1.30432  -0.0657 
 1                    0     2.43192  -2.09379   1.3771 
 1                    0     2.97542  -0.44892   1.84699 
 1                    0    -1.4014   -1.90055  -1.04786 
 
 The following ModRedundant input section has been read:
 D       1       2       4      16 F                                           
 D       7      13      15      16 F                                           
 D       7       9      10      11 F                                           
 D       9      10      11      12 F                                           
 D       6       7      13      15 F                                           
 

 GradGradGradGradGradGradGradGradGradGradGradGradGradGradGradGradGradGrad
 Berny optimization.
 Initialization pass.
                           ----------------------------
                           !    Initial Parameters    !
                           ! (Angstroms and Degrees)  !
 --------------------------                            --------------------------
 ! Name  Definition              Value          Derivative Info.                !
 --------------------------------------------------------------------------------
 ! R1    R(1,2)                  1.2275         estimate D2E/DX2                !
 ! R2    R(2,3)                  1.2287         estimate D2E/DX2                !
 ! R3    R(2,4)                  1.4804         estimate D2E/DX2                !
 ! R4    R(4,5)                  1.3921         estimate D2E/DX2                !
 ! R5    R(4,16)                 1.4754         estimate D2E/DX2                !
 ! R6    R(5,6)                  1.3697         estimate D2E/DX2                !
 ! R7    R(5,17)                 1.103          estimate D2E/DX2                !
 ! R8    R(6,7)                  1.496          estimate D2E/DX2                !
 ! R9    R(6,18)                 1.0228         estimate D2E/DX2                !
 ! R10   R(7,8)                  1.1208         estimate D2E/DX2                !
 ! R11   R(7,9)                  1.5491         estimate D2E/DX2                !
 ! R12   R(7,13)                 1.5385         estimate D2E/DX2                !
 ! R13   R(9,10)                 1.5407         estimate D2E/DX2                !
 ! R14   R(9,19)                 1.1108         estimate D2E/DX2                !
 ! R15   R(9,20)                 1.1107         estimate D2E/DX2                !
 ! R16   R(10,11)                1.5369         estimate D2E/DX2                !
 ! R17   R(10,21)                1.112          estimate D2E/DX2                !
 ! R18   R(10,22)                1.1129         estimate D2E/DX2                !
 ! R19   R(11,12)                1.5438         estimate D2E/DX2                !
 ! R20   R(11,23)                1.1134         estimate D2E/DX2                !
 ! R21   R(11,24)                1.1119         estimate D2E/DX2                !
 ! R22   R(12,13)                1.5532         estimate D2E/DX2                !
 ! R23   R(12,25)                1.1121         estimate D2E/DX2                !
 ! R24   R(12,26)                1.1101         estimate D2E/DX2                !
 ! R25   R(13,14)                1.1153         estimate D2E/DX2                !
 ! R26   R(13,15)                1.4672         estimate D2E/DX2                !
 ! R27   R(15,16)                1.292          estimate D2E/DX2                !
 ! R28   R(16,27)                1.1008         estimate D2E/DX2                !
 ! A1    A(1,2,3)              126.4259         estimate D2E/DX2                !
 ! A2    A(1,2,4)              116.2648         estimate D2E/DX2                !
 ! A3    A(3,2,4)              116.8719         estimate D2E/DX2                !
 ! A4    A(2,4,5)              114.6795         estimate D2E/DX2                !
 ! A5    A(2,4,16)             115.1805         estimate D2E/DX2                !
 ! A6    A(5,4,16)             130.0474         estimate D2E/DX2                !
 ! A7    A(4,5,6)              125.0808         estimate D2E/DX2                !
 ! A8    A(4,5,17)             118.2015         estimate D2E/DX2                !
 ! A9    A(6,5,17)             116.6564         estimate D2E/DX2                !
 ! A10   A(5,6,7)              128.9421         estimate D2E/DX2                !
 ! A11   A(5,6,18)             120.9779         estimate D2E/DX2                !
 ! A12   A(7,6,18)             107.228          estimate D2E/DX2                !
 ! A13   A(6,7,8)              105.2847         estimate D2E/DX2                !
 ! A14   A(6,7,9)              114.866          estimate D2E/DX2                !
 ! A15   A(6,7,13)             112.984          estimate D2E/DX2                !
 ! A16   A(8,7,9)              106.158          estimate D2E/DX2                !
 ! A17   A(8,7,13)             105.9321         estimate D2E/DX2                !
 ! A18   A(9,7,13)             110.8053         estimate D2E/DX2                !
 ! A19   A(7,9,10)             109.4473         estimate D2E/DX2                !
 ! A20   A(7,9,19)             110.1086         estimate D2E/DX2                !
 ! A21   A(7,9,20)             110.1791         estimate D2E/DX2                !
 ! A22   A(10,9,19)            109.9712         estimate D2E/DX2                !
 ! A23   A(10,9,20)            109.1412         estimate D2E/DX2                !
 ! A24   A(19,9,20)            107.9713         estimate D2E/DX2                !
 ! A25   A(9,10,11)            111.2016         estimate D2E/DX2                !
 ! A26   A(9,10,21)            109.937          estimate D2E/DX2                !
 ! A27   A(9,10,22)            109.1413         estimate D2E/DX2                !
 ! A28   A(11,10,21)           109.7824         estimate D2E/DX2                !
 ! A29   A(11,10,22)           108.7766         estimate D2E/DX2                !
 ! A30   A(21,10,22)           107.9303         estimate D2E/DX2                !
 ! A31   A(10,11,12)           111.4167         estimate D2E/DX2                !
 ! A32   A(10,11,23)           109.0062         estimate D2E/DX2                !
 ! A33   A(10,11,24)           109.8463         estimate D2E/DX2                !
 ! A34   A(12,11,23)           109.2657         estimate D2E/DX2                !
 ! A35   A(12,11,24)           109.7351         estimate D2E/DX2                !
 ! A36   A(23,11,24)           107.4813         estimate D2E/DX2                !
 ! A37   A(11,12,13)           111.4945         estimate D2E/DX2                !
 ! A38   A(11,12,25)           109.2252         estimate D2E/DX2                !
 ! A39   A(11,12,26)           109.5131         estimate D2E/DX2                !
 ! A40   A(13,12,25)           109.2265         estimate D2E/DX2                !
 ! A41   A(13,12,26)           109.5543         estimate D2E/DX2                !
 ! A42   A(25,12,26)           107.7481         estimate D2E/DX2                !
 ! A43   A(7,13,12)            105.7316         estimate D2E/DX2                !
 ! A44   A(7,13,14)            110.8407         estimate D2E/DX2                !
 ! A45   A(7,13,15)            114.1186         estimate D2E/DX2                !
 ! A46   A(12,13,14)           107.7993         estimate D2E/DX2                !
 ! A47   A(12,13,15)           108.3481         estimate D2E/DX2                !
 ! A48   A(14,13,15)           109.7185         estimate D2E/DX2                !
 ! A49   A(13,15,16)           119.5904         estimate D2E/DX2                !
 ! A50   A(4,16,15)            128.2693         estimate D2E/DX2                !
 ! A51   A(4,16,27)            113.524          estimate D2E/DX2                !
 ! A52   A(15,16,27)           118.1959         estimate D2E/DX2                !
 ! D1    D(1,2,4,5)           -103.1402         estimate D2E/DX2                !
 ! D2    D(1,2,4,16)            80.0002         Frozen                          !
 ! D3    D(3,2,4,5)             69.7642         estimate D2E/DX2                !
 ! D4    D(3,2,4,16)          -107.0954         estimate D2E/DX2                !
 ! D5    D(2,4,5,6)            176.4926         estimate D2E/DX2                !
 ! D6    D(2,4,5,17)            -0.5554         estimate D2E/DX2                !
 ! D7    D(16,4,5,6)            -7.2206         estimate D2E/DX2                !
 ! D8    D(16,4,5,17)          175.7314         estimate D2E/DX2                !
 ! D9    D(2,4,16,15)         -161.1171         estimate D2E/DX2                !
 ! D10   D(2,4,16,27)           20.1115         estimate D2E/DX2                !
 ! D11   D(5,4,16,15)           22.6113         estimate D2E/DX2                !
 ! D12   D(5,4,16,27)         -156.1602         estimate D2E/DX2                !
 ! D13   D(4,5,6,7)             -1.6199         estimate D2E/DX2                !
 ! D14   D(4,5,6,18)           156.7038         estimate D2E/DX2                !
 ! D15   D(17,5,6,7)           175.4691         estimate D2E/DX2                !
 ! D16   D(17,5,6,18)          -26.2072         estimate D2E/DX2                !
 ! D17   D(5,6,7,8)           -146.8385         estimate D2E/DX2                !
 ! D18   D(5,6,7,9)             96.7621         estimate D2E/DX2                !
 ! D19   D(5,6,7,13)           -31.6871         estimate D2E/DX2                !
 ! D20   D(18,6,7,8)            52.5246         estimate D2E/DX2                !
 ! D21   D(18,6,7,9)           -63.8747         estimate D2E/DX2                !
 ! D22   D(18,6,7,13)          167.676          estimate D2E/DX2                !
 ! D23   D(6,7,9,10)           168.5073         estimate D2E/DX2                !
 ! D24   D(6,7,9,19)           -70.4955         estimate D2E/DX2                !
 ! D25   D(6,7,9,20)            48.4914         estimate D2E/DX2                !
 ! D26   D(8,7,9,10)            52.6086         estimate D2E/DX2                !
 ! D27   D(8,7,9,19)           173.6058         estimate D2E/DX2                !
 ! D28   D(8,7,9,20)           -67.4073         estimate D2E/DX2                !
 ! D29   D(13,7,9,10)          -61.9617         estimate D2E/DX2                !
 ! D30   D(13,7,9,19)           59.0354         estimate D2E/DX2                !
 ! D31   D(13,7,9,20)          178.0224         estimate D2E/DX2                !
 ! D32   D(6,7,13,12)         -166.0018         estimate D2E/DX2                !
 ! D33   D(6,7,13,14)          -49.4477         estimate D2E/DX2                !
 ! D34   D(6,7,13,15)           75.0229         Frozen                          !
 ! D35   D(8,7,13,12)          -51.239          estimate D2E/DX2                !
 ! D36   D(8,7,13,14)           65.3151         estimate D2E/DX2                !
 ! D37   D(8,7,13,15)         -170.2143         estimate D2E/DX2                !
 ! D38   D(9,7,13,12)           63.473          estimate D2E/DX2                !
 ! D39   D(9,7,13,14)         -179.9728         estimate D2E/DX2                !
 ! D40   D(9,7,13,15)          -55.5022         estimate D2E/DX2                !
 ! D41   D(7,9,10,11)           54.8119         Frozen                          !
 ! D42   D(7,9,10,21)          176.6059         estimate D2E/DX2                !
 ! D43   D(7,9,10,22)          -65.1941         estimate D2E/DX2                !
 ! D44   D(19,9,10,11)         -66.2686         estimate D2E/DX2                !
 ! D45   D(19,9,10,21)          55.5254         estimate D2E/DX2                !
 ! D46   D(19,9,10,22)         173.7254         estimate D2E/DX2                !
 ! D47   D(20,9,10,11)         175.4615         estimate D2E/DX2                !
 ! D48   D(20,9,10,21)         -62.7445         estimate D2E/DX2                !
 ! D49   D(20,9,10,22)          55.4555         estimate D2E/DX2                !
 ! D50   D(9,10,11,12)         -52.8221         Frozen                          !
 ! D51   D(9,10,11,23)          67.8392         estimate D2E/DX2                !
 ! D52   D(9,10,11,24)        -174.638          estimate D2E/DX2                !
 ! D53   D(21,10,11,12)       -174.7061         estimate D2E/DX2                !
 ! D54   D(21,10,11,23)        -54.0447         estimate D2E/DX2                !
 ! D55   D(21,10,11,24)         63.4781         estimate D2E/DX2                !
 ! D56   D(22,10,11,12)         67.3999         estimate D2E/DX2                !
 ! D57   D(22,10,11,23)       -171.9388         estimate D2E/DX2                !
 ! D58   D(22,10,11,24)        -54.416          estimate D2E/DX2                !
 ! D59   D(10,11,12,13)         56.7511         estimate D2E/DX2                !
 ! D60   D(10,11,12,25)        177.5582         estimate D2E/DX2                !
 ! D61   D(10,11,12,26)        -64.661          estimate D2E/DX2                !
 ! D62   D(23,11,12,13)        -63.7579         estimate D2E/DX2                !
 ! D63   D(23,11,12,25)         57.0492         estimate D2E/DX2                !
 ! D64   D(23,11,12,26)        174.8301         estimate D2E/DX2                !
 ! D65   D(24,11,12,13)        178.6314         estimate D2E/DX2                !
 ! D66   D(24,11,12,25)        -60.5615         estimate D2E/DX2                !
 ! D67   D(24,11,12,26)         57.2194         estimate D2E/DX2                !
 ! D68   D(11,12,13,7)         -60.5912         estimate D2E/DX2                !
 ! D69   D(11,12,13,14)       -179.1873         estimate D2E/DX2                !
 ! D70   D(11,12,13,15)         62.1392         estimate D2E/DX2                !
 ! D71   D(25,12,13,7)         178.6025         estimate D2E/DX2                !
 ! D72   D(25,12,13,14)         60.0063         estimate D2E/DX2                !
 ! D73   D(25,12,13,15)        -58.6672         estimate D2E/DX2                !
 ! D74   D(26,12,13,7)          60.7969         estimate D2E/DX2                !
 ! D75   D(26,12,13,14)        -57.7992         estimate D2E/DX2                !
 ! D76   D(26,12,13,15)       -176.4727         estimate D2E/DX2                !
 ! D77   D(7,13,15,16)         -67.1604         Frozen                          !
 ! D78   D(12,13,15,16)        175.3583         estimate D2E/DX2                !
 ! D79   D(14,13,15,16)         57.9075         estimate D2E/DX2                !
 ! D80   D(13,15,16,4)          12.2628         estimate D2E/DX2                !
 ! D81   D(13,15,16,27)       -169.0154         estimate D2E/DX2                !
 --------------------------------------------------------------------------------
 Trust Radius=3.00D-01 FncErr=1.00D-07 GrdErr=1.00D-07 EigMax=2.50D+02 EigMin=1.00D-04
 Number of steps in this run=     20 maximum allowed number of steps=    162.
 GradGradGradGradGradGradGradGradGradGradGradGradGradGradGradGradGradGrad

                          Input orientation:                          
 ---------------------------------------------------------------------
 Center     Atomic      Atomic             Coordinates (Angstroms)
 Number     Number       Type             X           Y           Z
 ---------------------------------------------------------------------
      1          8           0       -3.682990   -0.863750    0.815670
      2          7           0       -3.187700   -0.253940   -0.127440
      3          8           0       -3.796750    0.282880   -1.049760
      4          6           0       -1.730050   -0.005890   -0.054170
      5          6           0       -1.378670    1.293680    0.300260
      6          7           0       -0.097660    1.736970    0.496910
      7          6           0        1.184870    0.970710    0.419130
      8          1           0        1.856310    1.440040    1.184050
      9          6           0        1.929430    1.082550   -0.934740
     10          6           0        3.348060    0.499300   -0.789690
     11          6           0        3.304990   -0.940250   -0.253140
     12          6           0        2.476040   -1.033100    1.045890
     13          6           0        1.031410   -0.501540    0.838380
     14          1           0        0.494980   -0.582770    1.812840
     15          7           0        0.368670   -1.344170   -0.163260
     16          6           0       -0.878810   -1.148570   -0.436920
     17          1           0       -2.187640    2.020510    0.484660
     18          1           0        0.135980    2.728660    0.406480
     19          1           0        1.372290    0.533500   -1.723490
     20          1           0        2.003050    2.146560   -1.244760
     21          1           0        3.868570    0.519350   -1.772170
     22          1           0        3.930640    1.128700   -0.080390
     23          1           0        2.852340   -1.601850   -1.025870
     24          1           0        4.338710   -1.304320   -0.065700
     25          1           0        2.431920   -2.093790    1.377100
     26          1           0        2.975420   -0.448920    1.846990
     27          1           0       -1.401400   -1.900550   -1.047860
 ---------------------------------------------------------------------
                    Distance matrix (angstroms):
                    1          2          3          4          5
     1  O    0.000000
     2  N    1.227451   0.000000
     3  O    2.192608   1.228736   0.000000
     4  C    2.303589   1.480419   2.312106   0.000000
     5  C    3.198444   2.418811   2.948115   1.392110   0.000000
     6  N    4.440714   3.728523   4.264954   2.450703   1.369731
     7  C    5.217140   4.573606   5.239016   3.110389   2.586538
     8  H    6.010574   5.480111   6.187569   4.060281   3.356725
     9  C    6.192841   5.350043   5.782892   3.918150   3.537418
    10  C    7.339670   6.612269   7.152817   5.155910   4.915385
    11  C    7.069659   6.530072   7.250197   5.124865   5.218560
    12  C    6.165657   5.836244   6.743252   4.467268   4.563843
    13  C    4.728348   4.335320   5.243235   2.944143   3.053011
    14  H    4.304501   4.175518   5.230944   2.961296   3.052790
    15  N    4.195838   3.719899   4.558936   2.491489   3.197859
    16  C    3.084401   2.495419   3.307415   1.475407   2.599592
    17  H    3.265669   2.558888   2.821885   2.146165   1.103049
    18  H    5.259028   4.497535   4.854775   3.342459   2.089166
    19  H    5.827135   4.894992   5.218783   3.563998   3.498745
    20  H    6.755619   5.827065   6.094999   4.470635   3.814515
    21  H    8.101601   7.286567   7.702917   5.879791   5.694566
    22  H    7.920868   7.251529   7.833750   5.773335   5.325494
    23  H    6.829832   6.253489   6.911091   4.948696   5.295674
    24  H    8.081991   7.599602   8.347053   6.206118   6.290625
    25  H    6.262613   6.101542   7.094684   4.871330   5.211059
    26  H    6.750565   6.474600   7.401958   5.094324   4.938333
    27  H    3.123036   2.597954   3.241153   2.164525   3.467139
                    6          7          8          9         10
     6  N    0.000000
     7  C    1.496024   0.000000
     8  H    2.092445   1.120805   0.000000
     9  C    2.566511   1.549142   2.149981   0.000000
    10  C    3.880741   2.522472   2.646877   1.540692   0.000000
    11  C    4.394099   2.932341   3.135278   2.539383   1.536895
    12  C    3.820811   2.464793   2.553346   2.949178   2.545196
    13  C    2.530282   1.538454   2.137681   2.541601   3.003192
    14  H    2.732048   2.198107   2.518006   3.518541   4.010499
    15  N    3.185390   2.522703   3.432221   2.986658   3.559152
    16  C    3.131864   3.079439   4.099918   3.621040   4.550423
    17  H    2.109161   3.532732   4.144831   4.454742   5.880648
    18  H    1.022846   2.047124   2.285758   2.779391   4.088805
    19  H    2.922203   2.194789   3.083809   1.110850   2.185594
    20  H    2.759377   2.195580   2.533737   1.110698   2.174766
    21  H    4.728880   3.493962   3.692709   2.186035   1.112025
    22  H    4.114665   2.795306   2.449201   2.176439   1.112947
    23  H    4.708405   3.389181   3.889591   2.840083   2.171716
    24  H    5.408082   3.918868   3.905854   3.501001   2.181420
    25  H    4.674209   3.444416   3.585603   3.960585   3.501201
    26  H    4.005578   2.694476   2.293483   3.343279   2.826670
    27  H    4.161443   4.133399   5.172392   4.472819   5.327598
                   11         12         13         14         15
    11  C    0.000000
    12  C    1.543780   0.000000
    13  C    2.559892   1.553246   0.000000
    14  H    3.506026   2.171545   1.115315   0.000000
    15  N    2.965334   2.449452   1.467151   2.121475   0.000000
    16  C    4.193013   3.669752   2.386206   2.696080   1.292035
    17  H    6.283266   5.602627   4.104648   3.967062   4.274996
    18  H    4.892711   4.476110   3.379723   3.615563   4.119065
    19  H    2.840633   3.367783   2.784005   3.810690   2.639548
    20  H    3.493817   3.947282   3.506564   4.367200   4.003253
    21  H    2.180712   3.505810   3.988316   5.044608   4.279088
    22  H    2.168371   2.838617   3.450704   4.279861   4.337002
    23  H    1.113426   2.181116   2.828762   3.828047   2.641801
    24  H    1.111871   2.186031   3.521370   4.338641   3.971438
    25  H    2.179584   1.112075   2.187900   2.494952   2.681723
    26  H    2.181872   1.110139   2.190716   2.484284   3.411411
    27  H    4.868661   4.491191   3.381375   3.676466   2.055535
                   16         17         18         19         20
    16  C    0.000000
    17  H    3.550410   0.000000
    18  H    4.095612   2.430391   0.000000
    19  H    3.090643   4.445248   3.299085   0.000000
    20  H    4.451472   4.535269   2.559567   1.796943   0.000000
    21  H    5.206003   6.635092   4.853843   2.496795   2.531035
    22  H    5.333281   6.208700   4.146849   3.098257   2.471315
    23  H    3.804445   6.387847   5.308819   2.690156   3.849647
    24  H    5.233028   7.345110   5.843870   3.863353   4.330596
    25  H    3.891663   6.250140   5.428579   4.199896   5.003863
    26  H    4.534407   5.883130   4.498278   4.035282   4.152221
    27  H    1.100828   4.282698   5.090013   3.751591   5.292273
                   21         22         23         24         25
    21  H    0.000000
    22  H    1.799244   0.000000
    23  H    2.467626   3.084245   0.000000
    24  H    2.541426   2.467047   1.794365   0.000000
    25  H    4.337092   3.841208   2.488578   2.518091   0.000000
    26  H    3.851439   2.667606   3.098019   2.499730   1.794933
    27  H    5.844067   6.208301   4.264271   5.853972   4.540057
                   26         27
    26  H    0.000000
    27  H    5.444625   0.000000
 Symmetry turned off by external request.
 Stoichiometry    C9H13N3O2
 Framework group  C1[X(C9H13N3O2)]
 Deg. of freedom    75
 Full point group                 C1      NOp   1
 Rotational constants (GHZ):           1.6629075           0.4029028           0.3695317
 Standard basis: 6-31G(d) (6D, 7F)
   236 basis functions,   444 primitive gaussians,   236 cartesian basis functions
    52 alpha electrons       52 beta electrons
       nuclear repulsion energy       920.9634674630 Hartrees.
 NAtoms=   27 NActive=   27 NUniq=   27 SFac= 1.00D+00 NAtFMM=   60 NAOKFM=F Big=F
 Integral buffers will be    131072 words long.
 Raffenetti 1 integral format.
 Two-electron integral symmetry is turned off.
 One-electron integrals computed using PRISM.
 NBasis=   236 RedAO= T EigKep=  1.69D-03  NBF=   236
 NBsUse=   236 1.00D-06 EigRej= -1.00D+00 NBFU=   236
 ExpMin= 1.61D-01 ExpMax= 5.48D+03 ExpMxC= 8.25D+02 IAcc=3 IRadAn=         5 AccDes= 0.00D+00
 Harris functional with IExCor=  205 and IRadAn=       5 diagonalized for initial guess.
 HarFok:  IExCor=  205 AccDes= 0.00D+00 IRadAn=         5 IDoV= 1 UseB2=F ITyADJ=14
 ICtDFT=  3500011 ScaDFX=  1.000000  1.000000  1.000000  1.000000
 FoFCou: FMM=F IPFlag=           0 FMFlag=      100000 FMFlg1=           0
         NFxFlg=           0 DoJE=T BraDBF=F KetDBF=T FulRan=T
         wScrn=  0.000000 ICntrl=       500 IOpCl=  0 I1Cent=   200000004 NGrid=           0
         NMat0=    1 NMatS0=      1 NMatT0=    0 NMatD0=    1 NMtDS0=    0 NMtDT0=    0
 Symmetry not used in FoFCou.
 Keep R1 ints in memory in canonical form, NReq=397720213.
 Requested convergence on RMS density matrix=1.00D-08 within 128 cycles.
 Requested convergence on MAX density matrix=1.00D-06.
 Requested convergence on             energy=1.00D-06.
 No special actions if energy rises.
 SCF Done:  E(RHF) =  -661.267864270     A.U. after   15 cycles
            NFock= 15  Conv=0.61D-08     -V/T= 2.0034
 ExpMin= 1.61D-01 ExpMax= 5.48D+03 ExpMxC= 8.25D+02 IAcc=3 IRadAn=         5 AccDes= 0.00D+00
 HarFok:  IExCor=  205 AccDes= 0.00D+00 IRadAn=         5 IDoV=-2 UseB2=F ITyADJ=14
 ICtDFT= 12500011 ScaDFX=  1.000000  1.000000  1.000000  1.000000
 Range of M.O.s used for correlation:    15   236
 NBasis=   236 NAE=    52 NBE=    52 NFC=    14 NFV=     0
 NROrb=    222 NOA=    38 NOB=    38 NVA=   184 NVB=   184
 Fully direct method using O(ONN) memory.
 JobTyp=1 Pass  1:  I=  15 to  52 NPSUse=  4 ParTrn=T ParDer=T DoDerP=T.
 Spin components of T(2) and E(2):
     alpha-alpha T2 =       0.9175189896D-01 E2=     -0.2717811793D+00
     alpha-beta  T2 =       0.5019467973D+00 E2=     -0.1496429156D+01
     beta-beta   T2 =       0.9175189896D-01 E2=     -0.2717811793D+00
 ANorm=    0.1298249050D+01
 E2 =    -0.2039991514D+01 EUMP2 =    -0.66330785578454D+03
          IDoAtm=111111111111111111111111111
          Differentiating once with respect to electric field.
                with respect to dipole field.
          Differentiating once with respect to nuclear coordinates.
 Keep R1 ints in memory in canonical form, NReq=397723379.
          There are     1 degrees of freedom in the 1st order CPHF.  IDoFFX=0 NUNeed=     1.
 LinEq1:  Iter=  0 NonCon=     1 RMS=4.50D-03 Max=1.49D-01 NDo=     1
 AX will form     1 AO Fock derivatives at one time.
 LinEq1:  Iter=  1 NonCon=     1 RMS=1.49D-03 Max=3.36D-02 NDo=     1
 LinEq1:  Iter=  2 NonCon=     1 RMS=6.14D-04 Max=2.17D-02 NDo=     1
 LinEq1:  Iter=  3 NonCon=     1 RMS=2.80D-04 Max=5.17D-03 NDo=     1
 LinEq1:  Iter=  4 NonCon=     1 RMS=8.50D-05 Max=1.71D-03 NDo=     1
 LinEq1:  Iter=  5 NonCon=     1 RMS=3.38D-05 Max=1.16D-03 NDo=     1
 LinEq1:  Iter=  6 NonCon=     1 RMS=1.39D-05 Max=6.57D-04 NDo=     1
 LinEq1:  Iter=  7 NonCon=     1 RMS=5.41D-06 Max=1.51D-04 NDo=     1
 LinEq1:  Iter=  8 NonCon=     1 RMS=2.19D-06 Max=7.07D-05 NDo=     1
 LinEq1:  Iter=  9 NonCon=     1 RMS=7.20D-07 Max=2.30D-05 NDo=     1
 LinEq1:  Iter= 10 NonCon=     1 RMS=2.36D-07 Max=6.05D-06 NDo=     1
 LinEq1:  Iter= 11 NonCon=     1 RMS=9.52D-08 Max=2.93D-06 NDo=     1
 LinEq1:  Iter= 12 NonCon=     1 RMS=4.62D-08 Max=2.19D-06 NDo=     1
 LinEq1:  Iter= 13 NonCon=     1 RMS=2.08D-08 Max=5.42D-07 NDo=     1
 LinEq1:  Iter= 14 NonCon=     1 RMS=7.97D-09 Max=1.85D-07 NDo=     1
 LinEq1:  Iter= 15 NonCon=     1 RMS=2.99D-09 Max=5.62D-08 NDo=     1
 LinEq1:  Iter= 16 NonCon=     1 RMS=1.04D-09 Max=2.26D-08 NDo=     1
 LinEq1:  Iter= 17 NonCon=     1 RMS=3.00D-10 Max=7.47D-09 NDo=     1
 LinEq1:  Iter= 18 NonCon=     1 RMS=1.11D-10 Max=3.19D-09 NDo=     1
 LinEq1:  Iter= 19 NonCon=     0 RMS=3.46D-11 Max=8.85D-10 NDo=     1
 Linear equations converged to 1.000D-10 1.000D-09 after    19 iterations.
 End of Minotr F.D. properties file   721 does not exist.
 End of Minotr F.D. properties file   722 does not exist.
 End of Minotr F.D. properties file   788 does not exist.

 **********************************************************************

            Population analysis using the SCF Density.

 **********************************************************************

 Alpha  occ. eigenvalues --  -20.60680 -20.60662 -15.85025 -15.62243 -15.56801
 Alpha  occ. eigenvalues --  -11.35048 -11.30903 -11.29734 -11.29151 -11.27580
 Alpha  occ. eigenvalues --  -11.24295 -11.23658 -11.23241 -11.22703  -1.59483
 Alpha  occ. eigenvalues --   -1.39171  -1.27967  -1.22632  -1.13535  -1.08989
 Alpha  occ. eigenvalues --   -1.01621  -1.00626  -0.93819  -0.88978  -0.84645
 Alpha  occ. eigenvalues --   -0.81810  -0.78556  -0.77184  -0.73977  -0.71715
 Alpha  occ. eigenvalues --   -0.71180  -0.68986  -0.66836  -0.64454  -0.62958
 Alpha  occ. eigenvalues --   -0.61551  -0.60335  -0.57248  -0.56243  -0.54663
 Alpha  occ. eigenvalues --   -0.53536  -0.51246  -0.50288  -0.48725  -0.48028
 Alpha  occ. eigenvalues --   -0.47647  -0.46152  -0.45458  -0.44229  -0.41963
 Alpha  occ. eigenvalues --   -0.39928  -0.32681
 Alpha virt. eigenvalues --    0.09100   0.09843   0.18508   0.21030   0.23019
 Alpha virt. eigenvalues --    0.24175   0.25101   0.27801   0.28538   0.28866
 Alpha virt. eigenvalues --    0.29058   0.30917   0.31984   0.32466   0.33460
 Alpha virt. eigenvalues --    0.34005   0.34969   0.36775   0.37804   0.38450
 Alpha virt. eigenvalues --    0.40728   0.42020   0.44373   0.45157   0.45612
 Alpha virt. eigenvalues --    0.46960   0.50454   0.53745   0.57385   0.57881
 Alpha virt. eigenvalues --    0.60756   0.68783   0.69432   0.72197   0.73659
 Alpha virt. eigenvalues --    0.74421   0.75912   0.76340   0.78110   0.79068
 Alpha virt. eigenvalues --    0.80225   0.83071   0.84930   0.85738   0.88140
 Alpha virt. eigenvalues --    0.88560   0.89509   0.91246   0.92588   0.92818
 Alpha virt. eigenvalues --    0.94607   0.97048   0.98670   1.00858   1.01644
 Alpha virt. eigenvalues --    1.03933   1.05332   1.06643   1.07034   1.07902
 Alpha virt. eigenvalues --    1.09873   1.10562   1.10736   1.11412   1.12713
 Alpha virt. eigenvalues --    1.12912   1.13642   1.14188   1.15621   1.15950
 Alpha virt. eigenvalues --    1.17112   1.17193   1.18544   1.21023   1.21940
 Alpha virt. eigenvalues --    1.23280   1.23498   1.25229   1.25684   1.26875
 Alpha virt. eigenvalues --    1.28657   1.29953   1.33153   1.34610   1.37323
 Alpha virt. eigenvalues --    1.39790   1.42282   1.44900   1.47471   1.52535
 Alpha virt. eigenvalues --    1.53378   1.55785   1.60272   1.65386   1.67278
 Alpha virt. eigenvalues --    1.68224   1.71384   1.72840   1.74592   1.76120
 Alpha virt. eigenvalues --    1.78451   1.81138   1.85492   1.90118   1.92595
 Alpha virt. eigenvalues --    1.93178   1.98010   1.99325   2.00359   2.01438
 Alpha virt. eigenvalues --    2.03166   2.03756   2.05714   2.10332   2.10779
 Alpha virt. eigenvalues --    2.12691   2.13090   2.17352   2.19805   2.20005
 Alpha virt. eigenvalues --    2.22451   2.23410   2.25588   2.26481   2.29237
 Alpha virt. eigenvalues --    2.30181   2.31138   2.33737   2.33854   2.36041
 Alpha virt. eigenvalues --    2.38405   2.38967   2.42129   2.43822   2.45096
 Alpha virt. eigenvalues --    2.48126   2.49372   2.51566   2.55899   2.57170
 Alpha virt. eigenvalues --    2.60876   2.62997   2.65748   2.68150   2.69483
 Alpha virt. eigenvalues --    2.69977   2.72019   2.73744   2.76229   2.82418
 Alpha virt. eigenvalues --    2.86140   2.86838   2.88370   2.93241   2.95914
 Alpha virt. eigenvalues --    2.97505   3.01194   3.04949   3.06004   3.07497
 Alpha virt. eigenvalues --    3.10309   3.13525   3.19824   3.21377   3.23773
 Alpha virt. eigenvalues --    3.27426   3.32934   3.37917   3.40248   3.59097
 Alpha virt. eigenvalues --    4.14712   4.19134   4.29541   4.33215   4.45465
 Alpha virt. eigenvalues --    4.53556   4.59601   4.60788   4.71390   4.78632
 Alpha virt. eigenvalues --    4.99240   4.99495   5.04346   5.09980
          Condensed to atoms (all electrons):
               1          2          3          4          5          6
     1  O    8.301079   0.299373  -0.080468  -0.084112  -0.001313  -0.000041
     2  N    0.299373   5.783316   0.295206   0.239539  -0.048438   0.001312
     3  O   -0.080468   0.295206   8.310224  -0.090033   0.005851   0.000133
     4  C   -0.084112   0.239539  -0.090033   5.218946   0.604283  -0.053804
     5  C   -0.001313  -0.048438   0.005851   0.604283   4.616492   0.322686
     6  N   -0.000041   0.001312   0.000133  -0.053804   0.322686   7.170090
     7  C    0.000008  -0.000119  -0.000004   0.003305  -0.030391   0.210230
     8  H   -0.000000   0.000002   0.000000  -0.000151   0.002448  -0.048805
     9  C    0.000000  -0.000006   0.000000   0.000446   0.002013  -0.058620
    10  C   -0.000000   0.000000   0.000000  -0.000019  -0.000076   0.003427
    11  C   -0.000000  -0.000000  -0.000000  -0.000020   0.000017  -0.000156
    12  C   -0.000000   0.000002   0.000000  -0.000073  -0.000158   0.003561
    13  C   -0.000027  -0.000038   0.000003  -0.009600   0.000719  -0.045971
    14  H   -0.000004  -0.000068   0.000001   0.002396   0.004644  -0.005435
    15  N   -0.000027   0.001957  -0.000025  -0.066887  -0.006303   0.003287
    16  C    0.004002  -0.032231   0.001782   0.323498  -0.028846  -0.002230
    17  H   -0.000110  -0.002000   0.002274  -0.035856   0.387271  -0.031574
    18  H   -0.000000  -0.000057   0.000007   0.001705  -0.023474   0.328271
    19  H   -0.000000  -0.000000   0.000000  -0.000873   0.000642   0.000672
    20  H   -0.000000  -0.000000   0.000000  -0.000032   0.000019  -0.001339
    21  H    0.000000  -0.000000  -0.000000   0.000000   0.000001  -0.000061
    22  H   -0.000000   0.000000   0.000000  -0.000000  -0.000002  -0.000096
    23  H   -0.000000  -0.000000   0.000000   0.000024   0.000000  -0.000023
    24  H   -0.000000   0.000000   0.000000   0.000000  -0.000000   0.000004
    25  H    0.000000  -0.000000   0.000000   0.000020  -0.000001  -0.000070
    26  H    0.000000  -0.000000   0.000000   0.000004   0.000000  -0.000067
    27  H    0.000262   0.000700   0.000496  -0.077401   0.001709   0.000038
               7          8          9         10         11         12
     1  O    0.000008  -0.000000   0.000000  -0.000000  -0.000000  -0.000000
     2  N   -0.000119   0.000002  -0.000006   0.000000  -0.000000   0.000002
     3  O   -0.000004   0.000000   0.000000   0.000000  -0.000000   0.000000
     4  C    0.003305  -0.000151   0.000446  -0.000019  -0.000020  -0.000073
     5  C   -0.030391   0.002448   0.002013  -0.000076   0.000017  -0.000158
     6  N    0.210230  -0.048805  -0.058620   0.003427  -0.000156   0.003561
     7  C    5.002149   0.415741   0.342146  -0.049588  -0.007614  -0.064507
     8  H    0.415741   0.548494  -0.060698   0.001214  -0.000254  -0.003040
     9  C    0.342146  -0.060698   5.180531   0.317706  -0.053127  -0.005875
    10  C   -0.049588   0.001214   0.317706   5.128024   0.332734  -0.060233
    11  C   -0.007614  -0.000254  -0.053127   0.332734   5.124545   0.330380
    12  C   -0.064507  -0.003040  -0.005875  -0.060233   0.330380   5.138005
    13  C    0.329207  -0.039084  -0.052299  -0.001405  -0.048073   0.367285
    14  H   -0.040079  -0.000952   0.003806  -0.000384   0.003936  -0.040470
    15  N   -0.060114   0.003987  -0.012410   0.001536  -0.007835  -0.073837
    16  C   -0.001840  -0.000047  -0.000423  -0.000059   0.000012   0.002511
    17  H    0.001628  -0.000035  -0.000070   0.000001   0.000000   0.000001
    18  H   -0.029672  -0.002843   0.000682  -0.000113   0.000011  -0.000139
    19  H   -0.035166   0.004083   0.386655  -0.033137  -0.002249   0.000629
    20  H   -0.041393  -0.001762   0.397209  -0.037421   0.004137  -0.000360
    21  H    0.004056  -0.000083  -0.035811   0.399924  -0.035955   0.004230
    22  H   -0.004273   0.003544  -0.045534   0.395803  -0.045614  -0.001276
    23  H    0.000426   0.000034  -0.001981  -0.040190   0.396677  -0.036794
    24  H   -0.000149  -0.000099   0.004379  -0.038489   0.400250  -0.037906
    25  H    0.004994   0.000000  -0.000382   0.004106  -0.034009   0.395352
    26  H   -0.004465   0.001532   0.001052  -0.002407  -0.042202   0.394722
    27  H   -0.000408   0.000009  -0.000056   0.000004   0.000005  -0.000026
              13         14         15         16         17         18
     1  O   -0.000027  -0.000004  -0.000027   0.004002  -0.000110  -0.000000
     2  N   -0.000038  -0.000068   0.001957  -0.032231  -0.002000  -0.000057
     3  O    0.000003   0.000001  -0.000025   0.001782   0.002274   0.000007
     4  C   -0.009600   0.002396  -0.066887   0.323498  -0.035856   0.001705
     5  C    0.000719   0.004644  -0.006303  -0.028846   0.387271  -0.023474
     6  N   -0.045971  -0.005435   0.003287  -0.002230  -0.031574   0.328271
     7  C    0.329207  -0.040079  -0.060114  -0.001840   0.001628  -0.029672
     8  H   -0.039084  -0.000952   0.003987  -0.000047  -0.000035  -0.002843
     9  C   -0.052299   0.003806  -0.012410  -0.000423  -0.000070   0.000682
    10  C   -0.001405  -0.000384   0.001536  -0.000059   0.000001  -0.000113
    11  C   -0.048073   0.003936  -0.007835   0.000012   0.000000   0.000011
    12  C    0.367285  -0.040470  -0.073837   0.002511   0.000001  -0.000139
    13  C    5.019863   0.404031   0.248376  -0.071247  -0.000049   0.003797
    14  H    0.404031   0.512390  -0.035683  -0.004948   0.000052   0.000014
    15  N    0.248376  -0.035683   6.912237   0.613096  -0.000054  -0.000124
    16  C   -0.071247  -0.004948   0.613096   4.656477   0.001449  -0.000144
    17  H   -0.000049   0.000052  -0.000054   0.001449   0.416532  -0.002250
    18  H    0.003797   0.000014  -0.000124  -0.000144  -0.002250   0.330830
    19  H   -0.006066   0.000059   0.006618   0.002223   0.000011  -0.000113
    20  H    0.003891  -0.000050   0.000079  -0.000033  -0.000003   0.002727
    21  H   -0.000393   0.000009  -0.000035   0.000003  -0.000000  -0.000000
    22  H    0.000333  -0.000042   0.000006  -0.000001   0.000000   0.000003
    23  H   -0.005869   0.000007   0.006729   0.000086   0.000000   0.000000
    24  H    0.004150  -0.000059   0.000035   0.000005   0.000000  -0.000000
    25  H   -0.034664  -0.002655   0.000893  -0.000043  -0.000000   0.000002
    26  H   -0.044556  -0.000895   0.004144  -0.000053   0.000000  -0.000001
    27  H    0.005005  -0.000160  -0.036127   0.405557  -0.000073   0.000002
              19         20         21         22         23         24
     1  O   -0.000000  -0.000000   0.000000  -0.000000  -0.000000  -0.000000
     2  N   -0.000000  -0.000000  -0.000000   0.000000  -0.000000   0.000000
     3  O    0.000000   0.000000  -0.000000   0.000000   0.000000   0.000000
     4  C   -0.000873  -0.000032   0.000000  -0.000000   0.000024   0.000000
     5  C    0.000642   0.000019   0.000001  -0.000002   0.000000  -0.000000
     6  N    0.000672  -0.001339  -0.000061  -0.000096  -0.000023   0.000004
     7  C   -0.035166  -0.041393   0.004056  -0.004273   0.000426  -0.000149
     8  H    0.004083  -0.001762  -0.000083   0.003544   0.000034  -0.000099
     9  C    0.386655   0.397209  -0.035811  -0.045534  -0.001981   0.004379
    10  C   -0.033137  -0.037421   0.399924   0.395803  -0.040190  -0.038489
    11  C   -0.002249   0.004137  -0.035955  -0.045614   0.396677   0.400250
    12  C    0.000629  -0.000360   0.004230  -0.001276  -0.036794  -0.037906
    13  C   -0.006066   0.003891  -0.000393   0.000333  -0.005869   0.004150
    14  H    0.000059  -0.000050   0.000009  -0.000042   0.000007  -0.000059
    15  N    0.006618   0.000079  -0.000035   0.000006   0.006729   0.000035
    16  C    0.002223  -0.000033   0.000003  -0.000001   0.000086   0.000005
    17  H    0.000011  -0.000003  -0.000000   0.000000   0.000000   0.000000
    18  H   -0.000113   0.002727  -0.000000   0.000003   0.000000  -0.000000
    19  H    0.508361  -0.023804  -0.002602   0.003781   0.001663  -0.000072
    20  H   -0.023804   0.549152  -0.002649  -0.002940  -0.000050  -0.000090
    21  H   -0.002602  -0.002649   0.527639  -0.024811  -0.002835  -0.002080
    22  H    0.003781  -0.002940  -0.024811   0.569538   0.004076  -0.003588
    23  H    0.001663  -0.000050  -0.002835   0.004076   0.511454  -0.025099
    24  H   -0.000072  -0.000090  -0.002080  -0.003588  -0.025099   0.542041
    25  H   -0.000027   0.000011  -0.000087  -0.000082  -0.002081  -0.002400
    26  H    0.000024  -0.000035  -0.000073   0.002454   0.003823  -0.002747
    27  H    0.000086   0.000000  -0.000000   0.000000  -0.000020  -0.000000
              25         26         27
     1  O    0.000000   0.000000   0.000262
     2  N   -0.000000  -0.000000   0.000700
     3  O    0.000000   0.000000   0.000496
     4  C    0.000020   0.000004  -0.077401
     5  C   -0.000001   0.000000   0.001709
     6  N   -0.000070  -0.000067   0.000038
     7  C    0.004994  -0.004465  -0.000408
     8  H    0.000000   0.001532   0.000009
     9  C   -0.000382   0.001052  -0.000056
    10  C    0.004106  -0.002407   0.000004
    11  C   -0.034009  -0.042202   0.000005
    12  C    0.395352   0.394722  -0.000026
    13  C   -0.034664  -0.044556   0.005005
    14  H   -0.002655  -0.000895  -0.000160
    15  N    0.000893   0.004144  -0.036127
    16  C   -0.000043  -0.000053   0.405557
    17  H   -0.000000   0.000000  -0.000073
    18  H    0.000002  -0.000001   0.000002
    19  H   -0.000027   0.000024   0.000086
    20  H    0.000011  -0.000035   0.000000
    21  H   -0.000087  -0.000073  -0.000000
    22  H   -0.000082   0.002454   0.000000
    23  H   -0.002081   0.003823  -0.000020
    24  H   -0.002400  -0.002747  -0.000000
    25  H    0.511633  -0.023187  -0.000012
    26  H   -0.023187   0.560429   0.000001
    27  H   -0.000012   0.000001   0.477740
 Mulliken charges:
               1
     1  O   -0.438622
     2  N    0.461549
     3  O   -0.445448
     4  C    0.024691
     5  C    0.190205
     6  N   -0.795420
     7  C    0.055890
     8  H    0.176764
     9  C   -0.309335
    10  C   -0.320959
    11  C   -0.315597
    12  C   -0.311983
    13  C   -0.027318
    14  H    0.200539
    15  N   -0.503521
    16  C    0.131444
    17  H    0.262856
    18  H    0.390878
    19  H    0.188601
    20  H    0.154737
    21  H    0.171614
    22  H    0.148721
    23  H    0.189943
    24  H    0.161914
    25  H    0.182688
    26  H    0.152506
    27  H    0.222666
 Sum of Mulliken charges =  -0.00000
 Mulliken charges with hydrogens summed into heavy atoms:
               1
     1  O   -0.438622
     2  N    0.461549
     3  O   -0.445448
     4  C    0.024691
     5  C    0.453060
     6  N   -0.404542
     7  C    0.232654
     9  C    0.034003
    10  C   -0.000624
    11  C    0.036259
    12  C    0.023210
    13  C    0.173220
    15  N   -0.503521
    16  C    0.354110
 Electronic spatial extent (au):  <R**2>=           3066.2511
 Charge=             -0.0000 electrons
 Dipole moment (field-independent basis, Debye):
    X=              4.5756    Y=              3.9395    Z=              0.7279  Tot=              6.0815
 Quadrupole moment (field-independent basis, Debye-Ang):
   XX=           -101.4496   YY=            -77.2803   ZZ=            -86.0144
   XY=             -1.2703   XZ=              0.1686   YZ=              3.1900
 Traceless Quadrupole moment (field-independent basis, Debye-Ang):
   XX=            -13.2015   YY=             10.9678   ZZ=              2.2336
   XY=             -1.2703   XZ=              0.1686   YZ=              3.1900
 Octapole moment (field-independent basis, Debye-Ang**2):
  XXX=             76.5955  YYY=             29.9395  ZZZ=             -1.8968  XYY=            -15.6817
  XXY=             12.4246  XXZ=              6.0379  XZZ=              3.7765  YZZ=             -2.8439
  YYZ=              1.1547  XYZ=            -11.9276
 Hexadecapole moment (field-independent basis, Debye-Ang**3):
 XXXX=          -3387.2837 YYYY=           -568.4872 ZZZZ=           -357.5260 XXXY=            -46.6654
 XXXZ=            -18.3534 YYYX=              3.0472 YYYZ=             33.9514 ZZZX=             -1.0041
 ZZZY=             25.3838 XXYY=           -589.1181 XXZZ=           -586.8046 YYZZ=           -166.5812
 XXYZ=             46.1673 YYXZ=             11.4383 ZZXY=              4.4141
 N-N= 9.209634674630D+02 E-N=-3.388066647594D+03  KE= 6.590193320888D+02
 Calling FoFJK, ICntrl=  10002127 FMM=F ISym2X=0 I1Cent= 0 IOpClX= 0 NMat=1 NMatS=1 NMatT=0.
 -------------------------------------------------------------------
 Center     Atomic                   Forces (Hartrees/Bohr)
 Number     Number              X              Y              Z
 -------------------------------------------------------------------
      1        8          -0.012664907   -0.020358965    0.012565209
      2        7           0.032913824    0.022755839    0.009739904
      3        8          -0.015652657    0.004137294   -0.019254936
      4        6           0.010971795    0.007583394    0.004205490
      5        6           0.005562767   -0.022107000   -0.009005651
      6        7           0.020701684   -0.002203336   -0.002928851
      7        6          -0.006829534    0.006292628    0.002784532
      8        1          -0.010309087   -0.001550620   -0.007573534
      9        6          -0.003638217   -0.000100247   -0.001820767
     10        6           0.002762500   -0.000901976    0.000620805
     11        6          -0.000695857   -0.004377704   -0.002398524
     12        6           0.000686570   -0.008943935   -0.003603890
     13        6           0.008264212   -0.000881431    0.002252614
     14        1           0.000541936    0.004338009   -0.010285503
     15        7           0.002245800   -0.004997586    0.004475085
     16        6          -0.013746479    0.015739528    0.007042087
     17        1           0.009503119   -0.004120537   -0.003813297
     18        1          -0.017005828   -0.002979677    0.003760220
     19        1           0.003145396    0.005559090    0.007720980
     20        1          -0.003238741   -0.007613587    0.002416183
     21        1          -0.004124286    0.001948776    0.009764818
     22        1          -0.004073549   -0.003728022   -0.007466077
     23        1           0.003998219    0.005731252    0.009465186
     24        1          -0.009402289    0.002562302   -0.001916615
     25        1          -0.000907631    0.010672589   -0.002027957
     26        1          -0.004851395   -0.004632592   -0.004557520
     27        1           0.005842633    0.002176515   -0.000159991
 -------------------------------------------------------------------
 Cartesian Forces:  Max     0.032913824 RMS     0.009102555

 GradGradGradGradGradGradGradGradGradGradGradGradGradGradGradGradGradGrad
 Berny optimization.
 FormGI is forming the generalized inverse of G from B-inverse, IUseBI=4.
 Internal  Forces:  Max     0.029638744 RMS     0.006239737
 Search for a local minimum.
 Step number   1 out of a maximum of   20
 All quantities printed in internal units (Hartrees-Bohrs-Radians)
 Mixed Optimization -- RFO/linear search
 Second derivative matrix not updated -- first step.
 ITU=  0
     Eigenvalues ---    0.00689   0.00770   0.01099   0.01182   0.01335
     Eigenvalues ---    0.01508   0.01540   0.01665   0.02001   0.02073
     Eigenvalues ---    0.02147   0.02671   0.03657   0.04507   0.04697
     Eigenvalues ---    0.04837   0.05069   0.05139   0.05301   0.05867
     Eigenvalues ---    0.06270   0.07212   0.07699   0.07715   0.07856
     Eigenvalues ---    0.07997   0.08038   0.08049   0.10459   0.11736
     Eigenvalues ---    0.12268   0.13374   0.15149   0.15593   0.15989
     Eigenvalues ---    0.15999   0.20100   0.22059   0.23283   0.24964
     Eigenvalues ---    0.25000   0.25000   0.25318   0.26139   0.26655
     Eigenvalues ---    0.27989   0.28081   0.28426   0.31482   0.31826
     Eigenvalues ---    0.32044   0.32240   0.32290   0.32381   0.32387
     Eigenvalues ---    0.32403   0.32510   0.32526   0.32585   0.33347
     Eigenvalues ---    0.33591   0.34222   0.34522   0.35258   0.43887
     Eigenvalues ---    0.45424   0.49571   0.67319   0.91615   0.92157
     Eigenvalues --- 1000.000001000.000001000.000001000.000001000.00000
     Eigenvalues --- 1000.000001000.000001000.000001000.000001000.00000
     Eigenvalues --- 1000.000001000.000001000.000001000.000001000.00000
     Eigenvalues --- 1000.000001000.000001000.000001000.000001000.00000
     Eigenvalues --- 1000.000001000.000001000.000001000.000001000.00000
     Eigenvalues --- 1000.000001000.000001000.000001000.000001000.00000
     Eigenvalues --- 1000.000001000.000001000.000001000.000001000.00000
     Eigenvalues --- 1000.000001000.000001000.000001000.000001000.00000
     Eigenvalues --- 1000.000001000.000001000.000001000.000001000.00000
     Eigenvalues --- 1000.000001000.000001000.000001000.000001000.00000
     Eigenvalues --- 1000.000001000.000001000.000001000.000001000.00000
     Eigenvalues --- 1000.000001000.000001000.000001000.000001000.00000
     Eigenvalues --- 1000.000001000.000001000.000001000.000001000.00000
     Eigenvalues --- 1000.000001000.000001000.000001000.000001000.00000
     Eigenvalues --- 1000.000001000.000001000.000001000.000001000.00000
     Eigenvalues --- 1000.000001000.000001000.000001000.000001000.00000
     Eigenvalues --- 1000.000001000.000001000.000001000.000001000.00000
     Eigenvalues --- 1000.000001000.000001000.000001000.000001000.00000
     Eigenvalues --- 1000.00000
 RFO step:  Lambda=-2.10766194D-02 EMin= 6.89225224D-03
 Linear search not attempted -- first point.
 Iteration  1 RMS(Cart)=  0.05275987 RMS(Int)=  0.00443001
 Iteration  2 RMS(Cart)=  0.00519115 RMS(Int)=  0.00141510
 Iteration  3 RMS(Cart)=  0.00008733 RMS(Int)=  0.00141304
 Iteration  4 RMS(Cart)=  0.00000060 RMS(Int)=  0.00141304
 Iteration  1 RMS(Cart)=  0.00006202 RMS(Int)=  0.00004049
 Iteration  2 RMS(Cart)=  0.00002908 RMS(Int)=  0.00004499
 Iteration  3 RMS(Cart)=  0.00001449 RMS(Int)=  0.00004971
 Iteration  4 RMS(Cart)=  0.00000810 RMS(Int)=  0.00005253
 Iteration  5 RMS(Cart)=  0.00000531 RMS(Int)=  0.00005422
 Iteration  6 RMS(Cart)=  0.00000400 RMS(Int)=  0.00005533
 Iteration  7 RMS(Cart)=  0.00000326 RMS(Int)=  0.00005615
 Iteration  8 RMS(Cart)=  0.00000275 RMS(Int)=  0.00005681
 Iteration  9 RMS(Cart)=  0.00000236 RMS(Int)=  0.00005737
 Iteration 10 RMS(Cart)=  0.00000204 RMS(Int)=  0.00005785
 Iteration 11 RMS(Cart)=  0.00000176 RMS(Int)=  0.00005828
 Iteration 12 RMS(Cart)=  0.00000153 RMS(Int)=  0.00005866
 Iteration 13 RMS(Cart)=  0.00000133 RMS(Int)=  0.00005900
 Iteration 14 RMS(Cart)=  0.00000116 RMS(Int)=  0.00005929
 Iteration 15 RMS(Cart)=  0.00000101 RMS(Int)=  0.00005956
 Iteration 16 RMS(Cart)=  0.00000088 RMS(Int)=  0.00005979
 Variable       Old X    -DE/DX   Delta X   Delta X   Delta X     New X
                                 (Linear)    (Quad)   (Total)
    R1        2.31955   0.02488   0.00000   0.02639   0.02639   2.34594
    R2        2.32197   0.02402   0.00000   0.02563   0.02563   2.34760
    R3        2.79759  -0.00577   0.00000  -0.01576  -0.01576   2.78183
    R4        2.63071  -0.02964   0.00000  -0.06293  -0.06275   2.56796
    R5        2.78811  -0.01864   0.00000  -0.05323  -0.05315   2.73496
    R6        2.58842  -0.01762   0.00000  -0.03374  -0.03359   2.55483
    R7        2.08446  -0.01032   0.00000  -0.02911  -0.02911   2.05535
    R8        2.82708  -0.02103   0.00000  -0.05789  -0.05789   2.76919
    R9        1.93290  -0.00711   0.00000  -0.01545  -0.01545   1.91745
   R10        2.11802  -0.01199   0.00000  -0.03571  -0.03571   2.08231
   R11        2.92745  -0.01266   0.00000  -0.04318  -0.04317   2.88429
   R12        2.90726  -0.00417   0.00000  -0.00851  -0.00853   2.89873
   R13        2.91149  -0.00456   0.00000  -0.01426  -0.01428   2.89720
   R14        2.09920  -0.00981   0.00000  -0.02833  -0.02833   2.07087
   R15        2.09891  -0.00818   0.00000  -0.02363  -0.02363   2.07529
   R16        2.90431  -0.00203   0.00000  -0.00764  -0.00773   2.89658
   R17        2.10142  -0.01052   0.00000  -0.03051  -0.03051   2.07092
   R18        2.10316  -0.00900   0.00000  -0.02616  -0.02616   2.07700
   R19        2.91732  -0.00919   0.00000  -0.02973  -0.02974   2.88759
   R20        2.10407  -0.01160   0.00000  -0.03377  -0.03377   2.07030
   R21        2.10113  -0.00990   0.00000  -0.02870  -0.02870   2.07243
   R22        2.93521  -0.01053   0.00000  -0.03654  -0.03652   2.89869
   R23        2.10152  -0.01075   0.00000  -0.03116  -0.03116   2.07035
   R24        2.09786  -0.00791   0.00000  -0.02280  -0.02280   2.07506
   R25        2.10764  -0.00956   0.00000  -0.02800  -0.02800   2.07964
   R26        2.77251  -0.00705   0.00000  -0.01622  -0.01641   2.75610
   R27        2.44159  -0.00381   0.00000  -0.00574  -0.00582   2.43577
   R28        2.08026  -0.00417   0.00000  -0.01169  -0.01169   2.06858
    A1        2.20655  -0.00720   0.00000  -0.01874  -0.02901   2.17754
    A2        2.02920   0.00386   0.00000   0.02199   0.01181   2.04101
    A3        2.03980   0.00541   0.00000   0.02767   0.01750   2.05730
    A4        2.00154  -0.00113   0.00000  -0.00094  -0.00227   1.99927
    A5        2.01028  -0.00014   0.00000   0.00275   0.00134   2.01162
    A6        2.26976   0.00125   0.00000  -0.00658  -0.00736   2.26240
    A7        2.18307   0.01073   0.00000   0.03840   0.03875   2.22182
    A8        2.06300  -0.00256   0.00000  -0.00356  -0.00375   2.05925
    A9        2.03604  -0.00814   0.00000  -0.03446  -0.03467   2.00137
   A10        2.25046  -0.00687   0.00000  -0.02373  -0.02351   2.22695
   A11        2.11146  -0.01111   0.00000  -0.06784  -0.06802   2.04345
   A12        1.87148   0.01791   0.00000   0.09629   0.09631   1.96780
   A13        1.83756  -0.00194   0.00000  -0.01758  -0.01737   1.82019
   A14        2.00479  -0.00077   0.00000  -0.01252  -0.01256   1.99223
   A15        1.97194   0.00140   0.00000   0.00096   0.00035   1.97229
   A16        1.85281   0.00275   0.00000   0.02414   0.02393   1.87674
   A17        1.84886   0.00109   0.00000   0.02219   0.02219   1.87105
   A18        1.93392  -0.00219   0.00000  -0.01221  -0.01193   1.92199
   A19        1.91022   0.00058   0.00000  -0.00354  -0.00365   1.90657
   A20        1.92176  -0.00072   0.00000  -0.01352  -0.01350   1.90826
   A21        1.92299  -0.00192   0.00000  -0.00773  -0.00777   1.91522
   A22        1.91936  -0.00055   0.00000   0.00501   0.00494   1.92430
   A23        1.90487   0.00297   0.00000   0.02567   0.02570   1.93057
   A24        1.88445  -0.00034   0.00000  -0.00550  -0.00576   1.87869
   A25        1.94083  -0.00099   0.00000   0.00548   0.00529   1.94612
   A26        1.91876  -0.00053   0.00000  -0.00630  -0.00629   1.91247
   A27        1.90488   0.00026   0.00000  -0.00293  -0.00296   1.90191
   A28        1.91606   0.00069   0.00000   0.00713   0.00719   1.92325
   A29        1.89851   0.00182   0.00000   0.01128   0.01134   1.90985
   A30        1.88374  -0.00125   0.00000  -0.01517  -0.01526   1.86848
   A31        1.94459   0.00070   0.00000   0.00548   0.00572   1.95031
   A32        1.90252   0.00057   0.00000   0.00622   0.00610   1.90862
   A33        1.91718   0.00044   0.00000   0.00554   0.00550   1.92268
   A34        1.90705  -0.00128   0.00000  -0.01512  -0.01520   1.89185
   A35        1.91524  -0.00040   0.00000   0.00036   0.00023   1.91546
   A36        1.87590  -0.00006   0.00000  -0.00287  -0.00289   1.87302
   A37        1.94595  -0.00289   0.00000  -0.01970  -0.01978   1.92617
   A38        1.90634   0.00236   0.00000   0.01635   0.01614   1.92248
   A39        1.91136   0.00150   0.00000   0.01483   0.01488   1.92624
   A40        1.90636   0.00026   0.00000  -0.00319  -0.00297   1.90339
   A41        1.91208  -0.00034   0.00000  -0.00443  -0.00437   1.90771
   A42        1.88056  -0.00083   0.00000  -0.00332  -0.00353   1.87703
   A43        1.84536   0.00483   0.00000   0.02531   0.02540   1.87077
   A44        1.93454  -0.00430   0.00000  -0.02939  -0.02989   1.90465
   A45        1.99174   0.00110   0.00000   0.01183   0.01188   2.00362
   A46        1.88145   0.00233   0.00000   0.03264   0.03287   1.91433
   A47        1.89103  -0.00458   0.00000  -0.03155  -0.03156   1.85947
   A48        1.91495   0.00081   0.00000  -0.00616  -0.00586   1.90909
   A49        2.08725  -0.00666   0.00000  -0.01957  -0.01957   2.06767
   A50        2.23872   0.00038   0.00000  -0.00327  -0.00337   2.23536
   A51        1.98137   0.00367   0.00000   0.02270   0.02238   2.00375
   A52        2.06291  -0.00407   0.00000  -0.02016  -0.02047   2.04244
    D1       -1.80014  -0.01058   0.00000  -0.08111  -0.08119  -1.88133
    D2        1.39627  -0.01018   0.00000   0.00000   0.00000   1.39627
    D3        1.21761   0.00561   0.00000   0.16686   0.16621   1.38383
    D4       -1.86917   0.00600   0.00000   0.24797   0.24741  -1.62176
    D5        3.08038   0.00026   0.00000   0.04351   0.04301   3.12339
    D6       -0.00969  -0.00014   0.00000   0.03574   0.03530   0.02561
    D7       -0.12602  -0.00028   0.00000  -0.05199  -0.05206  -0.17809
    D8        3.06709  -0.00068   0.00000  -0.05976  -0.05977   3.00732
    D9       -2.81202  -0.00036   0.00000  -0.05541  -0.05573  -2.86775
   D10        0.35101   0.00109   0.00000  -0.01338  -0.01321   0.33781
   D11        0.39464   0.00021   0.00000   0.04060   0.04001   0.43465
   D12       -2.72551   0.00166   0.00000   0.08263   0.08253  -2.64298
   D13       -0.02827   0.00016   0.00000   0.02513   0.02530  -0.00297
   D14        2.73500   0.00340   0.00000   0.06085   0.06067   2.79566
   D15        3.06251   0.00069   0.00000   0.03358   0.03353   3.09605
   D16       -0.45740   0.00393   0.00000   0.06929   0.06889  -0.38851
   D17       -2.56282  -0.00075   0.00000  -0.00944  -0.00904  -2.57186
   D18        1.68882  -0.00243   0.00000  -0.02084  -0.02043   1.66839
   D19       -0.55304   0.00009   0.00000   0.00710   0.00726  -0.54579
   D20        0.91673   0.00069   0.00000  -0.01621  -0.01634   0.90038
   D21       -1.11482  -0.00100   0.00000  -0.02761  -0.02773  -1.14255
   D22        2.92650   0.00153   0.00000   0.00033  -0.00004   2.92646
   D23        2.94101   0.00216   0.00000   0.02989   0.02984   2.97084
   D24       -1.23038   0.00139   0.00000   0.02529   0.02522  -1.20516
   D25        0.84633  -0.00067   0.00000   0.00527   0.00529   0.85162
   D26        0.91819   0.00317   0.00000   0.04254   0.04260   0.96080
   D27        3.02999   0.00240   0.00000   0.03793   0.03799   3.06798
   D28       -1.17648   0.00034   0.00000   0.01791   0.01805  -1.15842
   D29       -1.08144   0.00145   0.00000   0.00912   0.00908  -1.07235
   D30        1.03036   0.00069   0.00000   0.00452   0.00447   1.03483
   D31        3.10708  -0.00138   0.00000  -0.01550  -0.01546   3.09161
   D32       -2.89728  -0.00099   0.00000  -0.01533  -0.01508  -2.91236
   D33       -0.86303   0.00233   0.00000   0.02279   0.02261  -0.84041
   D34        1.30940   0.00080   0.00000   0.00000   0.00001   1.30940
   D35       -0.89429  -0.00196   0.00000  -0.02265  -0.02246  -0.91675
   D36        1.13996   0.00136   0.00000   0.01547   0.01523   1.15520
   D37       -2.97080  -0.00017   0.00000  -0.00732  -0.00737  -2.97817
   D38        1.10781   0.00080   0.00000   0.01198   0.01214   1.11995
   D39       -3.14112   0.00412   0.00000   0.05010   0.04983  -3.09129
   D40       -0.96870   0.00260   0.00000   0.02731   0.02723  -0.94147
   D41        0.95665   0.00087   0.00000   0.00000   0.00001   0.95666
   D42        3.08235   0.00073   0.00000   0.00837   0.00832   3.09068
   D43       -1.13785  -0.00094   0.00000  -0.01552  -0.01549  -1.15334
   D44       -1.15660   0.00175   0.00000   0.01582   0.01590  -1.14071
   D45        0.96910   0.00160   0.00000   0.02419   0.02421   0.99331
   D46        3.03208  -0.00007   0.00000   0.00030   0.00040   3.03248
   D47        3.06238   0.00070   0.00000   0.00418   0.00417   3.06655
   D48       -1.09510   0.00056   0.00000   0.01255   0.01248  -1.08262
   D49        0.96788  -0.00112   0.00000  -0.01134  -0.01134   0.95655
   D50       -0.92192  -0.00059   0.00000   0.00000   0.00001  -0.92191
   D51        1.18402  -0.00137   0.00000  -0.01128  -0.01130   1.17272
   D52       -3.04801  -0.00086   0.00000  -0.00791  -0.00797  -3.05598
   D53       -3.04920   0.00026   0.00000  -0.00055  -0.00051  -3.04971
   D54       -0.94326  -0.00052   0.00000  -0.01183  -0.01182  -0.95508
   D55        1.10790  -0.00001   0.00000  -0.00846  -0.00849   1.09941
   D56        1.17635   0.00030   0.00000   0.00706   0.00710   1.18345
   D57       -3.00090  -0.00048   0.00000  -0.00422  -0.00421  -3.00511
   D58       -0.94974   0.00003   0.00000  -0.00085  -0.00088  -0.95062
   D59        0.99049  -0.00099   0.00000  -0.01135  -0.01145   0.97904
   D60        3.09898  -0.00094   0.00000  -0.01706  -0.01728   3.08170
   D61       -1.12855   0.00031   0.00000  -0.00291  -0.00292  -1.13146
   D62       -1.11278  -0.00130   0.00000  -0.01260  -0.01262  -1.12540
   D63        0.99570  -0.00125   0.00000  -0.01832  -0.01844   0.97725
   D64        3.05136   0.00000   0.00000  -0.00416  -0.00409   3.04728
   D65        3.11771  -0.00024   0.00000  -0.00045  -0.00046   3.11725
   D66       -1.05700  -0.00019   0.00000  -0.00616  -0.00629  -1.06328
   D67        0.99867   0.00106   0.00000   0.00799   0.00807   1.00674
   D68       -1.05752  -0.00010   0.00000  -0.00245  -0.00232  -1.05984
   D69       -3.12741   0.00123   0.00000   0.00236   0.00189  -3.12552
   D70        1.08453   0.00148   0.00000   0.00887   0.00861   1.09314
   D71        3.11720  -0.00138   0.00000  -0.00816  -0.00792   3.10928
   D72        1.04731  -0.00006   0.00000  -0.00336  -0.00370   1.04361
   D73       -1.02394   0.00020   0.00000   0.00315   0.00302  -1.02092
   D74        1.06111  -0.00034   0.00000   0.00030   0.00058   1.06169
   D75       -1.00879   0.00099   0.00000   0.00510   0.00480  -1.00399
   D76       -3.08003   0.00124   0.00000   0.01161   0.01151  -3.06852
   D77       -1.17217   0.00387   0.00000   0.00000   0.00001  -1.17216
   D78        3.06058   0.00025   0.00000  -0.01751  -0.01733   3.04325
   D79        1.01068  -0.00036   0.00000  -0.03508  -0.03540   0.97528
   D80        0.21403  -0.00099   0.00000  -0.01286  -0.01317   0.20086
   D81       -2.94987  -0.00242   0.00000  -0.05613  -0.05604  -3.00592
         Item               Value     Threshold  Converged?
 Maximum Force            0.029391     0.000450     NO 
 RMS     Force            0.006204     0.000300     NO 
 Maximum Displacement     0.258523     0.001800     NO 
 RMS     Displacement     0.055846     0.001200     NO 
 Predicted change in Energy=-1.268693D-02
 GradGradGradGradGradGradGradGradGradGradGradGradGradGradGradGradGradGrad

                          Input orientation:                          
 ---------------------------------------------------------------------
 Center     Atomic      Atomic             Coordinates (Angstroms)
 Number     Number       Type             X           Y           Z
 ---------------------------------------------------------------------
      1          8           0       -3.679890   -0.859179    0.778012
      2          7           0       -3.124130   -0.213434   -0.124907
      3          8           0       -3.673225    0.146075   -1.179683
      4          6           0       -1.672559   -0.003721    0.001524
      5          6           0       -1.311220    1.267373    0.318346
      6          7           0       -0.059338    1.738267    0.515415
      7          6           0        1.199195    0.991656    0.437711
      8          1           0        1.848430    1.474374    1.185830
      9          6           0        1.901894    1.091337   -0.913536
     10          6           0        3.305148    0.484464   -0.799167
     11          6           0        3.254619   -0.951006   -0.264037
     12          6           0        2.464108   -1.041335    1.040513
     13          6           0        1.050089   -0.478924    0.847752
     14          1           0        0.496570   -0.534190    1.797307
     15          7           0        0.397391   -1.327106   -0.143057
     16          6           0       -0.849443   -1.124551   -0.399526
     17          1           0       -2.101014    1.999030    0.472848
     18          1           0        0.074179    2.741253    0.439591
     19          1           0        1.316249    0.553469   -1.667608
     20          1           0        1.959624    2.142918   -1.224788
     21          1           0        3.795449    0.505883   -1.779016
     22          1           0        3.909070    1.105670   -0.122848
     23          1           0        2.773285   -1.598188   -1.005464
     24          1           0        4.271010   -1.332456   -0.108588
     25          1           0        2.392646   -2.084688    1.367028
     26          1           0        2.972869   -0.479851    1.835288
     27          1           0       -1.348995   -1.853139   -1.045940
 ---------------------------------------------------------------------
                    Distance matrix (angstroms):
                    1          2          3          4          5
     1  O    0.000000
     2  N    1.241418   0.000000
     3  O    2.200716   1.242298   0.000000
     4  C    2.316057   1.472081   2.328166   0.000000
     5  C    3.216226   2.382416   3.013381   1.358904   0.000000
     6  N    4.463639   3.689458   4.297512   2.429215   1.351956
     7  C    5.229423   4.523264   5.203023   3.070505   2.528330
     8  H    6.014492   5.412309   6.152130   3.998088   3.283104
     9  C    6.149972   5.252169   5.660945   3.848792   3.445668
    10  C    7.285851   6.502100   6.996927   5.065273   4.813797
    11  C    7.012968   6.422757   7.073685   5.024436   5.109527
    12  C    6.152301   5.768191   6.633707   4.389551   4.483833
    13  C    4.745752   4.294258   5.177916   2.890455   2.984225
    14  H    4.311311   4.111845   5.168407   2.865547   2.949756
    15  N    4.206132   3.693468   4.451379   2.461086   3.140631
    16  C    3.077084   2.465715   3.193256   1.447281   2.539661
    17  H    3.279533   2.509797   2.938733   2.101602   1.087643
    18  H    5.212549   4.390673   4.837358   3.282967   2.026414
    19  H    5.739167   4.762881   5.029801   3.468348   3.370055
    20  H    6.695365   5.710226   5.976487   4.393706   3.721057
    21  H    8.017636   7.150808   7.501317   5.773138   5.572868
    22  H    7.890786   7.155833   7.715499   5.692170   5.241396
    23  H    6.735755   6.121473   6.680592   4.829274   5.162083
    24  H    8.014167   7.479343   8.151330   6.091279   6.172737
    25  H    6.222902   6.013508   6.946714   4.766646   5.104377
    26  H    6.746920   6.409894   7.324780   5.016910   4.869017
    27  H    3.122151   2.586124   3.068679   2.149936   3.405921
                    6          7          8          9         10
     6  N    0.000000
     7  C    1.465391   0.000000
     8  H    2.039283   1.101910   0.000000
     9  C    2.511345   1.526300   2.134693   0.000000
    10  C    3.823600   2.494423   2.653708   1.533133   0.000000
    11  C    4.338439   2.913959   3.156256   2.534341   1.532805
    12  C    3.790738   2.469094   2.594025   2.946639   2.533739
    13  C    2.501441   1.533939   2.137058   2.508670   2.953938
    14  H    2.667648   2.161109   2.497150   3.459183   3.958212
    15  N    3.168390   2.521277   3.423411   2.950598   3.488167
    16  C    3.107588   3.062060   4.067712   3.569905   4.473172
    17  H    2.058700   3.450712   4.047433   4.332348   5.756606
    18  H    1.014671   2.080085   2.304305   2.809576   4.131196
    19  H    2.839291   2.153619   3.045224   1.095858   2.171329
    20  H    2.695971   2.160453   2.504076   1.098195   2.177627
    21  H    4.652157   3.448244   3.676842   2.162721   1.095882
    22  H    4.068885   2.769593   2.468769   2.157348   1.099103
    23  H    4.633440   3.356755   3.885585   2.828661   2.159369
    24  H    5.345151   3.890500   3.927176   3.483594   2.170481
    25  H    4.620872   3.428097   3.604987   3.940678   3.482184
    26  H    3.982009   2.695269   2.346307   3.342403   2.825007
    27  H    4.123014   4.097237   5.126078   4.388137   5.214051
                   11         12         13         14         15
    11  C    0.000000
    12  C    1.528044   0.000000
    13  C    2.513741   1.533921   0.000000
    14  H    3.468388   2.168211   1.100497   0.000000
    15  N    2.884413   2.398712   1.458468   2.098467   0.000000
    16  C    4.109964   3.613898   2.362362   2.643171   1.288953
    17  H    6.158614   5.514200   4.026196   3.862492   4.205300
    18  H    4.923725   4.514514   3.389473   3.570761   4.122558
    19  H    2.826789   3.345878   2.731979   3.722971   2.589424
    20  H    3.488900   3.940249   3.463629   4.294240   3.956233
    21  H    2.170296   3.480819   3.925144   4.975384   4.193209
    22  H    2.162905   2.837420   3.409805   4.245149   4.272083
    23  H    1.095555   2.142825   2.767050   3.764445   2.542067
    24  H    1.096685   2.161037   3.466617   4.303029   3.873776
    25  H    2.165319   1.095584   2.156522   2.486822   2.614446
    26  H    2.169917   1.098075   2.161553   2.477186   3.356304
    27  H    4.755889   4.421772   3.351140   3.637279   2.035135
                   16         17         18         19         20
    16  C    0.000000
    17  H    3.476237   0.000000
    18  H    4.062220   2.298578   0.000000
    19  H    3.018941   4.283560   3.281680   0.000000
    20  H    4.387284   4.403572   2.585163   1.770979   0.000000
    21  H    5.112370   6.486035   4.875135   2.482157   2.521369
    22  H    5.262498   6.105248   4.206882   3.068212   2.467893
    23  H    3.703465   6.235718   5.310754   2.681607   3.834844
    24  H    5.132924   7.213845   5.874436   3.836387   4.320490
    25  H    3.814933   6.137531   5.433703   4.162633   4.977718
    26  H    4.474382   5.809077   4.552569   4.010289   4.155677
    27  H    1.094644   4.208499   5.033951   3.644415   5.191090
                   21         22         23         24         25
    21  H    0.000000
    22  H    1.765091   0.000000
    23  H    2.463802   3.062657   0.000000
    24  H    2.529028   2.464886   1.765837   0.000000
    25  H    4.310048   3.833753   2.451588   2.504306   0.000000
    26  H    3.835558   2.687870   3.059475   2.488124   1.769584
    27  H    5.706811   6.103597   4.130355   5.721381   4.458240
                   26         27
    26  H    0.000000
    27  H    5.372700   0.000000
 Symmetry turned off by external request.
 Stoichiometry    C9H13N3O2
 Framework group  C1[X(C9H13N3O2)]
 Deg. of freedom    75
 Full point group                 C1      NOp   1
 Rotational constants (GHZ):           1.6618735           0.4133756           0.3805262
 Standard basis: 6-31G(d) (6D, 7F)
   236 basis functions,   444 primitive gaussians,   236 cartesian basis functions
    52 alpha electrons       52 beta electrons
       nuclear repulsion energy       929.9203765278 Hartrees.
 NAtoms=   27 NActive=   27 NUniq=   27 SFac= 1.00D+00 NAtFMM=   60 NAOKFM=F Big=F
 Integral buffers will be    131072 words long.
 Raffenetti 1 integral format.
 Two-electron integral symmetry is turned off.
 One-electron integrals computed using PRISM.
 NBasis=   236 RedAO= T EigKep=  1.53D-03  NBF=   236
 NBsUse=   236 1.00D-06 EigRej= -1.00D+00 NBFU=   236
 Initial guess from the checkpoint file:  "/home/alexey/tmp/Gau-1063242.chk"
 B after Tr=     0.035371   -0.008683   -0.004369
         Rot=    0.999991    0.002534    0.003011   -0.001399 Ang=   0.48 deg.
 ExpMin= 1.61D-01 ExpMax= 5.48D+03 ExpMxC= 8.25D+02 IAcc=3 IRadAn=         5 AccDes= 0.00D+00
 Harris functional with IExCor=  205 and IRadAn=       5 diagonalized for initial guess.
 HarFok:  IExCor=  205 AccDes= 0.00D+00 IRadAn=         5 IDoV= 1 UseB2=F ITyADJ=14
 ICtDFT=  3500011 ScaDFX=  1.000000  1.000000  1.000000  1.000000
 FoFCou: FMM=F IPFlag=           0 FMFlag=      100000 FMFlg1=           0
         NFxFlg=           0 DoJE=T BraDBF=F KetDBF=T FulRan=T
         wScrn=  0.000000 ICntrl=       500 IOpCl=  0 I1Cent=   200000004 NGrid=           0
         NMat0=    1 NMatS0=      1 NMatT0=    0 NMatD0=    1 NMtDS0=    0 NMtDT0=    0
 Symmetry not used in FoFCou.
 Keep R1 ints in memory in canonical form, NReq=397720213.
 Requested convergence on RMS density matrix=1.00D-08 within 128 cycles.
 Requested convergence on MAX density matrix=1.00D-06.
 Requested convergence on             energy=1.00D-06.
 No special actions if energy rises.
 SCF Done:  E(RHF) =  -661.278635220     A.U. after   16 cycles
            NFock= 16  Conv=0.64D-08     -V/T= 2.0025
 ExpMin= 1.61D-01 ExpMax= 5.48D+03 ExpMxC= 8.25D+02 IAcc=3 IRadAn=         5 AccDes= 0.00D+00
 HarFok:  IExCor=  205 AccDes= 0.00D+00 IRadAn=         5 IDoV=-2 UseB2=F ITyADJ=14
 ICtDFT= 12500011 ScaDFX=  1.000000  1.000000  1.000000  1.000000
 Range of M.O.s used for correlation:    15   236
 NBasis=   236 NAE=    52 NBE=    52 NFC=    14 NFV=     0
 NROrb=    222 NOA=    38 NOB=    38 NVA=   184 NVB=   184
 Fully direct method using O(ONN) memory.
 JobTyp=1 Pass  1:  I=  15 to  52 NPSUse=  4 ParTrn=T ParDer=T DoDerP=T.
 Spin components of T(2) and E(2):
     alpha-alpha T2 =       0.9145123219D-01 E2=     -0.2725018529D+00
     alpha-beta  T2 =       0.4973160743D+00 E2=     -0.1494212394D+01
     beta-beta   T2 =       0.9145123219D-01 E2=     -0.2725018529D+00
 ANorm=    0.1296232440D+01
 E2 =    -0.2039216100D+01 EUMP2 =    -0.66331785131974D+03
          IDoAtm=111111111111111111111111111
          Differentiating once with respect to electric field.
                with respect to dipole field.
          Differentiating once with respect to nuclear coordinates.
 Keep R1 ints in memory in canonical form, NReq=397723379.
          There are     1 degrees of freedom in the 1st order CPHF.  IDoFFX=0 NUNeed=     1.
 LinEq1:  Iter=  0 NonCon=     1 RMS=4.50D-03 Max=1.36D-01 NDo=     1
 AX will form     1 AO Fock derivatives at one time.
 LinEq1:  Iter=  1 NonCon=     1 RMS=1.50D-03 Max=3.19D-02 NDo=     1
 LinEq1:  Iter=  2 NonCon=     1 RMS=6.35D-04 Max=2.04D-02 NDo=     1
 LinEq1:  Iter=  3 NonCon=     1 RMS=2.77D-04 Max=4.01D-03 NDo=     1
 LinEq1:  Iter=  4 NonCon=     1 RMS=8.48D-05 Max=1.43D-03 NDo=     1
[...]
                   16         17         18         19         20
    16  C    0.000000
    17  H    3.465317   0.000000
    18  H    4.099701   2.237538   0.000000
    19  H    2.996226   4.257677   3.532362   0.000000
    20  H    4.380253   4.404576   2.904459   1.767837   0.000000
    21  H    5.098482   6.478702   5.103098   2.499798   2.521790
    22  H    5.249013   6.089697   4.321302   3.070361   2.462004
    23  H    3.692111   6.222958   5.430728   2.705610   3.843531
    24  H    5.130511   7.200873   5.941626   3.850458   4.317448
    25  H    3.819432   6.118916   5.365284   4.174985   4.985404
    26  H    4.489170   5.806598   4.471247   4.032239   4.175998
    27  H    1.094256   4.209529   5.100910   3.607315   5.169874
                   21         22         23         24         25
    21  H    0.000000
    22  H    1.758844   0.000000
    23  H    2.469977   3.062084   0.000000
    24  H    2.517059   2.459456   1.764446   0.000000
    25  H    4.312018   3.836594   2.446458   2.518224   0.000000
    26  H    3.843453   2.699017   3.060660   2.493773   1.767883
    27  H    5.672177   6.074550   4.099845   5.701834   4.455311
                   26         27
    26  H    0.000000
    27  H    5.378641   0.000000
 Symmetry turned off by external request.
 Stoichiometry    C9H13N3O2
 Framework group  C1[X(C9H13N3O2)]
 Deg. of freedom    75
 Full point group                 C1      NOp   1
 Rotational constants (GHZ):           1.6610080           0.4148029           0.3802288

 **********************************************************************

            Population analysis using the SCF Density.

 **********************************************************************

 Alpha  occ. eigenvalues --  -20.60700 -20.60679 -15.84871 -15.62826 -15.56280
 Alpha  occ. eigenvalues --  -11.34486 -11.30269 -11.29160 -11.28501 -11.26942
 Alpha  occ. eigenvalues --  -11.23277 -11.22915 -11.22506 -11.21893  -1.57792
 Alpha  occ. eigenvalues --   -1.37570  -1.30010  -1.23106  -1.14622  -1.09721
 Alpha  occ. eigenvalues --   -1.02475  -1.00954  -0.94504  -0.89750  -0.85206
 Alpha  occ. eigenvalues --   -0.82580  -0.78350  -0.77893  -0.74857  -0.71992
 Alpha  occ. eigenvalues --   -0.71106  -0.68580  -0.66872  -0.65267  -0.63345
 Alpha  occ. eigenvalues --   -0.62201  -0.60187  -0.57370  -0.56770  -0.54940
 Alpha  occ. eigenvalues --   -0.54369  -0.51317  -0.50257  -0.48979  -0.48290
 Alpha  occ. eigenvalues --   -0.47878  -0.46163  -0.45851  -0.43771  -0.41459
 Alpha  occ. eigenvalues --   -0.40089  -0.33058
 Alpha virt. eigenvalues --    0.08890   0.09916   0.17553   0.21353   0.23457
 Alpha virt. eigenvalues --    0.24779   0.26232   0.28139   0.29067   0.29263
 Alpha virt. eigenvalues --    0.29556   0.31703   0.32134   0.32903   0.34066
 Alpha virt. eigenvalues --    0.34500   0.35606   0.37395   0.38887   0.39277
 Alpha virt. eigenvalues --    0.41304   0.42666   0.44544   0.45879   0.47096
 Alpha virt. eigenvalues --    0.47914   0.50670   0.53729   0.57216   0.58551
 Alpha virt. eigenvalues --    0.59613   0.69827   0.70110   0.72967   0.74417
 Alpha virt. eigenvalues --    0.74732   0.75914   0.76404   0.78800   0.79199
 Alpha virt. eigenvalues --    0.80219   0.84142   0.85343   0.86155   0.88323
 Alpha virt. eigenvalues --    0.89573   0.89891   0.92039   0.92817   0.93176
 Alpha virt. eigenvalues --    0.95176   0.97720   0.99151   1.01845   1.02151
 Alpha virt. eigenvalues --    1.04202   1.06016   1.06249   1.08004   1.08899
 Alpha virt. eigenvalues --    1.10177   1.10758   1.11832   1.12373   1.13355
 Alpha virt. eigenvalues --    1.13970   1.14226   1.15149   1.16303   1.16514
 Alpha virt. eigenvalues --    1.17442   1.19092   1.19429   1.21774   1.23342
 Alpha virt. eigenvalues --    1.23693   1.24123   1.25374   1.26935   1.28542
 Alpha virt. eigenvalues --    1.29876   1.31278   1.33308   1.36318   1.37477
 Alpha virt. eigenvalues --    1.41162   1.42903   1.44134   1.51033   1.53259
 Alpha virt. eigenvalues --    1.56006   1.56420   1.61014   1.64126   1.66092
 Alpha virt. eigenvalues --    1.67805   1.70466   1.72967   1.74970   1.75595
 Alpha virt. eigenvalues --    1.80252   1.83728   1.88225   1.91890   1.92170
 Alpha virt. eigenvalues --    1.95146   1.96588   2.00162   2.01134   2.02636
 Alpha virt. eigenvalues --    2.04627   2.04757   2.07591   2.10382   2.11240
 Alpha virt. eigenvalues --    2.13892   2.15365   2.16939   2.20273   2.22449
 Alpha virt. eigenvalues --    2.23288   2.25518   2.27961   2.28245   2.29740
 Alpha virt. eigenvalues --    2.31503   2.33134   2.34897   2.35854   2.38047
 Alpha virt. eigenvalues --    2.39272   2.40293   2.42315   2.45967   2.46985
 Alpha virt. eigenvalues --    2.48684   2.51916   2.53812   2.55043   2.61448
 Alpha virt. eigenvalues --    2.62522   2.64574   2.68103   2.70476   2.71086
 Alpha virt. eigenvalues --    2.72696   2.73553   2.75449   2.78370   2.82141
 Alpha virt. eigenvalues --    2.87728   2.91118   2.91669   2.95103   2.97130
 Alpha virt. eigenvalues --    2.99577   3.02149   3.05726   3.07931   3.09248
 Alpha virt. eigenvalues --    3.10522   3.15621   3.18992   3.21429   3.23685
 Alpha virt. eigenvalues --    3.30568   3.37052   3.38399   3.41477   3.62877
 Alpha virt. eigenvalues --    4.14081   4.17113   4.30831   4.35914   4.48610
 Alpha virt. eigenvalues --    4.55973   4.62036   4.63281   4.73954   4.79786
 Alpha virt. eigenvalues --    5.00165   5.01255   5.05774   5.11342
          Condensed to atoms (all electrons):
               1          2          3          4          5          6
     1  O    8.297147   0.289334  -0.078110  -0.074570  -0.000512  -0.000027
     2  N    0.289334   5.833352   0.295672   0.231462  -0.051067   0.001505
     3  O   -0.078110   0.295672   8.306719  -0.091045   0.007714   0.000137
     4  C   -0.074570   0.231462  -0.091045   5.198845   0.588428  -0.051152
     5  C   -0.000512  -0.051067   0.007714   0.588428   4.633116   0.336000
     6  N   -0.000027   0.001505   0.000137  -0.051152   0.336000   7.183376
     7  C    0.000006  -0.000128  -0.000006   0.004135  -0.032365   0.182461
     8  H   -0.000000   0.000002   0.000000  -0.000247   0.003384  -0.049742
     9  C    0.000000  -0.000005  -0.000000   0.000889   0.000903  -0.064291
    10  C   -0.000000   0.000000   0.000000  -0.000044  -0.000064   0.003834
    11  C    0.000000  -0.000000  -0.000000  -0.000030   0.000024  -0.000189
    12  C   -0.000000   0.000002   0.000000  -0.000090  -0.000186   0.003755
    13  C   -0.000021  -0.000064   0.000004  -0.012090  -0.000290  -0.049078
    14  H   -0.000011  -0.000101   0.000001   0.002949   0.005920  -0.006755
    15  N   -0.000010   0.002260  -0.000017  -0.066556  -0.007548   0.002926
    16  C    0.001541  -0.033740   0.003188   0.329101  -0.036186  -0.004060
    17  H   -0.000013  -0.003675   0.003002  -0.035328   0.390830  -0.034591
    18  H    0.000002  -0.000076   0.000002   0.002172  -0.028069   0.337340
    19  H   -0.000000  -0.000006   0.000001  -0.001305   0.001093  -0.000093
    20  H   -0.000000  -0.000000   0.000000  -0.000075   0.000134   0.000023
    21  H    0.000000   0.000000  -0.000000   0.000001   0.000001  -0.000079
    22  H   -0.000000   0.000000   0.000000  -0.000000  -0.000003  -0.000114
    23  H   -0.000000  -0.000000   0.000000   0.000039  -0.000000  -0.000030
    24  H   -0.000000   0.000000   0.000000   0.000000  -0.000000   0.000006
    25  H    0.000000  -0.000000   0.000000   0.000023   0.000000  -0.000089
    26  H    0.000000  -0.000000   0.000000   0.000006  -0.000002  -0.000055
    27  H    0.000398   0.000033   0.000650  -0.076811   0.001974   0.000008
               7          8          9         10         11         12
     1  O    0.000006  -0.000000   0.000000  -0.000000   0.000000  -0.000000
     2  N   -0.000128   0.000002  -0.000005   0.000000  -0.000000   0.000002
     3  O   -0.000006   0.000000  -0.000000   0.000000  -0.000000   0.000000
     4  C    0.004135  -0.000247   0.000889  -0.000044  -0.000030  -0.000090
     5  C   -0.032365   0.003384   0.000903  -0.000064   0.000024  -0.000186
     6  N    0.182461  -0.049742  -0.064291   0.003834  -0.000189   0.003755
     7  C    5.007503   0.417829   0.353110  -0.054803  -0.008822  -0.060672
     8  H    0.417829   0.541009  -0.055462   0.000601  -0.000289  -0.002383
     9  C    0.353110  -0.055462   5.157184   0.324433  -0.050347  -0.005044
    10  C   -0.054803   0.000601   0.324433   5.120145   0.336935  -0.061187
    11  C   -0.008822  -0.000289  -0.050347   0.336935   5.120445   0.335847
    12  C   -0.060672  -0.002383  -0.005044  -0.061187   0.335847   5.119052
    13  C    0.337381  -0.037508  -0.062907   0.000239  -0.051156   0.370257
    14  H   -0.046345  -0.000749   0.004403  -0.000397   0.004163  -0.035745
    15  N   -0.059033   0.003805  -0.013762   0.001671  -0.013306  -0.081934
    16  C   -0.002792   0.000017  -0.001032  -0.000048   0.000017   0.002995
    17  H    0.002174  -0.000072  -0.000078   0.000001   0.000000   0.000000
    18  H   -0.022112  -0.004718   0.001515  -0.000085   0.000003  -0.000115
    19  H   -0.037077   0.004366   0.390875  -0.032651  -0.002243   0.000713
    20  H   -0.042209  -0.001977   0.399235  -0.035374   0.003940  -0.000413
    21  H    0.004590  -0.000080  -0.036198   0.402178  -0.035094   0.004384
    22  H   -0.004830   0.003601  -0.046827   0.397596  -0.045508  -0.001115
    23  H    0.000566   0.000036  -0.001939  -0.039090   0.399317  -0.038069
    24  H   -0.000140  -0.000103   0.004365  -0.038396   0.402282  -0.038735
    25  H    0.005086  -0.000013  -0.000442   0.004216  -0.033639   0.398436
    26  H   -0.003983   0.001663   0.000980  -0.002278  -0.041322   0.396863
    27  H   -0.000426   0.000010  -0.000063   0.000007   0.000013  -0.000045
              13         14         15         16         17         18
     1  O   -0.000021  -0.000011  -0.000010   0.001541  -0.000013   0.000002
     2  N   -0.000064  -0.000101   0.002260  -0.033740  -0.003675  -0.000076
     3  O    0.000004   0.000001  -0.000017   0.003188   0.003002   0.000002
     4  C   -0.012090   0.002949  -0.066556   0.329101  -0.035328   0.002172
     5  C   -0.000290   0.005920  -0.007548  -0.036186   0.390830  -0.028069
     6  N   -0.049078  -0.006755   0.002926  -0.004060  -0.034591   0.337340
     7  C    0.337381  -0.046345  -0.059033  -0.002792   0.002174  -0.022112
     8  H   -0.037508  -0.000749   0.003805   0.000017  -0.000072  -0.004718
     9  C   -0.062907   0.004403  -0.013762  -0.001032  -0.000078   0.001515
    10  C    0.000239  -0.000397   0.001671  -0.000048   0.000001  -0.000085
    11  C   -0.051156   0.004163  -0.013306   0.000017   0.000000   0.000003
    12  C    0.370257  -0.035745  -0.081934   0.002995   0.000000  -0.000115
    13  C    5.043125   0.403995   0.253416  -0.072975  -0.000050   0.002877
    14  H    0.403995   0.522572  -0.038077  -0.005334   0.000082  -0.000125
    15  N    0.253416  -0.038077   6.927019   0.613886  -0.000059  -0.000141
    16  C   -0.072975  -0.005334   0.613886   4.671249   0.001915  -0.000150
    17  H   -0.000050   0.000082  -0.000059   0.001915   0.422967  -0.003352
    18  H    0.002877  -0.000125  -0.000141  -0.000150  -0.003352   0.314812
    19  H   -0.007335   0.000103   0.007130   0.002762   0.000015  -0.000152
    20  H    0.004429  -0.000066   0.000129  -0.000041   0.000000   0.000695
    21  H   -0.000458   0.000010  -0.000048   0.000004  -0.000000   0.000001
    22  H    0.000064  -0.000053   0.000022  -0.000002   0.000000   0.000000
    23  H   -0.007541   0.000003   0.008411   0.000108   0.000000   0.000000
    24  H    0.004712  -0.000056   0.000128   0.000008   0.000000  -0.000000
    25  H   -0.035778  -0.002828   0.000336  -0.000002  -0.000000   0.000002
    26  H   -0.047071  -0.001019   0.004846  -0.000076   0.000000  -0.000000
    27  H    0.005530  -0.000191  -0.037533   0.407836  -0.000097   0.000001
              19         20         21         22         23         24
     1  O   -0.000000  -0.000000   0.000000  -0.000000  -0.000000  -0.000000
     2  N   -0.000006  -0.000000   0.000000   0.000000  -0.000000   0.000000
     3  O    0.000001   0.000000  -0.000000   0.000000   0.000000   0.000000
     4  C   -0.001305  -0.000075   0.000001  -0.000000   0.000039   0.000000
     5  C    0.001093   0.000134   0.000001  -0.000003  -0.000000  -0.000000
     6  N   -0.000093   0.000023  -0.000079  -0.000114  -0.000030   0.000006
     7  C   -0.037077  -0.042209   0.004590  -0.004830   0.000566  -0.000140
     8  H    0.004366  -0.001977  -0.000080   0.003601   0.000036  -0.000103
     9  C    0.390875   0.399235  -0.036198  -0.046827  -0.001939   0.004365
    10  C   -0.032651  -0.035374   0.402178   0.397596  -0.039090  -0.038396
    11  C   -0.002243   0.003940  -0.035094  -0.045508   0.399317   0.402282
    12  C    0.000713  -0.000413   0.004384  -0.001115  -0.038069  -0.038735
    13  C   -0.007335   0.004429  -0.000458   0.000064  -0.007541   0.004712
    14  H    0.000103  -0.000066   0.000010  -0.000053   0.000003  -0.000056
    15  N    0.007130   0.000129  -0.000048   0.000022   0.008411   0.000128
    16  C    0.002762  -0.000041   0.000004  -0.000002   0.000108   0.000008
    17  H    0.000015   0.000000  -0.000000   0.000000   0.000000   0.000000
    18  H   -0.000152   0.000695   0.000001   0.000000   0.000000  -0.000000
    19  H    0.507014  -0.024592  -0.002798   0.003991   0.001528  -0.000068
    20  H   -0.024592   0.540716  -0.002734  -0.002979  -0.000047  -0.000083
    21  H   -0.002798  -0.002734   0.526011  -0.027594  -0.002916  -0.002260
    22  H    0.003991  -0.002979  -0.027594   0.572396   0.004160  -0.003653
    23  H    0.001528  -0.000047  -0.002916   0.004160   0.501086  -0.025658
    24  H   -0.000068  -0.000083  -0.002260  -0.003653  -0.025658   0.539494
    25  H   -0.000028   0.000013  -0.000088  -0.000080  -0.002301  -0.002320
    26  H    0.000020  -0.000031  -0.000079   0.002391   0.004071  -0.003015
    27  H    0.000101   0.000000  -0.000000   0.000000  -0.000034  -0.000000
              25         26         27
     1  O    0.000000   0.000000   0.000398
     2  N   -0.000000  -0.000000   0.000033
     3  O    0.000000   0.000000   0.000650
     4  C    0.000023   0.000006  -0.076811
     5  C    0.000000  -0.000002   0.001974
     6  N   -0.000089  -0.000055   0.000008
     7  C    0.005086  -0.003983  -0.000426
     8  H   -0.000013   0.001663   0.000010
     9  C   -0.000442   0.000980  -0.000063
    10  C    0.004216  -0.002278   0.000007
    11  C   -0.033639  -0.041322   0.000013
    12  C    0.398436   0.396863  -0.000045
    13  C   -0.035778  -0.047071   0.005530
    14  H   -0.002828  -0.001019  -0.000191
    15  N    0.000336   0.004846  -0.037533
    16  C   -0.000002  -0.000076   0.407836
    17  H   -0.000000   0.000000  -0.000097
    18  H    0.000002  -0.000000   0.000001
    19  H   -0.000028   0.000020   0.000101
    20  H    0.000013  -0.000031   0.000000
    21  H   -0.000088  -0.000079  -0.000000
    22  H   -0.000080   0.002391   0.000000
    23  H   -0.002301   0.004071  -0.000034
    24  H   -0.002320  -0.003015  -0.000000
    25  H    0.508241  -0.024220  -0.000013
    26  H   -0.024220   0.561654   0.000001
    27  H   -0.000013   0.000001   0.472705
 Mulliken charges:
               1
     1  O   -0.435154
     2  N    0.435244
     3  O   -0.447913
     4  C    0.051292
     5  C    0.186773
     6  N   -0.791025
     7  C    0.060903
     8  H    0.177022
     9  C   -0.299496
    10  C   -0.327437
    11  C   -0.321043
    12  C   -0.306571
    13  C   -0.041707
    14  H    0.193652
    15  N   -0.507962
    16  C    0.121812
    17  H    0.256330
    18  H    0.399672
    19  H    0.188635
    20  H    0.161307
    21  H    0.173245
    22  H    0.148537
    23  H    0.198301
    24  H    0.163494
    25  H    0.185488
    26  H    0.150654
    27  H    0.225949
 Sum of Mulliken charges =  -0.00000
 Mulliken charges with hydrogens summed into heavy atoms:
               1
     1  O   -0.435154
     2  N    0.435244
     3  O   -0.447913
     4  C    0.051292
     5  C    0.443103
     6  N   -0.391353
     7  C    0.237925
     9  C    0.050446
    10  C   -0.005656
    11  C    0.040751
    12  C    0.029571
    13  C    0.151945
    15  N   -0.507962
    16  C    0.347761
 Electronic spatial extent (au):  <R**2>=           2991.9317
 Charge=              0.0000 electrons
 Dipole moment (field-independent basis, Debye):
    X=              4.5420    Y=              4.2928    Z=              1.5828  Tot=              6.4470
 Quadrupole moment (field-independent basis, Debye-Ang):
   XX=           -102.3330   YY=            -77.0152   ZZ=            -84.8933
   XY=             -2.0151   XZ=             -0.8220   YZ=              5.3934
 Traceless Quadrupole moment (field-independent basis, Debye-Ang):
   XX=            -14.2525   YY=             11.0653   ZZ=              3.1872
   XY=             -2.0151   XZ=             -0.8220   YZ=              5.3934
 Octapole moment (field-independent basis, Debye-Ang**2):
  XXX=             71.4578  YYY=             30.3407  ZZZ=              2.6460  XYY=            -16.1523
  XXY=             14.1538  XXZ=              9.4654  XZZ=              1.6050  YZZ=             -0.3315
  YYZ=              7.7548  XYZ=            -11.4720
 Hexadecapole moment (field-independent basis, Debye-Ang**3):
 XXXX=          -3278.6850 YYYY=           -560.4073 ZZZZ=           -361.1004 XXXY=            -52.6581
 XXXZ=            -40.1472 YYYX=             -0.5848 YYYZ=             50.1672 ZZZX=            -16.7463
 ZZZY=             28.7959 XXYY=           -578.0664 XXZZ=           -569.9655 YYZZ=           -157.7860
 XXYZ=             43.2245 YYXZ=              5.5373 ZZXY=              6.2153
 N-N= 9.300381039167D+02 E-N=-3.406737469879D+03  KE= 6.595974455668D+02
 Unable to Open any file for archive entry.
 1\1\GINC-LOTUS\FOpt\RMP2-FC\6-31G(d)\C9H13N3O2\ALEXEY\30-Jun-2023\0\\#
 MP2/6-31G* SCF=Tight Opt=(ModRedun, MaxCycle=20 ) NoSymm\\MolName:\\0,
 1\O,-3.7219031694,-0.9158150408,0.6455514204\N,-3.1070131032,-0.221686
 6556,-0.1880210404\O,-3.6314304938,0.3451401387,-1.167054775\C,-1.6739
 28938,-0.0396033605,0.0351411758\C,-1.3048964141,1.2428123211,0.323859
 932\N,-0.0578653361,1.73628971,0.4760577653\C,1.2010020613,1.009200422
 1,0.4094407611\H,1.8595707332,1.5073158375,1.1368660601\C,1.8891808238
 ,1.0704465642,-0.9537069966\C,3.2912775229,0.4625820474,-0.8322301381\
 C,3.2564773803,-0.9557321038,-0.2571521021\C,2.4805561734,-1.015905920
 2,1.0599502338\C,1.0643158919,-0.4638307068,0.859029497\H,0.4958139049
 ,-0.4816392281,1.8022840075\N,0.4127930538,-1.3306123603,-0.1179468136
 \C,-0.8409145579,-1.1414512336,-0.380754371\H,-2.0955069008,1.97985779
 5,0.4510218702\H,-0.0025999667,2.7009690243,0.7770807634\H,1.286425992
 6,0.5185132145,-1.6831789894\H,1.9464495524,2.1117001723,-1.2941140781
 \H,3.7822568429,0.4622121347,-1.8122122117\H,3.8981361317,1.10646345,-
 0.1797156984\H,2.7710095759,-1.6284226195,-0.9711355485\H,4.2791488941
 ,-1.3222412352,-0.1079784884\H,2.4073397724,-2.0505110232,1.4110358264
 \H,2.9967133049,-0.4399971668,1.8403311586\H,-1.3203987322,-1.88605417
 76,-1.0234492202\\Version=ES64L-G16RevC.02\HF=-661.2799939\MP2=-663.32
 11836\RMSD=7.181e-09\RMSF=1.384e-03\Dipole=1.6501249,1.5356036,0.57376
 53\PG=C01 [X(C9H13N3O2)]\\@
 The archive entry for this job was punched.


 MICHAEL FARADAY, ASKED BY A POLITICIAN WHAT GOOD
 HIS ELECTRICAL DISCOVERIES WERE, REPLIED 
 "AT PRESENT I DO NOT KNOW, BUT ONE DAY YOU WILL BE
 ABLE TO TAX THEM."
 Job cpu time:       0 days  1 hours 25 minutes 54.7 seconds.
 Elapsed time:       0 days  0 hours 25 minutes 29.8 seconds.
 File lengths (MBytes):  RWF=     36 Int=      0 D2E=      0 Chk=      7 Scr=      1
 Normal termination of Gaussian 16 at Fri Jun 30 03:51:07 2023.
