 Entering Gaussian System, Link 0=g16
 Initial command:
 /home/alexey/programs//g16/l1.exe "/home/alexey/tmp/Gau-1067240.inp" -scrdir="/home/alexey/tmp/"
 Entering Link 1 = /home/alexey/programs//g16/l1.exe PID=   1067242.
  
 Copyright (c) 1988-2021, Gaussian, Inc.  All Rights Reserved.
  
 This is part of the Gaussian(R) 16 program.  It is based on
 the Gaussian(R) 09 system (copyright 2009, Gaussian, Inc.),
 the Gaussian(R) 03 system (copyright 2003, Gaussian, Inc.),
 the Gaussian(R) 98 system (copyright 1998, Gaussian, Inc.),
 the Gaussian(R) 94 system (copyright 1995, Gaussian, Inc.),
 the Gaussian 92(TM) system (copyright 1992, Gaussian, Inc.),
 the Gaussian 90(TM) system (copyright 1990, Gaussian, Inc.),
 the Gaussian 88(TM) system (copyright 1988, Gaussian, Inc.),
 the Gaussian 86(TM) system (copyright 1986, Carnegie Mellon
 University), and the Gaussian 82(TM) system (copyright 1983,
 Carnegie Mellon University). Gaussian is a federally registered
 trademark of Gaussian, Inc.
  
 This software contains proprietary and confidential information,
 including trade secrets, belonging to Gaussian, Inc.
  
 This software is provided under written license and may be
 used, copied, transmitted, or stored only in accord with that
 written license.
  
 The following legend is applicable only to US Government
 contracts under FAR:
  
                    RESTRICTED RIGHTS LEGEND
  
 Use, reproduction and disclosure by the US Government is
 subject to restrictions as set forth in subparagraphs (a)
 and (c) of the Commercial Computer Software - Restricted
 Rights clause in FAR 52.227-19.
  
 Gaussian, Inc.
 340 Quinnipiac St., Bldg. 40, Wallingford CT 06492
  
  
 ---------------------------------------------------------------
 Warning -- This program may not be used in any manner that
 competes with the business of Gaussian, Inc. or will provide
 assistance to any competitor of Gaussian, Inc.  The licensee
 of this program is prohibited from giving any competitor of
 Gaussian, Inc. access to this program.  By using this program,
 the user acknowledges that Gaussian, Inc. is engaged in the
 business of creating and licensing software in the field of
 computational chemistry and represents and warrants to the
 licensee that it is not a competitor of Gaussian, Inc. and that
 it will not use this program in any manner prohibited above.
 ---------------------------------------------------------------
  

 Cite this work as:
 Gaussian 16, Revision C.02,
 M. J. Frisch, G. W. Trucks, H. B. Schlegel, G. E. Scuseria, 
 M. A. Robb, J. R. Cheeseman, G. Scalmani, V. Barone, 
 G. A. Petersson, H. Nakatsuji, X. Li, M. Caricato, A. V. Marenich, 
 J. Bloino, B. G. Janesko, R. Gomperts, B. Mennucci, H. P. Hratchian, 
 J. V. Ortiz, A. F. Izmaylov, J. L. Sonnenberg, D. Williams-Young, 
 F. Ding, F. Lipparini, F. Egidi, J. Goings, B. Peng, A. Petrone, 
 T. Henderson, D. Ranasinghe, V. G. Zakrzewski, J. Gao, N. Rega, 
 G. Zheng, W. Liang, M. Hada, M. Ehara, K. Toyota, R. Fukuda, 
 J. Hasegawa, M. Ishida, T. Nakajima, Y. Honda, O. Kitao, H. Nakai, 
 T. Vreven, K. Throssell, J. A. Montgomery, Jr., J. E. Peralta, 
 F. Ogliaro, M. J. Bearpark, J. J. Heyd, E. N. Brothers, K. N. Kudin, 
 V. N. Staroverov, T. A. Keith, R. Kobayashi, J. Normand, 
 K. Raghavachari, A. P. Rendell, J. C. Burant, S. S. Iyengar, 
 J. Tomasi, M. Cossi, J. M. Millam, M. Klene, C. Adamo, R. Cammi, 
 J. W. Ochterski, R. L. Martin, K. Morokuma, O. Farkas, 
 J. B. Foresman, and D. J. Fox, Gaussian, Inc., Wallingford CT, 2019.
 
 ******************************************
 Gaussian 16:  ES64L-G16RevC.02  7-Dec-2021
                30-Jun-2023 
 ******************************************
 %mem=8GB
 %NPROCS=4
 Will use up to    4 processors via shared memory.
 %NoSave
 ---------------------------------------------------------
 #MP2/6-31G* SCF=Tight Opt=(ModRedun, MaxCycle=20 ) NoSymm
 ---------------------------------------------------------
 1/6=20,18=120,19=15,38=1/1,3;
 2/9=110,12=2,15=1,17=6,18=5,40=1/2;
 3/5=1,6=6,7=1,11=9,25=1,30=1,71=1/1,2,3;
 4//1;
 5/5=2,32=2,38=5/2;
 8/6=4,10=2/1;
 9/15=2,16=-3/6;
 10/5=1,31=1/2;
 6/7=2,8=2,9=2,10=2/1;
 7/12=2,30=1/1,2,3,16;
 1/6=20,18=20,19=15/3(2);
 2/9=110,15=1/2;
 99//99;
 2/9=110,15=1/2;
 3/5=1,6=6,7=1,11=9,25=1,30=1,71=1/1,2,3;
 4/5=5,16=3,69=1/1;
 5/5=2,32=2,38=5/2;
 8/6=4,10=2/1;
 9/15=2,16=-3/6;
 10/5=1,31=1/2;
 7/12=2,30=1/1,2,3,16;
 1/6=20,18=20,19=15/3(-8);
 2/9=110,15=1/2;
 6/7=2,8=2,9=2,10=2/1;
 99/9=10/99;
 --------
 MolName:
 --------
 Symbolic Z-matrix:
 Charge =  0 Multiplicity = 1
 8                    0    -3.71126  -0.68714   0.90179 
 7                    0    -3.18412  -0.24683  -0.11554 
 8                    0    -3.75192   0.07627  -1.1554 
 6                    0    -1.72895  -0.0023   -0.05214 
 6                    0    -1.37929   1.29436   0.31145 
 7                    0    -0.09748   1.73681   0.50523 
 6                    0     1.18439   0.96935   0.42366 
 1                    0     1.85578   1.43336   1.19182 
 6                    0     1.92985   1.08879  -0.92906 
 6                    0     3.3479    0.50344  -0.78685 
 6                    0     3.30334  -0.93935  -0.25917 
 6                    0     2.47364  -1.03949   1.03884 
 6                    0     1.02953  -0.50554   0.8339 
 1                    0     0.49273  -0.59225   1.8077 
 7                    0     0.36658  -1.34156  -0.17337 
 6                    0    -0.88062  -1.14264  -0.44592 
 1                    0    -2.18801   2.01844   0.50723 
 1                    0     0.13671   2.7287    0.41859 
 1                    0     1.37267   0.54502  -1.72145 
 1                    0     2.0046    2.15459  -1.23258 
 1                    0     3.86893   0.52905  -1.76892 
 1                    0     3.93065   1.12798  -0.07341 
 1                    0     2.85053  -1.59579  -1.03619 
 1                    0     4.33666  -1.30543  -0.07344 
 1                    0     2.42854  -2.10215   1.36352 
 1                    0     2.97308  -0.46061   1.84375 
 1                    0    -1.40444  -1.8871   -1.06505 
 
 The following ModRedundant input section has been read:
 D       1       2       4      16 F                                           
 D       7      13      15      16 F                                           
 D       7       9      10      11 F                                           
 D       9      10      11      12 F                                           
 D       6       7      13      15 F                                           
 

 GradGradGradGradGradGradGradGradGradGradGradGradGradGradGradGradGradGrad
 Berny optimization.
 Initialization pass.
                           ----------------------------
                           !    Initial Parameters    !
                           ! (Angstroms and Degrees)  !
 --------------------------                            --------------------------
 ! Name  Definition              Value          Derivative Info.                !
 --------------------------------------------------------------------------------
 ! R1    R(1,2)                  1.2275         estimate D2E/DX2                !
 ! R2    R(2,3)                  1.228          estimate D2E/DX2                !
 ! R3    R(2,4)                  1.4769         estimate D2E/DX2                !
 ! R4    R(4,5)                  1.3913         estimate D2E/DX2                !
 ! R5    R(4,16)                 1.4748         estimate D2E/DX2                !
 ! R6    R(5,6)                  1.3698         estimate D2E/DX2                !
 ! R7    R(5,17)                 1.103          estimate D2E/DX2                !
 ! R8    R(6,7)                  1.4963         estimate D2E/DX2                !
 ! R9    R(6,18)                 1.0228         estimate D2E/DX2                !
 ! R10   R(7,8)                  1.1208         estimate D2E/DX2                !
 ! R11   R(7,9)                  1.5491         estimate D2E/DX2                !
 ! R12   R(7,13)                 1.5387         estimate D2E/DX2                !
 ! R13   R(9,10)                 1.5407         estimate D2E/DX2                !
 ! R14   R(9,19)                 1.1109         estimate D2E/DX2                !
 ! R15   R(9,20)                 1.1107         estimate D2E/DX2                !
 ! R16   R(10,11)                1.5369         estimate D2E/DX2                !
 ! R17   R(10,21)                1.112          estimate D2E/DX2                !
 ! R18   R(10,22)                1.1129         estimate D2E/DX2                !
 ! R19   R(11,12)                1.5438         estimate D2E/DX2                !
 ! R20   R(11,23)                1.1134         estimate D2E/DX2                !
 ! R21   R(11,24)                1.1119         estimate D2E/DX2                !
 ! R22   R(12,13)                1.5532         estimate D2E/DX2                !
 ! R23   R(12,25)                1.1121         estimate D2E/DX2                !
 ! R24   R(12,26)                1.1101         estimate D2E/DX2                !
 ! R25   R(13,14)                1.1153         estimate D2E/DX2                !
 ! R26   R(13,15)                1.4673         estimate D2E/DX2                !
 ! R27   R(15,16)                1.292          estimate D2E/DX2                !
 ! R28   R(16,27)                1.1009         estimate D2E/DX2                !
 ! A1    A(1,2,3)              126.6987         estimate D2E/DX2                !
 ! A2    A(1,2,4)              116.5471         estimate D2E/DX2                !
 ! A3    A(3,2,4)              116.6369         estimate D2E/DX2                !
 ! A4    A(2,4,5)              114.4016         estimate D2E/DX2                !
 ! A5    A(2,4,16)             115.2934         estimate D2E/DX2                !
 ! A6    A(5,4,16)             130.2266         estimate D2E/DX2                !
 ! A7    A(4,5,6)              124.9713         estimate D2E/DX2                !
 ! A8    A(4,5,17)             118.2885         estimate D2E/DX2                !
 ! A9    A(6,5,17)             116.6761         estimate D2E/DX2                !
 ! A10   A(5,6,7)              128.9242         estimate D2E/DX2                !
 ! A11   A(5,6,18)             121.031          estimate D2E/DX2                !
 ! A12   A(7,6,18)             107.255          estimate D2E/DX2                !
 ! A13   A(6,7,8)              105.2771         estimate D2E/DX2                !
 ! A14   A(6,7,9)              114.8543         estimate D2E/DX2                !
 ! A15   A(6,7,13)             113.0098         estimate D2E/DX2                !
 ! A16   A(8,7,9)              106.1586         estimate D2E/DX2                !
 ! A17   A(8,7,13)             105.926          estimate D2E/DX2                !
 ! A18   A(9,7,13)             110.8024         estimate D2E/DX2                !
 ! A19   A(7,9,10)             109.4517         estimate D2E/DX2                !
 ! A20   A(7,9,19)             110.1064         estimate D2E/DX2                !
 ! A21   A(7,9,20)             110.1813         estimate D2E/DX2                !
 ! A22   A(10,9,19)            109.9691         estimate D2E/DX2                !
 ! A23   A(10,9,20)            109.1384         estimate D2E/DX2                !
 ! A24   A(19,9,20)            107.9716         estimate D2E/DX2                !
 ! A25   A(9,10,11)            111.2027         estimate D2E/DX2                !
 ! A26   A(9,10,21)            109.9367         estimate D2E/DX2                !
 ! A27   A(9,10,22)            109.1414         estimate D2E/DX2                !
 ! A28   A(11,10,21)           109.7807         estimate D2E/DX2                !
 ! A29   A(11,10,22)           108.7769         estimate D2E/DX2                !
 ! A30   A(21,10,22)           107.9308         estimate D2E/DX2                !
 ! A31   A(10,11,12)           111.4172         estimate D2E/DX2                !
 ! A32   A(10,11,23)           109.0051         estimate D2E/DX2                !
 ! A33   A(10,11,24)           109.8459         estimate D2E/DX2                !
 ! A34   A(12,11,23)           109.2658         estimate D2E/DX2                !
 ! A35   A(12,11,24)           109.735          estimate D2E/DX2                !
 ! A36   A(23,11,24)           107.4823         estimate D2E/DX2                !
 ! A37   A(11,12,13)           111.4968         estimate D2E/DX2                !
 ! A38   A(11,12,25)           109.2239         estimate D2E/DX2                !
 ! A39   A(11,12,26)           109.5121         estimate D2E/DX2                !
 ! A40   A(13,12,25)           109.2268         estimate D2E/DX2                !
 ! A41   A(13,12,26)           109.5536         estimate D2E/DX2                !
 ! A42   A(25,12,26)           107.7484         estimate D2E/DX2                !
 ! A43   A(7,13,12)            105.7307         estimate D2E/DX2                !
 ! A44   A(7,13,14)            110.839          estimate D2E/DX2                !
 ! A45   A(7,13,15)            114.1158         estimate D2E/DX2                !
 ! A46   A(12,13,14)           107.7913         estimate D2E/DX2                !
 ! A47   A(12,13,15)           108.3474         estimate D2E/DX2                !
 ! A48   A(14,13,15)           109.7314         estimate D2E/DX2                !
 ! A49   A(13,15,16)           119.5524         estimate D2E/DX2                !
 ! A50   A(4,16,15)            128.1677         estimate D2E/DX2                !
 ! A51   A(4,16,27)            113.5369         estimate D2E/DX2                !
 ! A52   A(15,16,27)           118.2832         estimate D2E/DX2                !
 ! D1    D(1,2,4,5)            -92.885          estimate D2E/DX2                !
 ! D2    D(1,2,4,16)            90.0001         Frozen                          !
 ! D3    D(3,2,4,5)             83.4439         estimate D2E/DX2                !
 ! D4    D(3,2,4,16)           -93.671          estimate D2E/DX2                !
 ! D5    D(2,4,5,6)            176.3596         estimate D2E/DX2                !
 ! D6    D(2,4,5,17)            -0.6241         estimate D2E/DX2                !
 ! D7    D(16,4,5,6)            -7.0575         estimate D2E/DX2                !
 ! D8    D(16,4,5,17)          175.9588         estimate D2E/DX2                !
 ! D9    D(2,4,16,15)         -160.6329         estimate D2E/DX2                !
 ! D10   D(2,4,16,27)           20.6739         estimate D2E/DX2                !
 ! D11   D(5,4,16,15)           22.809          estimate D2E/DX2                !
 ! D12   D(5,4,16,27)         -155.8842         estimate D2E/DX2                !
 ! D13   D(4,5,6,7)             -2.1072         estimate D2E/DX2                !
 ! D14   D(4,5,6,18)           156.4528         estimate D2E/DX2                !
 ! D15   D(17,5,6,7)           174.9204         estimate D2E/DX2                !
 ! D16   D(17,5,6,18)          -26.5197         estimate D2E/DX2                !
 ! D17   D(5,6,7,8)           -146.4831         estimate D2E/DX2                !
 ! D18   D(5,6,7,9)             97.1279         estimate D2E/DX2                !
 ! D19   D(5,6,7,13)           -31.3305         estimate D2E/DX2                !
 ! D20   D(18,6,7,8)            52.6629         estimate D2E/DX2                !
 ! D21   D(18,6,7,9)           -63.726          estimate D2E/DX2                !
 ! D22   D(18,6,7,13)          167.8156         estimate D2E/DX2                !
 ! D23   D(6,7,9,10)           168.4898         estimate D2E/DX2                !
 ! D24   D(6,7,9,19)           -70.5141         estimate D2E/DX2                !
 ! D25   D(6,7,9,20)            48.4732         estimate D2E/DX2                !
 ! D26   D(8,7,9,10)            52.6064         estimate D2E/DX2                !
 ! D27   D(8,7,9,19)           173.6025         estimate D2E/DX2                !
 ! D28   D(8,7,9,20)           -67.4102         estimate D2E/DX2                !
 ! D29   D(13,7,9,10)          -61.9558         estimate D2E/DX2                !
 ! D30   D(13,7,9,19)           59.0403         estimate D2E/DX2                !
 ! D31   D(13,7,9,20)          178.0276         estimate D2E/DX2                !
 ! D32   D(6,7,13,12)         -166.0054         estimate D2E/DX2                !
 ! D33   D(6,7,13,14)          -49.4621         estimate D2E/DX2                !
 ! D34   D(6,7,13,15)           75.0223         Frozen                          !
 ! D35   D(8,7,13,12)          -51.2421         estimate D2E/DX2                !
 ! D36   D(8,7,13,14)           65.3012         estimate D2E/DX2                !
 ! D37   D(8,7,13,15)         -170.2143         estimate D2E/DX2                !
 ! D38   D(9,7,13,12)           63.466          estimate D2E/DX2                !
 ! D39   D(9,7,13,14)         -179.9908         estimate D2E/DX2                !
 ! D40   D(9,7,13,15)          -55.5063         estimate D2E/DX2                !
 ! D41   D(7,9,10,11)           54.8127         Frozen                          !
 ! D42   D(7,9,10,21)          176.6051         estimate D2E/DX2                !
 ! D43   D(7,9,10,22)          -65.1944         estimate D2E/DX2                !
 ! D44   D(19,9,10,11)         -66.2666         estimate D2E/DX2                !
 ! D45   D(19,9,10,21)          55.5258         estimate D2E/DX2                !
 ! D46   D(19,9,10,22)         173.7263         estimate D2E/DX2                !
 ! D47   D(20,9,10,11)         175.466          estimate D2E/DX2                !
 ! D48   D(20,9,10,21)         -62.7416         estimate D2E/DX2                !
 ! D49   D(20,9,10,22)          55.4589         estimate D2E/DX2                !
 ! D50   D(9,10,11,12)         -52.8224         Frozen                          !
 ! D51   D(9,10,11,23)          67.8387         estimate D2E/DX2                !
 ! D52   D(9,10,11,24)        -174.6382         estimate D2E/DX2                !
 ! D53   D(21,10,11,12)       -174.7055         estimate D2E/DX2                !
 ! D54   D(21,10,11,23)        -54.0444         estimate D2E/DX2                !
 ! D55   D(21,10,11,24)         63.4787         estimate D2E/DX2                !
 ! D56   D(22,10,11,12)         67.4006         estimate D2E/DX2                !
 ! D57   D(22,10,11,23)       -171.9383         estimate D2E/DX2                !
 ! D58   D(22,10,11,24)        -54.4152         estimate D2E/DX2                !
 ! D59   D(10,11,12,13)         56.7543         estimate D2E/DX2                !
 ! D60   D(10,11,12,25)        177.5624         estimate D2E/DX2                !
 ! D61   D(10,11,12,26)        -64.6577         estimate D2E/DX2                !
 ! D62   D(23,11,12,13)        -63.7537         estimate D2E/DX2                !
 ! D63   D(23,11,12,25)         57.0544         estimate D2E/DX2                !
 ! D64   D(23,11,12,26)        174.8342         estimate D2E/DX2                !
 ! D65   D(24,11,12,13)        178.6344         estimate D2E/DX2                !
 ! D66   D(24,11,12,25)        -60.5575         estimate D2E/DX2                !
 ! D67   D(24,11,12,26)         57.2224         estimate D2E/DX2                !
 ! D68   D(11,12,13,7)         -60.5898         estimate D2E/DX2                !
 ! D69   D(11,12,13,14)       -179.1794         estimate D2E/DX2                !
 ! D70   D(11,12,13,15)         62.1365         estimate D2E/DX2                !
 ! D71   D(25,12,13,7)         178.6038         estimate D2E/DX2                !
 ! D72   D(25,12,13,14)         60.0141         estimate D2E/DX2                !
 ! D73   D(25,12,13,15)        -58.67           estimate D2E/DX2                !
 ! D74   D(26,12,13,7)          60.7982         estimate D2E/DX2                !
 ! D75   D(26,12,13,14)        -57.7915         estimate D2E/DX2                !
 ! D76   D(26,12,13,15)       -176.4756         estimate D2E/DX2                !
 ! D77   D(7,13,15,16)         -67.1604         Frozen                          !
 ! D78   D(12,13,15,16)        175.3616         estimate D2E/DX2                !
 ! D79   D(14,13,15,16)         57.9136         estimate D2E/DX2                !
 ! D80   D(13,15,16,4)          12.0966         estimate D2E/DX2                !
 ! D81   D(13,15,16,27)       -169.2639         estimate D2E/DX2                !
 --------------------------------------------------------------------------------
 Trust Radius=3.00D-01 FncErr=1.00D-07 GrdErr=1.00D-07 EigMax=2.50D+02 EigMin=1.00D-04
 Number of steps in this run=     20 maximum allowed number of steps=    162.
 GradGradGradGradGradGradGradGradGradGradGradGradGradGradGradGradGradGrad

                          Input orientation:                          
 ---------------------------------------------------------------------
 Center     Atomic      Atomic             Coordinates (Angstroms)
 Number     Number       Type             X           Y           Z
 ---------------------------------------------------------------------
      1          8           0       -3.711260   -0.687140    0.901790
      2          7           0       -3.184120   -0.246830   -0.115540
      3          8           0       -3.751920    0.076270   -1.155400
      4          6           0       -1.728950   -0.002300   -0.052140
      5          6           0       -1.379290    1.294360    0.311450
      6          7           0       -0.097480    1.736810    0.505230
      7          6           0        1.184390    0.969350    0.423660
      8          1           0        1.855780    1.433360    1.191820
      9          6           0        1.929850    1.088790   -0.929060
     10          6           0        3.347900    0.503440   -0.786850
     11          6           0        3.303340   -0.939350   -0.259170
     12          6           0        2.473640   -1.039490    1.038840
     13          6           0        1.029530   -0.505540    0.833900
     14          1           0        0.492730   -0.592250    1.807700
     15          7           0        0.366580   -1.341560   -0.173370
     16          6           0       -0.880620   -1.142640   -0.445920
     17          1           0       -2.188010    2.018440    0.507230
     18          1           0        0.136710    2.728700    0.418590
     19          1           0        1.372670    0.545020   -1.721450
     20          1           0        2.004600    2.154590   -1.232580
     21          1           0        3.868930    0.529050   -1.768920
     22          1           0        3.930650    1.127980   -0.073410
     23          1           0        2.850530   -1.595790   -1.036190
     24          1           0        4.336660   -1.305430   -0.073440
     25          1           0        2.428540   -2.102150    1.363520
     26          1           0        2.973080   -0.460610    1.843750
     27          1           0       -1.404440   -1.887100   -1.065050
 ---------------------------------------------------------------------
                    Distance matrix (angstroms):
                    1          2          3          4          5
     1  O    0.000000
     2  N    1.227481   0.000000
     3  O    2.194648   1.228047   0.000000
     4  C    2.304027   1.476934   2.305594   0.000000
     5  C    3.116557   2.411431   3.043808   1.391326   0.000000
     6  N    4.369462   3.721227   4.343963   2.448849   1.369799
     7  C    5.190372   4.566586   5.259104   3.107739   2.586634
     8  H    5.964275   5.471090   6.228759   4.056950   3.355600
     9  C    6.190966   5.347746   5.775720   3.917433   3.539990
    10  C    7.355320   6.609149   7.122201   5.154607   4.917127
    11  C    7.114496   6.525898   7.184108   5.122974   5.219396
    12  C    6.196444   5.828478   6.694565   4.464052   4.563006
    13  C    4.744753   4.327033   5.211342   2.940668   3.052050
    14  H    4.301536   4.163820   5.219572   2.956841   3.050003
    15  N    4.267671   3.716080   4.465050   2.489892   3.198623
    16  C    3.168016   2.493539   3.198979   1.474823   2.600240
    17  H    3.129877   2.551769   2.997028   2.146397   1.103018
    18  H    5.168009   4.490767   4.963293   3.340754   2.089753
    19  H    5.852004   4.895948   5.177022   3.564576   3.502496
    20  H    6.730678   5.825583   6.120694   4.470460   3.817687
    21  H    8.128413   7.285683   7.658901   5.879279   5.697144
    22  H    7.914826   7.246505   7.829347   5.771400   5.326468
    23  H    6.902065   6.251743   6.811926   4.947646   5.297214
    24  H    8.130337   7.595034   8.276766   6.204049   6.291195
    25  H    6.317641   6.093585   7.020581   4.868078   5.209866
    26  H    6.754184   6.464954   7.383005   5.090534   4.936698
    27  H    3.260335   2.599868   3.061641   2.164201   3.466565
                    6          7          8          9         10
     6  N    0.000000
     7  C    1.496275   0.000000
     8  H    2.092537   1.120776   0.000000
     9  C    2.566551   1.549138   2.149964   0.000000
    10  C    3.880891   2.522535   2.646943   1.540689   0.000000
    11  C    4.394510   2.932463   3.135372   2.539405   1.536904
    12  C    3.821419   2.464965   2.553457   2.949223   2.545213
    13  C    2.531069   1.538694   2.137786   2.541750   3.003283
    14  H    2.733001   2.198307   2.517997   3.518674   4.010514
    15  N    3.186254   2.523007   3.432440   2.986885   3.559305
    16  C    3.131969   3.079113   4.099494   3.620973   4.550406
    17  H    2.109416   3.532797   4.142852   4.459142   5.883551
    18  H    1.022838   2.047675   2.287136   2.778636   4.088595
    19  H    2.922295   2.194767   3.083778   1.110863   2.185575
    20  H    2.759214   2.195602   2.533779   1.110694   2.174724
    21  H    4.728938   3.493999   3.692767   2.186025   1.112021
    22  H    4.114770   2.795387   2.449316   2.176436   1.112944
    23  H    4.708817   3.389267   3.889641   2.840088   2.171708
    24  H    5.408482   3.918997   3.905972   3.501015   2.181424
    25  H    4.674939   3.444613   3.585717   3.960646   3.501202
    26  H    4.006074   2.694597   2.293577   3.343269   2.826648
    27  H    4.160126   4.132506   5.171842   4.471231   5.326989
                   11         12         13         14         15
    11  C    0.000000
    12  C    1.543781   0.000000
    13  C    2.559923   1.553241   0.000000
    14  H    3.505989   2.171445   1.115329   0.000000
    15  N    2.965416   2.449572   1.467319   2.121796   0.000000
    16  C    4.193057   3.669634   2.385898   2.695890   1.292037
    17  H    6.284172   5.600404   4.102408   3.961476   4.275365
    18  H    4.893005   4.477187   3.380816   3.617331   4.119499
    19  H    2.840617   3.367790   2.784104   3.810850   2.639688
    20  H    3.493811   3.947340   3.506764   4.367400   4.003511
    21  H    2.180696   3.505805   3.988388   5.044626   4.279184
    22  H    2.168381   2.838645   3.450811   4.279843   4.337190
    23  H    1.113423   2.181116   2.828767   3.828057   2.641798
    24  H    1.111872   2.186032   3.521392   4.338561   3.971502
    25  H    2.179565   1.112069   2.187896   2.494886   2.681829
    26  H    2.181865   1.110145   2.190708   2.484102   3.411552
    27  H    4.869380   4.492694   3.382149   3.678122   2.056506
                   16         17         18         19         20
    16  C    0.000000
    17  H    3.551083   0.000000
    18  H    4.095072   2.432416   0.000000
    19  H    3.090710   4.451564   3.297852   0.000000
    20  H    4.451410   4.541305   2.558315   1.796954   0.000000
    21  H    5.206064   6.639704   4.853156   2.496762   2.530962
    22  H    5.333179   6.210319   4.147089   3.098248   2.471289
    23  H    3.804635   6.389968   5.308711   2.690115   3.849613
    24  H    5.233092   7.345516   5.844303   3.863333   4.330571
    25  H    3.891693   6.247002   5.429778   4.199930   5.003928
    26  H    4.534177   5.879526   4.499753   4.035252   4.152232
    27  H    1.100877   4.282440   5.087430   3.749454   5.290074
                   21         22         23         24         25
    21  H    0.000000
    22  H    1.799244   0.000000
    23  H    2.467585   3.084239   0.000000
    24  H    2.541405   2.467049   1.794374   0.000000
    25  H    4.337063   3.841203   2.488591   2.518043   0.000000
    26  H    3.851410   2.667595   3.098017   2.499738   1.794937
    27  H    5.843085   6.207837   4.265028   5.855071   4.542679
                   26         27
    26  H    0.000000
    27  H    5.445978   0.000000
 Symmetry turned off by external request.
 Stoichiometry    C9H13N3O2
 Framework group  C1[X(C9H13N3O2)]
 Deg. of freedom    75
 Full point group                 C1      NOp   1
 Rotational constants (GHZ):           1.6601788           0.4013924           0.3721401
 Standard basis: 6-31G(d) (6D, 7F)
   236 basis functions,   444 primitive gaussians,   236 cartesian basis functions
    52 alpha electrons       52 beta electrons
       nuclear repulsion energy       921.1669090419 Hartrees.
 NAtoms=   27 NActive=   27 NUniq=   27 SFac= 1.00D+00 NAtFMM=   60 NAOKFM=F Big=F
 Integral buffers will be    131072 words long.
 Raffenetti 1 integral format.
 Two-electron integral symmetry is turned off.
 One-electron integrals computed using PRISM.
 NBasis=   236 RedAO= T EigKep=  1.69D-03  NBF=   236
 NBsUse=   236 1.00D-06 EigRej= -1.00D+00 NBFU=   236
 ExpMin= 1.61D-01 ExpMax= 5.48D+03 ExpMxC= 8.25D+02 IAcc=3 IRadAn=         5 AccDes= 0.00D+00
 Harris functional with IExCor=  205 and IRadAn=       5 diagonalized for initial guess.
 HarFok:  IExCor=  205 AccDes= 0.00D+00 IRadAn=         5 IDoV= 1 UseB2=F ITyADJ=14
 ICtDFT=  3500011 ScaDFX=  1.000000  1.000000  1.000000  1.000000
 FoFCou: FMM=F IPFlag=           0 FMFlag=      100000 FMFlg1=           0
         NFxFlg=           0 DoJE=T BraDBF=F KetDBF=T FulRan=T
         wScrn=  0.000000 ICntrl=       500 IOpCl=  0 I1Cent=   200000004 NGrid=           0
         NMat0=    1 NMatS0=      1 NMatT0=    0 NMatD0=    1 NMtDS0=    0 NMtDT0=    0
 Symmetry not used in FoFCou.
 Keep R1 ints in memory in canonical form, NReq=397720213.
 Requested convergence on RMS density matrix=1.00D-08 within 128 cycles.
 Requested convergence on MAX density matrix=1.00D-06.
 Requested convergence on             energy=1.00D-06.
 No special actions if energy rises.
 SCF Done:  E(RHF) =  -661.267253817     A.U. after   17 cycles
            NFock= 17  Conv=0.49D-08     -V/T= 2.0034
 ExpMin= 1.61D-01 ExpMax= 5.48D+03 ExpMxC= 8.25D+02 IAcc=3 IRadAn=         5 AccDes= 0.00D+00
 HarFok:  IExCor=  205 AccDes= 0.00D+00 IRadAn=         5 IDoV=-2 UseB2=F ITyADJ=14
 ICtDFT= 12500011 ScaDFX=  1.000000  1.000000  1.000000  1.000000
 Range of M.O.s used for correlation:    15   236
 NBasis=   236 NAE=    52 NBE=    52 NFC=    14 NFV=     0
 NROrb=    222 NOA=    38 NOB=    38 NVA=   184 NVB=   184
 Fully direct method using O(ONN) memory.
 JobTyp=1 Pass  1:  I=  15 to  52 NPSUse=  4 ParTrn=T ParDer=T DoDerP=T.
 Spin components of T(2) and E(2):
     alpha-alpha T2 =       0.9174837560D-01 E2=     -0.2718019462D+00
     alpha-beta  T2 =       0.5021559839D+00 E2=     -0.1496698363D+01
     beta-beta   T2 =       0.9174837560D-01 E2=     -0.2718019462D+00
 ANorm=    0.1298326898D+01
 E2 =    -0.2040302255D+01 EUMP2 =    -0.66330755607245D+03
          IDoAtm=111111111111111111111111111
          Differentiating once with respect to electric field.
                with respect to dipole field.
          Differentiating once with respect to nuclear coordinates.
 Keep R1 ints in memory in canonical form, NReq=397723379.
          There are     1 degrees of freedom in the 1st order CPHF.  IDoFFX=0 NUNeed=     1.
 LinEq1:  Iter=  0 NonCon=     1 RMS=4.50D-03 Max=1.45D-01 NDo=     1
 AX will form     1 AO Fock derivatives at one time.
 LinEq1:  Iter=  1 NonCon=     1 RMS=1.49D-03 Max=3.46D-02 NDo=     1
 LinEq1:  Iter=  2 NonCon=     1 RMS=6.11D-04 Max=2.19D-02 NDo=     1
 LinEq1:  Iter=  3 NonCon=     1 RMS=2.78D-04 Max=5.48D-03 NDo=     1
 LinEq1:  Iter=  4 NonCon=     1 RMS=8.36D-05 Max=1.32D-03 NDo=     1
 LinEq1:  Iter=  5 NonCon=     1 RMS=3.28D-05 Max=8.98D-04 NDo=     1
 LinEq1:  Iter=  6 NonCon=     1 RMS=1.33D-05 Max=5.92D-04 NDo=     1
 LinEq1:  Iter=  7 NonCon=     1 RMS=5.16D-06 Max=9.83D-05 NDo=     1
 LinEq1:  Iter=  8 NonCon=     1 RMS=2.18D-06 Max=8.45D-05 NDo=     1
 LinEq1:  Iter=  9 NonCon=     1 RMS=7.65D-07 Max=2.47D-05 NDo=     1
 LinEq1:  Iter= 10 NonCon=     1 RMS=3.38D-07 Max=1.44D-05 NDo=     1
 LinEq1:  Iter= 11 NonCon=     1 RMS=1.56D-07 Max=4.90D-06 NDo=     1
 LinEq1:  Iter= 12 NonCon=     1 RMS=6.62D-08 Max=2.28D-06 NDo=     1
 LinEq1:  Iter= 13 NonCon=     1 RMS=2.14D-08 Max=6.58D-07 NDo=     1
 LinEq1:  Iter= 14 NonCon=     1 RMS=8.09D-09 Max=2.04D-07 NDo=     1
 LinEq1:  Iter= 15 NonCon=     1 RMS=3.07D-09 Max=4.71D-08 NDo=     1
 LinEq1:  Iter= 16 NonCon=     1 RMS=1.02D-09 Max=1.93D-08 NDo=     1
 LinEq1:  Iter= 17 NonCon=     1 RMS=2.80D-10 Max=5.73D-09 NDo=     1
 LinEq1:  Iter= 18 NonCon=     1 RMS=1.01D-10 Max=2.54D-09 NDo=     1
 LinEq1:  Iter= 19 NonCon=     0 RMS=3.25D-11 Max=8.15D-10 NDo=     1
 Linear equations converged to 1.000D-10 1.000D-09 after    19 iterations.
 End of Minotr F.D. properties file   721 does not exist.
 End of Minotr F.D. properties file   722 does not exist.
 End of Minotr F.D. properties file   788 does not exist.

 **********************************************************************

            Population analysis using the SCF Density.

 **********************************************************************

 Alpha  occ. eigenvalues --  -20.60776 -20.60752 -15.85055 -15.62139 -15.56836
 Alpha  occ. eigenvalues --  -11.34951 -11.30930 -11.29706 -11.29105 -11.27574
 Alpha  occ. eigenvalues --  -11.24267 -11.23640 -11.23233 -11.22692  -1.59581
 Alpha  occ. eigenvalues --   -1.39293  -1.27908  -1.22635  -1.13578  -1.09053
 Alpha  occ. eigenvalues --   -1.01607  -1.00619  -0.93789  -0.89024  -0.84621
 Alpha  occ. eigenvalues --   -0.81839  -0.78604  -0.77190  -0.73947  -0.71814
 Alpha  occ. eigenvalues --   -0.71180  -0.68979  -0.66844  -0.64427  -0.62923
 Alpha  occ. eigenvalues --   -0.61537  -0.60324  -0.57237  -0.56213  -0.54633
 Alpha  occ. eigenvalues --   -0.53511  -0.51363  -0.50288  -0.48774  -0.47998
 Alpha  occ. eigenvalues --   -0.47665  -0.46144  -0.45442  -0.44277  -0.41956
 Alpha  occ. eigenvalues --   -0.39947  -0.32621
 Alpha virt. eigenvalues --    0.09039   0.10079   0.18477   0.20994   0.22958
 Alpha virt. eigenvalues --    0.24114   0.25006   0.27788   0.28534   0.28884
 Alpha virt. eigenvalues --    0.29090   0.30934   0.31985   0.32476   0.33476
 Alpha virt. eigenvalues --    0.34020   0.34991   0.36818   0.37823   0.38413
 Alpha virt. eigenvalues --    0.40701   0.42069   0.44249   0.45167   0.45657
 Alpha virt. eigenvalues --    0.47069   0.50566   0.53986   0.57326   0.57783
 Alpha virt. eigenvalues --    0.60516   0.68747   0.69450   0.72171   0.73458
 Alpha virt. eigenvalues --    0.74448   0.75913   0.76413   0.78084   0.79069
 Alpha virt. eigenvalues --    0.80015   0.83134   0.84995   0.85901   0.88015
 Alpha virt. eigenvalues --    0.88557   0.89496   0.91239   0.92574   0.92962
 Alpha virt. eigenvalues --    0.94619   0.97010   0.98796   1.00864   1.01606
 Alpha virt. eigenvalues --    1.03958   1.05365   1.06446   1.06681   1.07918
 Alpha virt. eigenvalues --    1.09945   1.10468   1.10727   1.11604   1.12606
 Alpha virt. eigenvalues --    1.12950   1.13618   1.14288   1.15769   1.15971
 Alpha virt. eigenvalues --    1.17017   1.17213   1.18484   1.21095   1.22048
 Alpha virt. eigenvalues --    1.23298   1.23518   1.25101   1.25378   1.26305
 Alpha virt. eigenvalues --    1.27677   1.30054   1.33672   1.34479   1.37054
 Alpha virt. eigenvalues --    1.39823   1.42381   1.45619   1.47177   1.52835
 Alpha virt. eigenvalues --    1.53123   1.55749   1.60285   1.65715   1.67436
 Alpha virt. eigenvalues --    1.68717   1.71253   1.72758   1.74646   1.76994
 Alpha virt. eigenvalues --    1.77957   1.81514   1.86061   1.90000   1.92870
 Alpha virt. eigenvalues --    1.94029   1.98188   1.99617   2.00473   2.03119
 Alpha virt. eigenvalues --    2.03432   2.04438   2.05406   2.09894   2.10291
 Alpha virt. eigenvalues --    2.10988   2.12880   2.17342   2.19678   2.20493
 Alpha virt. eigenvalues --    2.22601   2.23779   2.25722   2.26702   2.29336
 Alpha virt. eigenvalues --    2.30213   2.31413   2.33199   2.34062   2.36485
 Alpha virt. eigenvalues --    2.37709   2.39141   2.42328   2.44057   2.44806
 Alpha virt. eigenvalues --    2.47981   2.49347   2.51227   2.55903   2.57390
 Alpha virt. eigenvalues --    2.60855   2.62905   2.65842   2.68101   2.69383
 Alpha virt. eigenvalues --    2.69986   2.72210   2.74152   2.76170   2.81562
 Alpha virt. eigenvalues --    2.86456   2.86584   2.88954   2.93320   2.95758
 Alpha virt. eigenvalues --    2.97471   3.01230   3.05383   3.06016   3.07820
 Alpha virt. eigenvalues --    3.11605   3.13601   3.19256   3.21956   3.23999
 Alpha virt. eigenvalues --    3.27147   3.32511   3.37254   3.40755   3.59097
 Alpha virt. eigenvalues --    4.16548   4.19155   4.30430   4.34073   4.45794
 Alpha virt. eigenvalues --    4.53869   4.59310   4.60766   4.71373   4.78981
 Alpha virt. eigenvalues --    4.99405   4.99906   5.04603   5.10047
          Condensed to atoms (all electrons):
               1          2          3          4          5          6
     1  O    8.301295   0.300341  -0.079909  -0.083657  -0.000491  -0.000027
     2  N    0.300341   5.781279   0.294663   0.240644  -0.051006   0.001274
     3  O   -0.079909   0.294663   8.311521  -0.090695   0.003525   0.000059
     4  C   -0.083657   0.240644  -0.090695   5.210299   0.608004  -0.053325
     5  C   -0.000491  -0.051006   0.003525   0.608004   4.612585   0.326416
     6  N   -0.000027   0.001274   0.000059  -0.053325   0.326416   7.166122
     7  C    0.000009  -0.000124  -0.000005   0.003123  -0.030584   0.211330
     8  H   -0.000000   0.000002   0.000000  -0.000148   0.002469  -0.048875
     9  C    0.000000  -0.000006   0.000000   0.000446   0.001978  -0.058669
    10  C   -0.000000   0.000000   0.000000  -0.000018  -0.000075   0.003433
    11  C    0.000000  -0.000000  -0.000000  -0.000021   0.000017  -0.000157
    12  C   -0.000000   0.000002   0.000000  -0.000057  -0.000152   0.003546
    13  C   -0.000027  -0.000040   0.000004  -0.009641   0.000887  -0.045995
    14  H   -0.000002  -0.000073   0.000001   0.002478   0.004752  -0.005476
    15  N   -0.000037   0.001932   0.000009  -0.067044  -0.006629   0.003467
    16  C    0.002720  -0.031817   0.002221   0.325679  -0.028401  -0.002503
    17  H    0.000232  -0.002132   0.001106  -0.037067   0.388736  -0.031806
    18  H   -0.000000  -0.000059   0.000005   0.001672  -0.023112   0.327991
    19  H   -0.000000  -0.000000   0.000001  -0.000853   0.000649   0.000695
    20  H   -0.000000  -0.000000   0.000000  -0.000032   0.000029  -0.001346
    21  H    0.000000  -0.000000  -0.000000   0.000000   0.000001  -0.000061
    22  H   -0.000000   0.000000   0.000000  -0.000000  -0.000002  -0.000096
    23  H   -0.000000  -0.000000   0.000000   0.000024   0.000000  -0.000023
    24  H   -0.000000   0.000000   0.000000   0.000000  -0.000000   0.000004
    25  H    0.000000  -0.000000   0.000000   0.000020  -0.000000  -0.000069
    26  H    0.000000  -0.000000   0.000000   0.000004   0.000001  -0.000067
    27  H   -0.000034   0.001015   0.001305  -0.077019   0.001683   0.000039
               7          8          9         10         11         12
     1  O    0.000009  -0.000000   0.000000  -0.000000   0.000000  -0.000000
     2  N   -0.000124   0.000002  -0.000006   0.000000  -0.000000   0.000002
     3  O   -0.000005   0.000000   0.000000   0.000000  -0.000000   0.000000
     4  C    0.003123  -0.000148   0.000446  -0.000018  -0.000021  -0.000057
     5  C   -0.030584   0.002469   0.001978  -0.000075   0.000017  -0.000152
     6  N    0.211330  -0.048875  -0.058669   0.003433  -0.000157   0.003546
     7  C    5.000559   0.415731   0.342185  -0.049606  -0.007586  -0.064621
     8  H    0.415731   0.548805  -0.060816   0.001220  -0.000255  -0.003018
     9  C    0.342185  -0.060816   5.180960   0.317596  -0.053116  -0.005895
    10  C   -0.049606   0.001220   0.317596   5.128107   0.332746  -0.060207
    11  C   -0.007586  -0.000255  -0.053116   0.332746   5.124582   0.330343
    12  C   -0.064621  -0.003018  -0.005895  -0.060207   0.330343   5.138305
    13  C    0.329438  -0.039121  -0.052256  -0.001416  -0.048077   0.367126
    14  H   -0.039922  -0.000950   0.003800  -0.000383   0.003935  -0.040445
    15  N   -0.060460   0.004001  -0.012455   0.001552  -0.007830  -0.073830
    16  C   -0.001442  -0.000066  -0.000360  -0.000061   0.000019   0.002483
    17  H    0.001632  -0.000035  -0.000072   0.000001   0.000000   0.000001
    18  H   -0.029736  -0.002795   0.000632  -0.000112   0.000011  -0.000137
    19  H   -0.035154   0.004087   0.386633  -0.033140  -0.002255   0.000637
    20  H   -0.041377  -0.001759   0.397201  -0.037437   0.004138  -0.000359
    21  H    0.004054  -0.000083  -0.035797   0.399911  -0.035961   0.004229
    22  H   -0.004266   0.003547  -0.045532   0.395796  -0.045617  -0.001280
    23  H    0.000424   0.000034  -0.001979  -0.040192   0.396682  -0.036816
    24  H   -0.000150  -0.000098   0.004377  -0.038488   0.400238  -0.037908
    25  H    0.004994   0.000001  -0.000383   0.004107  -0.034030   0.395350
    26  H   -0.004461   0.001535   0.001049  -0.002403  -0.042187   0.394724
    27  H   -0.000405   0.000009  -0.000055   0.000004   0.000005  -0.000024
              13         14         15         16         17         18
     1  O   -0.000027  -0.000002  -0.000037   0.002720   0.000232  -0.000000
     2  N   -0.000040  -0.000073   0.001932  -0.031817  -0.002132  -0.000059
     3  O    0.000004   0.000001   0.000009   0.002221   0.001106   0.000005
     4  C   -0.009641   0.002478  -0.067044   0.325679  -0.037067   0.001672
     5  C    0.000887   0.004752  -0.006629  -0.028401   0.388736  -0.023112
     6  N   -0.045995  -0.005476   0.003467  -0.002503  -0.031806   0.327991
     7  C    0.329438  -0.039922  -0.060460  -0.001442   0.001632  -0.029736
     8  H   -0.039121  -0.000950   0.004001  -0.000066  -0.000035  -0.002795
     9  C   -0.052256   0.003800  -0.012455  -0.000360  -0.000072   0.000632
    10  C   -0.001416  -0.000383   0.001552  -0.000061   0.000001  -0.000112
    11  C   -0.048077   0.003935  -0.007830   0.000019   0.000000   0.000011
    12  C    0.367126  -0.040445  -0.073830   0.002483   0.000001  -0.000137
    13  C    5.020224   0.403918   0.248432  -0.071238  -0.000046   0.003804
    14  H    0.403918   0.511982  -0.035484  -0.005224   0.000054   0.000015
    15  N    0.248432  -0.035484   6.913920   0.610525  -0.000056  -0.000121
    16  C   -0.071238  -0.005224   0.610525   4.660219   0.001392  -0.000155
    17  H   -0.000046   0.000054  -0.000056   0.001392   0.420259  -0.002193
    18  H    0.003804   0.000015  -0.000121  -0.000155  -0.002193   0.331746
    19  H   -0.006074   0.000059   0.006633   0.002135   0.000011  -0.000110
    20  H    0.003890  -0.000050   0.000079  -0.000034  -0.000002   0.002737
    21  H   -0.000393   0.000009  -0.000035   0.000003  -0.000000  -0.000000
    22  H    0.000333  -0.000042   0.000007  -0.000001   0.000000   0.000003
    23  H   -0.005856   0.000007   0.006718   0.000080   0.000000   0.000000
    24  H    0.004149  -0.000059   0.000035   0.000005   0.000000  -0.000000
    25  H   -0.034703  -0.002653   0.000893  -0.000044  -0.000000   0.000002
    26  H   -0.044502  -0.000903   0.004141  -0.000053   0.000000  -0.000001
    27  H    0.004970  -0.000161  -0.035554   0.404345  -0.000073   0.000002
              19         20         21         22         23         24
     1  O   -0.000000  -0.000000   0.000000  -0.000000  -0.000000  -0.000000
     2  N   -0.000000  -0.000000  -0.000000   0.000000  -0.000000   0.000000
     3  O    0.000001   0.000000  -0.000000   0.000000   0.000000   0.000000
     4  C   -0.000853  -0.000032   0.000000  -0.000000   0.000024   0.000000
     5  C    0.000649   0.000029   0.000001  -0.000002   0.000000  -0.000000
     6  N    0.000695  -0.001346  -0.000061  -0.000096  -0.000023   0.000004
     7  C   -0.035154  -0.041377   0.004054  -0.004266   0.000424  -0.000150
     8  H    0.004087  -0.001759  -0.000083   0.003547   0.000034  -0.000098
     9  C    0.386633   0.397201  -0.035797  -0.045532  -0.001979   0.004377
    10  C   -0.033140  -0.037437   0.399911   0.395796  -0.040192  -0.038488
    11  C   -0.002255   0.004138  -0.035961  -0.045617   0.396682   0.400238
    12  C    0.000637  -0.000359   0.004229  -0.001280  -0.036816  -0.037908
    13  C   -0.006074   0.003890  -0.000393   0.000333  -0.005856   0.004149
    14  H    0.000059  -0.000050   0.000009  -0.000042   0.000007  -0.000059
    15  N    0.006633   0.000079  -0.000035   0.000007   0.006718   0.000035
    16  C    0.002135  -0.000034   0.000003  -0.000001   0.000080   0.000005
    17  H    0.000011  -0.000002  -0.000000   0.000000   0.000000   0.000000
    18  H   -0.000110   0.002737  -0.000000   0.000003   0.000000  -0.000000
    19  H    0.508273  -0.023792  -0.002604   0.003782   0.001665  -0.000071
    20  H   -0.023792   0.549255  -0.002651  -0.002940  -0.000050  -0.000090
    21  H   -0.002604  -0.002651   0.527721  -0.024822  -0.002837  -0.002081
    22  H    0.003782  -0.002940  -0.024822   0.569592   0.004077  -0.003586
    23  H    0.001665  -0.000050  -0.002837   0.004077   0.511524  -0.025097
    24  H   -0.000071  -0.000090  -0.002081  -0.003586  -0.025097   0.542108
    25  H   -0.000027   0.000011  -0.000087  -0.000082  -0.002082  -0.002402
    26  H    0.000024  -0.000035  -0.000073   0.002454   0.003822  -0.002747
    27  H    0.000085   0.000000  -0.000000   0.000000  -0.000020  -0.000000
              25         26         27
     1  O    0.000000   0.000000  -0.000034
     2  N   -0.000000  -0.000000   0.001015
     3  O    0.000000   0.000000   0.001305
     4  C    0.000020   0.000004  -0.077019
     5  C   -0.000000   0.000001   0.001683
     6  N   -0.000069  -0.000067   0.000039
     7  C    0.004994  -0.004461  -0.000405
     8  H    0.000001   0.001535   0.000009
     9  C   -0.000383   0.001049  -0.000055
    10  C    0.004107  -0.002403   0.000004
    11  C   -0.034030  -0.042187   0.000005
    12  C    0.395350   0.394724  -0.000024
    13  C   -0.034703  -0.044502   0.004970
    14  H   -0.002653  -0.000903  -0.000161
    15  N    0.000893   0.004141  -0.035554
    16  C   -0.000044  -0.000053   0.404345
    17  H   -0.000000   0.000000  -0.000073
    18  H    0.000002  -0.000001   0.000002
    19  H   -0.000027   0.000024   0.000085
    20  H    0.000011  -0.000035   0.000000
    21  H   -0.000087  -0.000073  -0.000000
    22  H   -0.000082   0.002454   0.000000
    23  H   -0.002082   0.003822  -0.000020
    24  H   -0.002402  -0.002747  -0.000000
    25  H    0.511925  -0.023196  -0.000011
    26  H   -0.023196   0.560270   0.000001
    27  H   -0.000011   0.000001   0.474930
 Mulliken charges:
               1
     1  O   -0.440412
     2  N    0.464109
     3  O   -0.443809
     4  C    0.027181
     5  C    0.188720
     6  N   -0.795881
     7  C    0.056420
     8  H    0.176579
     9  C   -0.309466
    10  C   -0.320933
    11  C   -0.315622
    12  C   -0.311994
    13  C   -0.027793
    14  H    0.200820
    15  N   -0.502810
    16  C    0.129573
    17  H    0.260058
    18  H    0.389911
    19  H    0.188712
    20  H    0.154614
    21  H    0.171556
    22  H    0.148676
    23  H    0.189895
    24  H    0.161862
    25  H    0.182466
    26  H    0.152606
    27  H    0.224964
 Sum of Mulliken charges =  -0.00000
 Mulliken charges with hydrogens summed into heavy atoms:
               1
     1  O   -0.440412
     2  N    0.464109
     3  O   -0.443809
     4  C    0.027181
     5  C    0.448778
     6  N   -0.405970
     7  C    0.232999
     9  C    0.033860
    10  C   -0.000701
    11  C    0.036136
    12  C    0.023078
    13  C    0.173027
    15  N   -0.502810
    16  C    0.354536
 Electronic spatial extent (au):  <R**2>=           3062.0321
 Charge=             -0.0000 electrons
 Dipole moment (field-independent basis, Debye):
    X=              4.5082    Y=              3.9575    Z=              0.7850  Tot=              6.0500
 Quadrupole moment (field-independent basis, Debye-Ang):
   XX=           -101.0844   YY=            -76.5964   ZZ=            -86.8213
   XY=             -1.6008   XZ=              0.1329   YZ=              2.5679
 Traceless Quadrupole moment (field-independent basis, Debye-Ang):
   XX=            -12.9170   YY=             11.5710   ZZ=              1.3461
   XY=             -1.6008   XZ=              0.1329   YZ=              2.5679
 Octapole moment (field-independent basis, Debye-Ang**2):
  XXX=             74.4689  YYY=             29.2159  ZZZ=             -1.5119  XYY=            -18.3683
  XXY=             14.1421  XXZ=              5.7551  XZZ=              6.5630  YZZ=             -2.3525
  YYZ=              1.6291  XYZ=             -9.6390
 Hexadecapole moment (field-independent basis, Debye-Ang**3):
 XXXX=          -3372.3627 YYYY=           -557.2926 ZZZZ=           -371.0089 XXXY=            -56.7351
 XXXZ=            -14.1637 YYYX=              3.1791 YYYZ=             27.9699 ZZZX=             -0.7088
 ZZZY=             19.2395 XXYY=           -576.8579 XXZZ=           -597.9965 YYZZ=           -166.4199
 XXYZ=             35.8651 YYXZ=             10.8462 ZZXY=              2.1200
 N-N= 9.211669090419D+02 E-N=-3.388479345023D+03  KE= 6.590318540612D+02
 Calling FoFJK, ICntrl=  10002127 FMM=F ISym2X=0 I1Cent= 0 IOpClX= 0 NMat=1 NMatS=1 NMatT=0.
 -------------------------------------------------------------------
 Center     Atomic                   Forces (Hartrees/Bohr)
 Number     Number              X              Y              Z
 -------------------------------------------------------------------
      1        8          -0.014233541   -0.013166750    0.016344025
      2        7           0.032735085    0.015963021    0.004235992
      3        8          -0.015645424    0.000626486   -0.020490095
      4        6           0.011366400    0.009828009    0.007036480
      5        6           0.006526829   -0.022739454   -0.007215890
      6        7           0.021190141   -0.001546713   -0.003139280
      7        6          -0.006996116    0.006392392    0.002841207
      8        1          -0.010254236   -0.001467209   -0.007575032
      9        6          -0.003619003   -0.000163699   -0.001805869
     10        6           0.002757296   -0.000905316    0.000603874
     11        6          -0.000692516   -0.004349094   -0.002419646
     12        6           0.000692880   -0.008895539   -0.003669127
     13        6           0.008330679   -0.000790901    0.002179744
     14        1           0.000520983    0.004400537   -0.010298443
     15        7           0.002154956   -0.005112584    0.004964973
     16        6          -0.013818702    0.016379020    0.005037915
     17        1           0.009479345   -0.004046331   -0.003355118
     18        1          -0.016800838   -0.003034761    0.003464101
     19        1           0.003148624    0.005510079    0.007748082
     20        1          -0.003254432   -0.007624395    0.002379101
     21        1          -0.004119485    0.001888758    0.009772911
     22        1          -0.004070647   -0.003681500   -0.007487200
     23        1           0.003998270    0.005663285    0.009492766
     24        1          -0.009399613    0.002576390   -0.001908493
     25        1          -0.000896606    0.010679462   -0.001956799
     26        1          -0.004857773   -0.004607820   -0.004596422
     27        1           0.005757445    0.002224625   -0.000183757
 -------------------------------------------------------------------
 Cartesian Forces:  Max     0.032735085 RMS     0.008892220

 GradGradGradGradGradGradGradGradGradGradGradGradGradGradGradGradGradGrad
 Berny optimization.
 FormGI is forming the generalized inverse of G from B-inverse, IUseBI=4.
 Internal  Forces:  Max     0.028632301 RMS     0.006112663
 Search for a local minimum.
 Step number   1 out of a maximum of   20
 All quantities printed in internal units (Hartrees-Bohrs-Radians)
 Mixed Optimization -- RFO/linear search
 Second derivative matrix not updated -- first step.
 ITU=  0
     Eigenvalues ---    0.00691   0.00769   0.01099   0.01182   0.01346
     Eigenvalues ---    0.01510   0.01540   0.01670   0.02002   0.02078
     Eigenvalues ---    0.02152   0.02670   0.03655   0.04507   0.04697
     Eigenvalues ---    0.04837   0.05069   0.05139   0.05300   0.05866
     Eigenvalues ---    0.06271   0.07213   0.07700   0.07716   0.07857
     Eigenvalues ---    0.07997   0.08038   0.08049   0.10460   0.11737
     Eigenvalues ---    0.12270   0.13388   0.15161   0.15613   0.15988
     Eigenvalues ---    0.15999   0.20101   0.22049   0.23284   0.24970
     Eigenvalues ---    0.25000   0.25000   0.25313   0.26131   0.26656
     Eigenvalues ---    0.27989   0.28082   0.28421   0.31485   0.31804
     Eigenvalues ---    0.32042   0.32240   0.32290   0.32382   0.32387
     Eigenvalues ---    0.32403   0.32509   0.32527   0.32585   0.33351
     Eigenvalues ---    0.33585   0.34256   0.34923   0.35255   0.43888
     Eigenvalues ---    0.45544   0.49556   0.67312   0.91905   0.92144
     Eigenvalues --- 1000.000001000.000001000.000001000.000001000.00000
     Eigenvalues --- 1000.000001000.000001000.000001000.000001000.00000
     Eigenvalues --- 1000.000001000.000001000.000001000.000001000.00000
     Eigenvalues --- 1000.000001000.000001000.000001000.000001000.00000
     Eigenvalues --- 1000.000001000.000001000.000001000.000001000.00000
     Eigenvalues --- 1000.000001000.000001000.000001000.000001000.00000
     Eigenvalues --- 1000.000001000.000001000.000001000.000001000.00000
     Eigenvalues --- 1000.000001000.000001000.000001000.000001000.00000
     Eigenvalues --- 1000.000001000.000001000.000001000.000001000.00000
     Eigenvalues --- 1000.000001000.000001000.000001000.000001000.00000
     Eigenvalues --- 1000.000001000.000001000.000001000.000001000.00000
     Eigenvalues --- 1000.000001000.000001000.000001000.000001000.00000
     Eigenvalues --- 1000.000001000.000001000.000001000.000001000.00000
     Eigenvalues --- 1000.000001000.000001000.000001000.000001000.00000
     Eigenvalues --- 1000.000001000.000001000.000001000.000001000.00000
     Eigenvalues --- 1000.000001000.000001000.000001000.000001000.00000
     Eigenvalues --- 1000.000001000.000001000.000001000.000001000.00000
     Eigenvalues --- 1000.000001000.000001000.000001000.000001000.00000
     Eigenvalues --- 1000.00000
 RFO step:  Lambda=-1.98060065D-02 EMin= 6.90622080D-03
 Linear search not attempted -- first point.
 Iteration  1 RMS(Cart)=  0.05203592 RMS(Int)=  0.00287222
 Iteration  2 RMS(Cart)=  0.00294138 RMS(Int)=  0.00102712
 Iteration  3 RMS(Cart)=  0.00002161 RMS(Int)=  0.00102698
 Iteration  4 RMS(Cart)=  0.00000012 RMS(Int)=  0.00102698
 Iteration  1 RMS(Cart)=  0.00006092 RMS(Int)=  0.00003787
 Iteration  2 RMS(Cart)=  0.00002826 RMS(Int)=  0.00004218
 Iteration  3 RMS(Cart)=  0.00001361 RMS(Int)=  0.00004655
 Iteration  4 RMS(Cart)=  0.00000705 RMS(Int)=  0.00004902
 Iteration  5 RMS(Cart)=  0.00000416 RMS(Int)=  0.00005035
 Iteration  6 RMS(Cart)=  0.00000287 RMS(Int)=  0.00005113
 Iteration  7 RMS(Cart)=  0.00000224 RMS(Int)=  0.00005164
 Iteration  8 RMS(Cart)=  0.00000188 RMS(Int)=  0.00005201
 Iteration  9 RMS(Cart)=  0.00000161 RMS(Int)=  0.00005230
 Iteration 10 RMS(Cart)=  0.00000140 RMS(Int)=  0.00005255
 Iteration 11 RMS(Cart)=  0.00000123 RMS(Int)=  0.00005277
 Iteration 12 RMS(Cart)=  0.00000108 RMS(Int)=  0.00005297
 Iteration 13 RMS(Cart)=  0.00000094 RMS(Int)=  0.00005314
 Variable       Old X    -DE/DX   Delta X   Delta X   Delta X     New X
                                 (Linear)    (Quad)   (Total)
    R1        2.31960   0.02438   0.00000   0.02590   0.02590   2.34551
    R2        2.32067   0.02475   0.00000   0.02636   0.02636   2.34703
    R3        2.79100  -0.00338   0.00000  -0.00917  -0.00917   2.78183
    R4        2.62922  -0.02863   0.00000  -0.06082  -0.06065   2.56857
    R5        2.78701  -0.01876   0.00000  -0.05380  -0.05372   2.73329
    R6        2.58855  -0.01695   0.00000  -0.03240  -0.03227   2.55628
    R7        2.08440  -0.01020   0.00000  -0.02888  -0.02888   2.05553
    R8        2.82755  -0.02125   0.00000  -0.05857  -0.05857   2.76898
    R9        1.93288  -0.00708   0.00000  -0.01544  -0.01544   1.91744
   R10        2.11796  -0.01194   0.00000  -0.03568  -0.03568   2.08228
   R11        2.92745  -0.01267   0.00000  -0.04340  -0.04339   2.88406
   R12        2.90771  -0.00420   0.00000  -0.00888  -0.00889   2.89882
   R13        2.91148  -0.00456   0.00000  -0.01431  -0.01434   2.89714
   R14        2.09923  -0.00980   0.00000  -0.02842  -0.02842   2.07080
   R15        2.09891  -0.00819   0.00000  -0.02372  -0.02372   2.07519
   R16        2.90433  -0.00205   0.00000  -0.00767  -0.00776   2.89657
   R17        2.10141  -0.01052   0.00000  -0.03060  -0.03060   2.07081
   R18        2.10316  -0.00900   0.00000  -0.02625  -0.02625   2.07691
   R19        2.91732  -0.00919   0.00000  -0.02980  -0.02981   2.88751
   R20        2.10406  -0.01159   0.00000  -0.03387  -0.03387   2.07020
   R21        2.10113  -0.00990   0.00000  -0.02880  -0.02880   2.07233
   R22        2.93520  -0.01052   0.00000  -0.03667  -0.03664   2.89856
   R23        2.10151  -0.01074   0.00000  -0.03125  -0.03125   2.07025
   R24        2.09787  -0.00792   0.00000  -0.02292  -0.02292   2.07495
   R25        2.10767  -0.00958   0.00000  -0.02817  -0.02817   2.07950
   R26        2.77283  -0.00710   0.00000  -0.01641  -0.01660   2.75624
   R27        2.44160  -0.00369   0.00000  -0.00569  -0.00577   2.43583
   R28        2.08036  -0.00414   0.00000  -0.01164  -0.01164   2.06871
    A1        2.21131  -0.00818   0.00000  -0.02658  -0.03403   2.17727
    A2        2.03413   0.00378   0.00000   0.01774   0.01039   2.04452
    A3        2.03570   0.00507   0.00000   0.02251   0.01515   2.05085
    A4        1.99668   0.00105   0.00000   0.00756   0.00677   2.00346
    A5        2.01225  -0.00159   0.00000  -0.00224  -0.00303   2.00922
    A6        2.27288   0.00050   0.00000  -0.00846  -0.00869   2.26419
    A7        2.18116   0.01110   0.00000   0.04072   0.04110   2.22226
    A8        2.06452  -0.00260   0.00000  -0.00368  -0.00390   2.06062
    A9        2.03638  -0.00846   0.00000  -0.03643  -0.03667   1.99971
   A10        2.25015  -0.00696   0.00000  -0.02326  -0.02303   2.22712
   A11        2.11239  -0.01095   0.00000  -0.06746  -0.06774   2.04464
   A12        1.87195   0.01783   0.00000   0.09664   0.09666   1.96861
   A13        1.83743  -0.00195   0.00000  -0.01732  -0.01710   1.82033
   A14        2.00459  -0.00066   0.00000  -0.01177  -0.01192   1.99267
   A15        1.97239   0.00129   0.00000  -0.00116  -0.00167   1.97072
   A16        1.85282   0.00272   0.00000   0.02456   0.02439   1.87720
   A17        1.84876   0.00112   0.00000   0.02324   0.02314   1.87190
   A18        1.93387  -0.00219   0.00000  -0.01229  -0.01201   1.92186
   A19        1.91029   0.00059   0.00000  -0.00379  -0.00390   1.90640
   A20        1.92172  -0.00071   0.00000  -0.01366  -0.01364   1.90808
   A21        1.92303  -0.00195   0.00000  -0.00780  -0.00784   1.91519
   A22        1.91932  -0.00056   0.00000   0.00512   0.00506   1.92438
   A23        1.90482   0.00298   0.00000   0.02610   0.02611   1.93094
   A24        1.88446  -0.00033   0.00000  -0.00556  -0.00583   1.87863
   A25        1.94085  -0.00102   0.00000   0.00555   0.00538   1.94624
   A26        1.91876  -0.00051   0.00000  -0.00626  -0.00626   1.91249
   A27        1.90488   0.00027   0.00000  -0.00297  -0.00302   1.90186
   A28        1.91604   0.00069   0.00000   0.00726   0.00731   1.92335
   A29        1.89852   0.00183   0.00000   0.01136   0.01141   1.90993
   A30        1.88375  -0.00125   0.00000  -0.01546  -0.01555   1.86820
   A31        1.94460   0.00070   0.00000   0.00555   0.00575   1.95035
   A32        1.90250   0.00056   0.00000   0.00631   0.00622   1.90872
   A33        1.91717   0.00044   0.00000   0.00562   0.00558   1.92276
   A34        1.90705  -0.00128   0.00000  -0.01531  -0.01538   1.89167
   A35        1.91524  -0.00040   0.00000   0.00040   0.00029   1.91552
   A36        1.87592  -0.00006   0.00000  -0.00298  -0.00300   1.87292
   A37        1.94599  -0.00287   0.00000  -0.02004  -0.02008   1.92590
   A38        1.90632   0.00235   0.00000   0.01649   0.01628   1.92260
   A39        1.91135   0.00150   0.00000   0.01511   0.01513   1.92648
   A40        1.90637   0.00026   0.00000  -0.00331  -0.00312   1.90324
   A41        1.91207  -0.00035   0.00000  -0.00438  -0.00431   1.90776
   A42        1.88056  -0.00082   0.00000  -0.00332  -0.00353   1.87704
   A43        1.84535   0.00483   0.00000   0.02540   0.02546   1.87081
   A44        1.93451  -0.00427   0.00000  -0.02975  -0.03032   1.90419
   A45        1.99170   0.00105   0.00000   0.01208   0.01232   2.00402
   A46        1.88131   0.00234   0.00000   0.03355   0.03381   1.91512
   A47        1.89102  -0.00457   0.00000  -0.03195  -0.03202   1.85900
   A48        1.91518   0.00083   0.00000  -0.00656  -0.00633   1.90885
   A49        2.08658  -0.00626   0.00000  -0.01685  -0.01698   2.06961
   A50        2.23695   0.00045   0.00000  -0.00268  -0.00284   2.23411
   A51        1.98159   0.00353   0.00000   0.02188   0.02149   2.00309
   A52        2.06443  -0.00401   0.00000  -0.02008  -0.02044   2.04399
    D1       -1.62115  -0.00551   0.00000  -0.05812  -0.05830  -1.67945
    D2        1.57080  -0.00478   0.00000   0.00000   0.00000   1.57080
    D3        1.45637   0.00454   0.00000   0.15439   0.15377   1.61014
    D4       -1.63487   0.00527   0.00000   0.21251   0.21208  -1.42279
    D5        3.07806   0.00100   0.00000   0.03903   0.03890   3.11695
    D6       -0.01089   0.00039   0.00000   0.02595   0.02567   0.01478
    D7       -0.12318   0.00007   0.00000  -0.02947  -0.02948  -0.15266
    D8        3.07106  -0.00055   0.00000  -0.04255  -0.04270   3.02836
    D9       -2.80357  -0.00047   0.00000  -0.04504  -0.04507  -2.84865
   D10        0.36083   0.00083   0.00000   0.00225   0.00264   0.36347
   D11        0.39809   0.00039   0.00000   0.02369   0.02322   0.42131
   D12       -2.72069   0.00170   0.00000   0.07098   0.07093  -2.64976
   D13       -0.03678  -0.00016   0.00000   0.01161   0.01183  -0.02495
   D14        2.73062   0.00299   0.00000   0.05185   0.05142   2.78204
   D15        3.05294   0.00059   0.00000   0.02535   0.02546   3.07839
   D16       -0.46286   0.00374   0.00000   0.06559   0.06505  -0.39780
   D17       -2.55661  -0.00074   0.00000  -0.00750  -0.00719  -2.56380
   D18        1.69520  -0.00245   0.00000  -0.01998  -0.01963   1.67557
   D19       -0.54682   0.00008   0.00000   0.00937   0.00940  -0.53742
   D20        0.91914   0.00069   0.00000  -0.01856  -0.01883   0.90031
   D21       -1.11223  -0.00102   0.00000  -0.03104  -0.03127  -1.14350
   D22        2.92893   0.00151   0.00000  -0.00169  -0.00223   2.92670
   D23        2.94070   0.00220   0.00000   0.03203   0.03192   2.97262
   D24       -1.23070   0.00143   0.00000   0.02731   0.02720  -1.20350
   D25        0.84602  -0.00064   0.00000   0.00708   0.00706   0.85308
   D26        0.91816   0.00317   0.00000   0.04368   0.04371   0.96186
   D27        3.02994   0.00240   0.00000   0.03896   0.03900   3.06893
   D28       -1.17653   0.00033   0.00000   0.01873   0.01885  -1.15768
   D29       -1.08133   0.00143   0.00000   0.00886   0.00885  -1.07249
   D30        1.03045   0.00066   0.00000   0.00414   0.00413   1.03458
   D31        3.10717  -0.00140   0.00000  -0.01609  -0.01601   3.09116
   D32       -2.89734  -0.00095   0.00000  -0.01562  -0.01536  -2.91271
   D33       -0.86328   0.00239   0.00000   0.02343   0.02324  -0.84004
   D34        1.30939   0.00087   0.00000   0.00000   0.00001   1.30939
   D35       -0.89434  -0.00197   0.00000  -0.02307  -0.02291  -0.91726
   D36        1.13972   0.00137   0.00000   0.01597   0.01569   1.15541
   D37       -2.97080  -0.00015   0.00000  -0.00745  -0.00754  -2.97834
   D38        1.10769   0.00078   0.00000   0.01257   0.01272   1.12041
   D39       -3.14143   0.00412   0.00000   0.05162   0.05132  -3.09011
   D40       -0.96877   0.00260   0.00000   0.02819   0.02809  -0.94068
   D41        0.95666   0.00089   0.00000   0.00000   0.00001   0.95667
   D42        3.08234   0.00074   0.00000   0.00861   0.00856   3.09090
   D43       -1.13786  -0.00093   0.00000  -0.01564  -0.01561  -1.15347
   D44       -1.15657   0.00175   0.00000   0.01609   0.01616  -1.14041
   D45        0.96911   0.00160   0.00000   0.02469   0.02471   0.99382
   D46        3.03210  -0.00007   0.00000   0.00044   0.00054   3.03263
   D47        3.06246   0.00070   0.00000   0.00420   0.00418   3.06664
   D48       -1.09505   0.00055   0.00000   0.01281   0.01273  -1.08232
   D49        0.96794  -0.00111   0.00000  -0.01144  -0.01144   0.95650
   D50       -0.92192  -0.00059   0.00000   0.00000   0.00001  -0.92191
   D51        1.18401  -0.00137   0.00000  -0.01141  -0.01142   1.17258
   D52       -3.04801  -0.00086   0.00000  -0.00807  -0.00812  -3.05614
   D53       -3.04919   0.00026   0.00000  -0.00073  -0.00070  -3.04988
   D54       -0.94325  -0.00052   0.00000  -0.01214  -0.01213  -0.95538
   D55        1.10791  -0.00001   0.00000  -0.00880  -0.00883   1.09908
   D56        1.17636   0.00030   0.00000   0.00711   0.00715   1.18351
   D57       -3.00089  -0.00048   0.00000  -0.00431  -0.00429  -3.00518
   D58       -0.94972   0.00003   0.00000  -0.00097  -0.00099  -0.95071
   D59        0.99055  -0.00100   0.00000  -0.01146  -0.01153   0.97902
   D60        3.09905  -0.00095   0.00000  -0.01745  -0.01764   3.08141
   D61       -1.12849   0.00030   0.00000  -0.00305  -0.00304  -1.13153
   D62       -1.11271  -0.00130   0.00000  -0.01274  -0.01274  -1.12545
   D63        0.99579  -0.00125   0.00000  -0.01874  -0.01886   0.97693
   D64        3.05143  -0.00000   0.00000  -0.00434  -0.00425   3.04718
   D65        3.11776  -0.00024   0.00000  -0.00037  -0.00037   3.11738
   D66       -1.05693  -0.00019   0.00000  -0.00637  -0.00649  -1.06342
   D67        0.99872   0.00106   0.00000   0.00803   0.00811   1.00683
   D68       -1.05749  -0.00008   0.00000  -0.00266  -0.00259  -1.06008
   D69       -3.12727   0.00122   0.00000   0.00208   0.00161  -3.12566
   D70        1.08449   0.00144   0.00000   0.00878   0.00864   1.09313
   D71        3.11722  -0.00136   0.00000  -0.00825  -0.00807   3.10916
   D72        1.04744  -0.00006   0.00000  -0.00350  -0.00387   1.04358
   D73       -1.02398   0.00016   0.00000   0.00320   0.00316  -1.02082
   D74        1.06113  -0.00031   0.00000   0.00025   0.00048   1.06160
   D75       -1.00865   0.00098   0.00000   0.00500   0.00467  -1.00398
   D76       -3.08008   0.00121   0.00000   0.01170   0.01170  -3.06838
   D77       -1.17217   0.00383   0.00000   0.00000   0.00001  -1.17216
   D78        3.06064   0.00024   0.00000  -0.01750  -0.01735   3.04329
   D79        1.01078  -0.00039   0.00000  -0.03570  -0.03601   0.97477
   D80        0.21113  -0.00144   0.00000  -0.00959  -0.00979   0.20134
   D81       -2.95421  -0.00271   0.00000  -0.05834  -0.05799  -3.01220
         Item               Value     Threshold  Converged?
 Maximum Force            0.028389     0.000450     NO 
 RMS     Force            0.006146     0.000300     NO 
 Maximum Displacement     0.273219     0.001800     NO 
 RMS     Displacement     0.052982     0.001200     NO 
 Predicted change in Energy=-1.157549D-02
 GradGradGradGradGradGradGradGradGradGradGradGradGradGradGradGradGradGrad

                          Input orientation:                          
 ---------------------------------------------------------------------
 Center     Atomic      Atomic             Coordinates (Angstroms)
 Number     Number       Type             X           Y           Z
 ---------------------------------------------------------------------
      1          8           0       -3.702580   -0.686564    0.868700
      2          7           0       -3.124209   -0.215132   -0.123160
      3          8           0       -3.643260   -0.068311   -1.241903
      4          6           0       -1.672589    0.003349   -0.013229
      5          6           0       -1.310772    1.269123    0.325014
      6          7           0       -0.057548    1.739666    0.519643
      7          6           0        1.200414    0.992459    0.440491
      8          1           0        1.848354    1.469962    1.193042
      9          6           0        1.906311    1.098290   -0.908481
     10          6           0        3.307679    0.487112   -0.794344
     11          6           0        3.252329   -0.951327   -0.267757
     12          6           0        2.458574   -1.047364    1.034367
     13          6           0        1.046561   -0.480237    0.841273
     14          1           0        0.489752   -0.539363    1.788583
     15          7           0        0.394800   -1.321384   -0.156228
     16          6           0       -0.850823   -1.116425   -0.416803
     17          1           0       -2.099521    1.998036    0.497453
     18          1           0        0.076231    2.743085    0.450343
     19          1           0        1.320921    0.566246   -1.666817
     20          1           0        1.967107    2.151467   -1.213504
     21          1           0        3.800445    0.513162   -1.772781
     22          1           0        3.911568    1.102866   -0.113110
     23          1           0        2.771039   -1.592983   -1.013921
     24          1           0        4.267323   -1.336326   -0.112309
     25          1           0        2.383456   -2.092381    1.354494
     26          1           0        2.966683   -0.491978    1.833753
     27          1           0       -1.348224   -1.837068   -1.073818
 ---------------------------------------------------------------------
                    Distance matrix (angstroms):
                    1          2          3          4          5
     1  O    0.000000
     2  N    1.241189   0.000000
     3  O    2.200092   1.241996   0.000000
     4  C    2.318328   1.472081   2.323428   0.000000
     5  C    3.137045   2.385881   3.111986   1.359229   0.000000
     6  N    4.392573   3.693081   4.385106   2.430454   1.352724
     7  C    5.200176   4.525300   5.236111   3.072189   2.529018
     8  H    5.963948   5.412792   6.201053   4.000385   3.282360
     9  C    6.148475   5.258131   5.680657   3.848233   3.449684
    10  C    7.299792   6.504831   6.987443   5.064310   4.816077
    11  C    7.052119   6.420524   7.019816   5.023047   5.109174
    12  C    6.173932   5.761940   6.585767   4.389528   4.480766
    13  C    4.753700   4.289025   5.148177   2.890987   2.980571
    14  H    4.294590   4.101293   5.146603   2.866493   2.941861
    15  N    4.271065   3.688945   4.365181   2.459565   3.138677
    16  C    3.157501   2.463095   3.094678   1.446396   2.540213
    17  H    3.148762   2.516597   3.110994   2.102819   1.087738
    18  H    5.120247   4.395768   4.960066   3.283203   2.027819
    19  H    5.764889   4.769970   5.022580   3.465877   3.374498
    20  H    6.673481   5.719365   6.033609   4.393456   3.726937
    21  H    8.044386   7.155592   7.485231   5.771484   5.576446
    22  H    7.882973   7.158169   7.727953   5.692251   5.243322
    23  H    6.802470   6.119304   6.596956   4.826539   5.161935
    24  H    8.056297   7.476091   8.090807   6.089917   6.172095
    25  H    6.265154   6.003491   6.867273   4.765947   5.099692
    26  H    6.741533   6.403524   7.302773   5.017921   4.865634
    27  H    3.261906   2.586224   2.902403   2.148766   3.406839
                    6          7          8          9         10
     6  N    0.000000
     7  C    1.465282   0.000000
     8  H    2.039281   1.101893   0.000000
     9  C    2.511502   1.526177   2.134924   0.000000
    10  C    3.823638   2.494146   2.654304   1.533101   0.000000
    11  C    4.337825   2.913808   3.157169   2.534408   1.532796
    12  C    3.789901   2.469116   2.595087   2.946775   2.533729
    13  C    2.500095   1.533992   2.137730   2.508497   2.953584
    14  H    2.665281   2.160757   2.497570   3.458714   3.958014
    15  N    3.167246   2.521698   3.424173   2.950487   3.487509
    16  C    3.108613   3.064297   4.070203   3.570504   4.472920
    17  H    2.058373   3.450217   4.043318   4.339687   5.761028
    18  H    1.014666   2.080522   2.304964   2.810862   4.132906
    19  H    2.838609   2.153352   3.045272   1.095822   2.171331
    20  H    2.696777   2.160282   2.504000   1.098142   2.177821
    21  H    4.652271   3.447965   3.677259   2.162668   1.095826
    22  H    4.069370   2.769300   2.469341   2.157242   1.099052
    23  H    4.632415   3.356589   3.886343   2.828749   2.159396
    24  H    5.344679   3.890342   3.928181   3.483622   2.170487
    25  H    4.619531   3.428007   3.605924   3.940699   3.482166
    26  H    3.981595   2.695263   2.347420   3.342632   2.825206
    27  H    4.122862   4.098160   5.127691   4.385848   5.211271
                   11         12         13         14         15
    11  C    0.000000
    12  C    1.528004   0.000000
    13  C    2.513420   1.533851   0.000000
    14  H    3.468439   2.168678   1.100422   0.000000
    15  N    2.883549   2.398284   1.458537   2.098300   0.000000
    16  C    4.109176   3.614246   2.363801   2.644592   1.288986
    17  H    6.158456   5.508082   4.019687   3.848343   4.203271
    18  H    4.924626   4.514880   3.388830   3.568802   4.121810
    19  H    2.826788   3.345801   2.731467   3.721962   2.588962
    20  H    3.489063   3.940429   3.463434   4.293678   3.956093
    21  H    2.170313   3.480796   3.924792   4.975118   4.192519
    22  H    2.162919   2.837496   3.409593   4.245253   4.271593
    23  H    1.095501   2.142619   2.766545   3.764095   2.540849
    24  H    1.096632   2.161004   3.466340   4.303322   3.872801
    25  H    2.165327   1.095530   2.156315   2.487250   2.613708
    26  H    2.170008   1.098019   2.161486   2.477796   3.355968
    27  H    4.753878   4.422645   3.353142   3.640815   2.036181
                   16         17         18         19         20
    16  C    0.000000
    17  H    3.477783   0.000000
    18  H    4.062903   2.300264   0.000000
    19  H    3.018342   4.293427   3.281806   0.000000
    20  H    4.388004   4.414564   2.587240   1.770868   0.000000
    21  H    5.111607   6.493720   4.876946   2.482354   2.521500
    22  H    5.262875   6.107971   4.209229   3.068129   2.468068
    23  H    3.701560   6.237148   5.311077   2.681675   3.834976
    24  H    5.131909   7.212938   5.875663   3.836346   4.320685
    25  H    3.814518   6.128875   5.433461   4.162403   4.977771
    26  H    4.475298   5.801059   4.553478   4.010281   4.156047
    27  H    1.094716   4.212050   5.032886   3.640316   5.188385
                   21         22         23         24         25
    21  H    0.000000
    22  H    1.764825   0.000000
    23  H    2.464019   3.062657   0.000000
    24  H    2.528981   2.464999   1.765684   0.000000
    25  H    4.310054   3.833874   2.451328   2.504413   0.000000
    26  H    3.835694   2.688235   3.059368   2.488321   1.769501
    27  H    5.702711   6.101769   4.126923   5.719231   4.459520
                   26         27
    26  H    0.000000
    27  H    5.374166   0.000000
 Symmetry turned off by external request.
 Stoichiometry    C9H13N3O2
 Framework group  C1[X(C9H13N3O2)]
 Deg. of freedom    75
 Full point group                 C1      NOp   1
 Rotational constants (GHZ):           1.6606005           0.4116330           0.3825061
 Standard basis: 6-31G(d) (6D, 7F)
   236 basis functions,   444 primitive gaussians,   236 cartesian basis functions
    52 alpha electrons       52 beta electrons
       nuclear repulsion energy       929.9346766981 Hartrees.
 NAtoms=   27 NActive=   27 NUniq=   27 SFac= 1.00D+00 NAtFMM=   60 NAOKFM=F Big=F
 Integral buffers will be    131072 words long.
 Raffenetti 1 integral format.
 Two-electron integral symmetry is turned off.
 One-electron integrals computed using PRISM.
 NBasis=   236 RedAO= T EigKep=  1.53D-03  NBF=   236
 NBsUse=   236 1.00D-06 EigRej= -1.00D+00 NBFU=   236
 Initial guess from the checkpoint file:  "/home/alexey/tmp/Gau-1067242.chk"
 B after Tr=     0.034191   -0.009704   -0.002826
         Rot=    0.999992    0.002612    0.002364   -0.001732 Ang=   0.45 deg.
 ExpMin= 1.61D-01 ExpMax= 5.48D+03 ExpMxC= 8.25D+02 IAcc=3 IRadAn=         5 AccDes= 0.00D+00
 Harris functional with IExCor=  205 and IRadAn=       5 diagonalized for initial guess.
 HarFok:  IExCor=  205 AccDes= 0.00D+00 IRadAn=         5 IDoV= 1 UseB2=F ITyADJ=14
 ICtDFT=  3500011 ScaDFX=  1.000000  1.000000  1.000000  1.000000
 FoFCou: FMM=F IPFlag=           0 FMFlag=      100000 FMFlg1=           0
         NFxFlg=           0 DoJE=T BraDBF=F KetDBF=T FulRan=T
         wScrn=  0.000000 ICntrl=       500 IOpCl=  0 I1Cent=   200000004 NGrid=           0
         NMat0=    1 NMatS0=      1 NMatT0=    0 NMatD0=    1 NMtDS0=    0 NMtDT0=    0
 Symmetry not used in FoFCou.
 Keep R1 ints in memory in canonical form, NReq=397720213.
 Requested convergence on RMS density matrix=1.00D-08 within 128 cycles.
 Requested convergence on MAX density matrix=1.00D-06.
 Requested convergence on             energy=1.00D-06.
 No special actions if energy rises.
 SCF Done:  E(RHF) =  -661.277707408     A.U. after   16 cycles
            NFock= 16  Conv=0.57D-08     -V/T= 2.0025
 ExpMin= 1.61D-01 ExpMax= 5.48D+03 ExpMxC= 8.25D+02 IAcc=3 IRadAn=         5 AccDes= 0.00D+00
 HarFok:  IExCor=  205 AccDes= 0.00D+00 IRadAn=         5 IDoV=-2 UseB2=F ITyADJ=14
 ICtDFT= 12500011 ScaDFX=  1.000000  1.000000  1.000000  1.000000
 Range of M.O.s used for correlation:    15   236
 NBasis=   236 NAE=    52 NBE=    52 NFC=    14 NFV=     0
 NROrb=    222 NOA=    38 NOB=    38 NVA=   184 NVB=   184
 Fully direct method using O(ONN) memory.
 JobTyp=1 Pass  1:  I=  15 to  52 NPSUse=  4 ParTrn=T ParDer=T DoDerP=T.
 Spin components of T(2) and E(2):
     alpha-alpha T2 =       0.9147622856D-01 E2=     -0.2725382000D+00
     alpha-beta  T2 =       0.4975675212D+00 E2=     -0.1494484879D+01
     beta-beta   T2 =       0.9147622856D-01 E2=     -0.2725382000D+00
 ANorm=    0.1296348710D+01
 E2 =    -0.2039561279D+01 EUMP2 =    -0.66331726868681D+03
          IDoAtm=111111111111111111111111111
          Differentiating once with respect to electric field.
                with respect to dipole field.
          Differentiating once with respect to nuclear coordinates.
 Keep R1 ints in memory in canonical form, NReq=397723379.
          There are     1 degrees of freedom in the 1st order CPHF.  IDoFFX=0 NUNeed=     1.
 LinEq1:  Iter=  0 NonCon=     1 RMS=4.50D-03 Max=1.23D-01 NDo=     1
 AX will form     1 AO Fock derivatives at one time.
 LinEq1:  Iter=  1 NonCon=     1 RMS=1.50D-03 Max=3.28D-02 NDo=     1
 LinEq1:  Iter=  2 NonCon=     1 RMS=6.34D-04 Max=1.76D-02 NDo=     1
 LinEq1:  Iter=  3 NonCon=     1 RMS=2.77D-04 Max=4.22D-03 NDo=     1
 LinEq1:  Iter=  4 NonCon=     1 RMS=8.50D-05 Max=1.32D-03 NDo=     1
 LinEq1:  Iter=  5 NonCon=     1 RMS=3.35D-05 Max=1.04D-03 NDo=     1
 LinEq1:  Iter=  6 NonCon=     1 RMS=1.31D-05 Max=3.47D-04 NDo=     1
[...]
    16  C    0.000000
    17  H    3.471778   0.000000
    18  H    4.101455   2.234191   0.000000
    19  H    2.997886   4.305132   3.558832   0.000000
    20  H    4.382716   4.452235   2.940054   1.767679   0.000000
    21  H    5.098793   6.513750   5.125163   2.499741   2.522434
    22  H    5.250428   6.102295   4.331166   3.070365   2.462411
    23  H    3.690435   6.234354   5.435937   2.705905   3.843909
    24  H    5.129747   7.200710   5.941533   3.850670   4.317938
    25  H    3.819236   6.087977   5.346982   4.175873   4.985929
    26  H    4.490138   5.774410   4.450759   4.032390   4.175925
    27  H    1.094350   4.226421   5.106159   3.607730   5.171016
                   21         22         23         24         25
    21  H    0.000000
    22  H    1.758807   0.000000
    23  H    2.470003   3.062124   0.000000
    24  H    2.516941   2.459580   1.764391   0.000000
    25  H    4.312106   3.836648   2.446626   2.518129   0.000000
    26  H    3.843253   2.698837   3.060599   2.493971   1.767924
    27  H    5.671001   6.074921   4.097589   5.700419   4.455981
                   26         27
    26  H    0.000000
    27  H    5.379869   0.000000
 Symmetry turned off by external request.
 Stoichiometry    C9H13N3O2
 Framework group  C1[X(C9H13N3O2)]
 Deg. of freedom    75
 Full point group                 C1      NOp   1
 Rotational constants (GHZ):           1.6589092           0.4119964           0.3826781

 **********************************************************************

            Population analysis using the SCF Density.

 **********************************************************************

 Alpha  occ. eigenvalues --  -20.60916 -20.60887 -15.84999 -15.62545 -15.56392
 Alpha  occ. eigenvalues --  -11.34348 -11.30260 -11.29082 -11.28624 -11.26928
 Alpha  occ. eigenvalues --  -11.23172 -11.22857 -11.22486 -11.21866  -1.57962
 Alpha  occ. eigenvalues --   -1.37751  -1.29794  -1.23105  -1.14599  -1.09690
 Alpha  occ. eigenvalues --   -1.02419  -1.00888  -0.94519  -0.89822  -0.85106
 Alpha  occ. eigenvalues --   -0.82597  -0.78307  -0.77914  -0.74813  -0.71911
 Alpha  occ. eigenvalues --   -0.71276  -0.68573  -0.66954  -0.65262  -0.63292
 Alpha  occ. eigenvalues --   -0.62057  -0.60212  -0.57317  -0.56731  -0.54887
 Alpha  occ. eigenvalues --   -0.54258  -0.51404  -0.50215  -0.49095  -0.48369
 Alpha  occ. eigenvalues --   -0.47899  -0.46127  -0.45798  -0.43856  -0.41473
 Alpha  occ. eigenvalues --   -0.40016  -0.33054
 Alpha virt. eigenvalues --    0.08901   0.09813   0.17550   0.21289   0.23498
 Alpha virt. eigenvalues --    0.24698   0.26307   0.28160   0.29026   0.29325
 Alpha virt. eigenvalues --    0.29619   0.31766   0.32140   0.32926   0.34164
 Alpha virt. eigenvalues --    0.34566   0.35576   0.37354   0.38781   0.38963
 Alpha virt. eigenvalues --    0.41249   0.42707   0.44422   0.45923   0.47101
 Alpha virt. eigenvalues --    0.48074   0.50988   0.54201   0.56887   0.58839
 Alpha virt. eigenvalues --    0.59321   0.69848   0.70110   0.72839   0.74220
 Alpha virt. eigenvalues --    0.74538   0.75907   0.76385   0.78952   0.79213
 Alpha virt. eigenvalues --    0.79889   0.84079   0.85512   0.86219   0.88431
 Alpha virt. eigenvalues --    0.89648   0.90018   0.91882   0.92804   0.93154
 Alpha virt. eigenvalues --    0.95239   0.97656   0.99652   1.01821   1.02436
 Alpha virt. eigenvalues --    1.04202   1.06225   1.06366   1.07851   1.08250
 Alpha virt. eigenvalues --    1.10354   1.10672   1.11813   1.12177   1.13257
 Alpha virt. eigenvalues --    1.14056   1.14242   1.14948   1.16278   1.16784
 Alpha virt. eigenvalues --    1.17441   1.19121   1.19451   1.21784   1.23319
 Alpha virt. eigenvalues --    1.23726   1.24287   1.25477   1.26799   1.27900
 Alpha virt. eigenvalues --    1.28480   1.31490   1.33545   1.36911   1.37024
 Alpha virt. eigenvalues --    1.41016   1.42788   1.45674   1.50921   1.53153
 Alpha virt. eigenvalues --    1.55638   1.55816   1.61255   1.63806   1.66944
 Alpha virt. eigenvalues --    1.67497   1.70150   1.72754   1.74814   1.75484
 Alpha virt. eigenvalues --    1.80804   1.84925   1.88395   1.91938   1.92338
 Alpha virt. eigenvalues --    1.96543   1.97120   2.00817   2.01474   2.03052
 Alpha virt. eigenvalues --    2.04842   2.05735   2.07832   2.09452   2.10697
 Alpha virt. eigenvalues --    2.11231   2.15573   2.15968   2.20053   2.22540
 Alpha virt. eigenvalues --    2.23851   2.25570   2.28163   2.28548   2.29910
 Alpha virt. eigenvalues --    2.31912   2.33467   2.34247   2.35660   2.38382
 Alpha virt. eigenvalues --    2.39966   2.40029   2.42841   2.45955   2.46774
 Alpha virt. eigenvalues --    2.47969   2.51985   2.53661   2.55256   2.60856
 Alpha virt. eigenvalues --    2.62386   2.64511   2.68772   2.70541   2.71033
 Alpha virt. eigenvalues --    2.72465   2.73752   2.75863   2.78158   2.81435
 Alpha virt. eigenvalues --    2.88439   2.90639   2.92513   2.95008   2.96676
 Alpha virt. eigenvalues --    2.99387   3.02337   3.05488   3.08624   3.09272
 Alpha virt. eigenvalues --    3.12832   3.15163   3.16983   3.21659   3.23760
 Alpha virt. eigenvalues --    3.29827   3.36476   3.38547   3.40553   3.63297
 Alpha virt. eigenvalues --    4.15976   4.16821   4.32491   4.36014   4.48493
 Alpha virt. eigenvalues --    4.56138   4.61303   4.62896   4.73958   4.80074
 Alpha virt. eigenvalues --    5.00561   5.01522   5.06258   5.11116
          Condensed to atoms (all electrons):
               1          2          3          4          5          6
     1  O    8.297215   0.293039  -0.078658  -0.076265   0.000032   0.000002
     2  N    0.293039   5.832809   0.291794   0.231952  -0.053389   0.001325
     3  O   -0.078658   0.291794   8.306638  -0.087147   0.003552   0.000022
     4  C   -0.076265   0.231952  -0.087147   5.166422   0.609103  -0.050077
     5  C    0.000032  -0.053389   0.003552   0.609103   4.620568   0.340359
     6  N    0.000002   0.001325   0.000022  -0.050077   0.340359   7.174128
     7  C    0.000007  -0.000150  -0.000006   0.003410  -0.033221   0.185193
     8  H   -0.000000   0.000002   0.000000  -0.000202   0.003227  -0.049646
     9  C    0.000000  -0.000005  -0.000000   0.000889   0.001072  -0.063860
    10  C   -0.000000   0.000000   0.000000  -0.000040  -0.000068   0.003796
    11  C    0.000000  -0.000000  -0.000000  -0.000036   0.000025  -0.000196
    12  C   -0.000000   0.000002   0.000000  -0.000060  -0.000161   0.003815
    13  C   -0.000023  -0.000056   0.000005  -0.012049   0.000298  -0.049843
    14  H   -0.000009  -0.000102   0.000001   0.002914   0.006767  -0.007053
    15  N   -0.000037   0.002243   0.000034  -0.066123  -0.009017   0.003068
    16  C    0.001255  -0.033522   0.003320   0.331570  -0.033940  -0.003518
    17  H    0.000386  -0.003683   0.001126  -0.035579   0.391384  -0.034543
    18  H    0.000003  -0.000076   0.000001   0.002396  -0.028176   0.337518
    19  H   -0.000000  -0.000005   0.000001  -0.001182   0.000982  -0.000068
    20  H   -0.000000  -0.000000   0.000000  -0.000088   0.000161   0.000064
    21  H    0.000000   0.000000  -0.000000   0.000001   0.000001  -0.000077
    22  H   -0.000000   0.000000   0.000000  -0.000000  -0.000003  -0.000116
    23  H   -0.000000  -0.000000   0.000000   0.000039   0.000000  -0.000030
    24  H   -0.000000   0.000000   0.000000   0.000000  -0.000000   0.000006
    25  H   -0.000000  -0.000000   0.000000   0.000024  -0.000000  -0.000091
    26  H    0.000000  -0.000000   0.000000   0.000005  -0.000002  -0.000052
    27  H   -0.000076   0.000393   0.001608  -0.075907   0.001888   0.000005
               7          8          9         10         11         12
     1  O    0.000007  -0.000000   0.000000  -0.000000   0.000000  -0.000000
     2  N   -0.000150   0.000002  -0.000005   0.000000  -0.000000   0.000002
     3  O   -0.000006   0.000000  -0.000000   0.000000  -0.000000   0.000000
     4  C    0.003410  -0.000202   0.000889  -0.000040  -0.000036  -0.000060
     5  C   -0.033221   0.003227   0.001072  -0.000068   0.000025  -0.000161
     6  N    0.185193  -0.049646  -0.063860   0.003796  -0.000196   0.003815
     7  C    5.004369   0.417776   0.352480  -0.054959  -0.008704  -0.060970
     8  H    0.417776   0.542216  -0.055453   0.000565  -0.000293  -0.002358
     9  C    0.352480  -0.055453   5.156453   0.324275  -0.050279  -0.004962
    10  C   -0.054959   0.000565   0.324275   5.121008   0.336773  -0.061179
    11  C   -0.008704  -0.000293  -0.050279   0.336773   5.120745   0.335874
    12  C   -0.060970  -0.002358  -0.004962  -0.061179   0.335874   5.119929
    13  C    0.339076  -0.037661  -0.063113   0.000280  -0.051209   0.369983
    14  H   -0.046152  -0.000690   0.004387  -0.000393   0.004151  -0.035757
    15  N   -0.059692   0.003846  -0.013813   0.001727  -0.013381  -0.082254
    16  C   -0.001637  -0.000036  -0.000899  -0.000050   0.000038   0.002880
    17  H    0.002186  -0.000079  -0.000080   0.000001   0.000000   0.000001
    18  H   -0.022539  -0.004878   0.001684  -0.000088   0.000003  -0.000119
    19  H   -0.036989   0.004385   0.390983  -0.032869  -0.002255   0.000721
    20  H   -0.041760  -0.001934   0.399115  -0.035409   0.003933  -0.000410
    21  H    0.004587  -0.000079  -0.036175   0.402199  -0.035107   0.004380
    22  H   -0.004828   0.003611  -0.046765   0.397494  -0.045559  -0.001123
    23  H    0.000571   0.000037  -0.001935  -0.039106   0.399320  -0.038156
    24  H   -0.000141  -0.000102   0.004348  -0.038340   0.402237  -0.038733
    25  H    0.005063  -0.000011  -0.000449   0.004219  -0.033665   0.398331
    26  H   -0.003984   0.001660   0.000972  -0.002277  -0.041287   0.396789
    27  H   -0.000417   0.000009  -0.000058   0.000006   0.000013  -0.000042
              13         14         15         16         17         18
     1  O   -0.000023  -0.000009  -0.000037   0.001255   0.000386   0.000003
     2  N   -0.000056  -0.000102   0.002243  -0.033522  -0.003683  -0.000076
     3  O    0.000005   0.000001   0.000034   0.003320   0.001126   0.000001
     4  C   -0.012049   0.002914  -0.066123   0.331570  -0.035579   0.002396
     5  C    0.000298   0.006767  -0.009017  -0.033940   0.391384  -0.028176
     6  N   -0.049843  -0.007053   0.003068  -0.003518  -0.034543   0.337518
     7  C    0.339076  -0.046152  -0.059692  -0.001637   0.002186  -0.022539
     8  H   -0.037661  -0.000690   0.003846  -0.000036  -0.000079  -0.004878
     9  C   -0.063113   0.004387  -0.013813  -0.000899  -0.000080   0.001684
    10  C    0.000280  -0.000393   0.001727  -0.000050   0.000001  -0.000088
    11  C   -0.051209   0.004151  -0.013381   0.000038   0.000000   0.000003
    12  C    0.369983  -0.035757  -0.082254   0.002880   0.000001  -0.000119
    13  C    5.044208   0.403639   0.253759  -0.073241  -0.000024   0.002816
    14  H    0.403639   0.522835  -0.037842  -0.005850   0.000086  -0.000113
    15  N    0.253759  -0.037842   6.928445   0.610863  -0.000072  -0.000135
    16  C   -0.073241  -0.005850   0.610863   4.670071   0.001814  -0.000125
    17  H   -0.000024   0.000086  -0.000072   0.001814   0.427651  -0.003449
    18  H    0.002816  -0.000113  -0.000135  -0.000125  -0.003449   0.317197
    19  H   -0.007416   0.000104   0.007152   0.002565   0.000013  -0.000148
    20  H    0.004423  -0.000067   0.000132  -0.000040   0.000002   0.000563
    21  H   -0.000454   0.000010  -0.000046   0.000004  -0.000000   0.000002
    22  H    0.000060  -0.000053   0.000023  -0.000002   0.000000   0.000000
    23  H   -0.007566   0.000002   0.008406   0.000113   0.000000   0.000000
    24  H    0.004711  -0.000056   0.000127   0.000007   0.000000  -0.000000
    25  H   -0.035779  -0.002803   0.000354  -0.000002  -0.000000   0.000002
    26  H   -0.046994  -0.001025   0.004858  -0.000073   0.000000  -0.000000
    27  H    0.005444  -0.000186  -0.036847   0.406404  -0.000094   0.000001
              19         20         21         22         23         24
     1  O   -0.000000  -0.000000   0.000000  -0.000000  -0.000000  -0.000000
     2  N   -0.000005  -0.000000   0.000000   0.000000  -0.000000   0.000000
     3  O    0.000001   0.000000  -0.000000   0.000000   0.000000   0.000000
     4  C   -0.001182  -0.000088   0.000001  -0.000000   0.000039   0.000000
     5  C    0.000982   0.000161   0.000001  -0.000003   0.000000  -0.000000
     6  N   -0.000068   0.000064  -0.000077  -0.000116  -0.000030   0.000006
     7  C   -0.036989  -0.041760   0.004587  -0.004828   0.000571  -0.000141
     8  H    0.004385  -0.001934  -0.000079   0.003611   0.000037  -0.000102
     9  C    0.390983   0.399115  -0.036175  -0.046765  -0.001935   0.004348
    10  C   -0.032869  -0.035409   0.402199   0.397494  -0.039106  -0.038340
    11  C   -0.002255   0.003933  -0.035107  -0.045559   0.399320   0.402237
    12  C    0.000721  -0.000410   0.004380  -0.001123  -0.038156  -0.038733
    13  C   -0.007416   0.004423  -0.000454   0.000060  -0.007566   0.004711
    14  H    0.000104  -0.000067   0.000010  -0.000053   0.000002  -0.000056
    15  N    0.007152   0.000132  -0.000046   0.000023   0.008406   0.000127
    16  C    0.002565  -0.000040   0.000004  -0.000002   0.000113   0.000007
    17  H    0.000013   0.000002  -0.000000   0.000000   0.000000   0.000000
    18  H   -0.000148   0.000563   0.000002   0.000000   0.000000  -0.000000
    19  H    0.507392  -0.024433  -0.002792   0.003996   0.001535  -0.000068
    20  H   -0.024433   0.539445  -0.002723  -0.002975  -0.000047  -0.000082
    21  H   -0.002792  -0.002723   0.526188  -0.027619  -0.002925  -0.002262
    22  H    0.003996  -0.002975  -0.027619   0.572728   0.004165  -0.003648
    23  H    0.001535  -0.000047  -0.002925   0.004165   0.501439  -0.025668
    24  H   -0.000068  -0.000082  -0.002262  -0.003648  -0.025668   0.539612
    25  H   -0.000027   0.000013  -0.000089  -0.000080  -0.002297  -0.002316
    26  H    0.000020  -0.000031  -0.000080   0.002392   0.004075  -0.003013
    27  H    0.000098   0.000000  -0.000000   0.000000  -0.000033  -0.000000
              25         26         27
     1  O   -0.000000   0.000000  -0.000076
     2  N   -0.000000  -0.000000   0.000393
     3  O    0.000000   0.000000   0.001608
     4  C    0.000024   0.000005  -0.075907
     5  C   -0.000000  -0.000002   0.001888
     6  N   -0.000091  -0.000052   0.000005
     7  C    0.005063  -0.003984  -0.000417
     8  H   -0.000011   0.001660   0.000009
     9  C   -0.000449   0.000972  -0.000058
    10  C    0.004219  -0.002277   0.000006
    11  C   -0.033665  -0.041287   0.000013
    12  C    0.398331   0.396789  -0.000042
    13  C   -0.035779  -0.046994   0.005444
    14  H   -0.002803  -0.001025  -0.000186
    15  N    0.000354   0.004858  -0.036847
    16  C   -0.000002  -0.000073   0.406404
    17  H   -0.000000   0.000000  -0.000094
    18  H    0.000002  -0.000000   0.000001
    19  H   -0.000027   0.000020   0.000098
    20  H    0.000013  -0.000031   0.000000
    21  H   -0.000089  -0.000080  -0.000000
    22  H   -0.000080   0.002392   0.000000
    23  H   -0.002297   0.004075  -0.000033
    24  H   -0.002316  -0.003013  -0.000000
    25  H    0.508726  -0.024250  -0.000013
    26  H   -0.024250   0.561694   0.000001
    27  H   -0.000013   0.000001   0.469949
 Mulliken charges:
               1
     1  O   -0.436870
     2  N    0.437429
     3  O   -0.442292
     4  C    0.056031
     5  C    0.178559
     6  N   -0.790131
     7  C    0.061434
     8  H    0.176088
     9  C   -0.298813
    10  C   -0.327568
    11  C   -0.321142
    12  C   -0.306420
    13  C   -0.043276
    14  H    0.193255
    15  N   -0.505779
    16  C    0.122030
    17  H    0.252955
    18  H    0.397660
    19  H    0.188305
    20  H    0.162150
    21  H    0.173057
    22  H    0.148302
    23  H    0.198060
    24  H    0.163381
    25  H    0.185141
    26  H    0.150599
    27  H    0.227854
 Sum of Mulliken charges =  -0.00000
 Mulliken charges with hydrogens summed into heavy atoms:
               1
     1  O   -0.436870
     2  N    0.437429
     3  O   -0.442292
     4  C    0.056031
     5  C    0.431514
     6  N   -0.392472
     7  C    0.237522
     9  C    0.051643
    10  C   -0.006209
    11  C    0.040300
    12  C    0.029320
    13  C    0.149979
    15  N   -0.505779
    16  C    0.349884
 Electronic spatial extent (au):  <R**2>=           2991.9895
 Charge=              0.0000 electrons
 Dipole moment (field-independent basis, Debye):
    X=              4.4041    Y=              4.2658    Z=              1.6812  Tot=              6.3577
 Quadrupole moment (field-independent basis, Debye-Ang):
   XX=           -101.8212   YY=            -76.4598   ZZ=            -85.6265
   XY=             -2.4107   XZ=             -0.6527   YZ=              5.0297
 Traceless Quadrupole moment (field-independent basis, Debye-Ang):
   XX=            -13.8520   YY=             11.5093   ZZ=              2.3427
   XY=             -2.4107   XZ=             -0.6527   YZ=              5.0297
 Octapole moment (field-independent basis, Debye-Ang**2):
  XXX=             69.0777  YYY=             28.5222  ZZZ=              4.0350  XYY=            -19.2504
  XXY=             15.8975  XXZ=              8.3386  XZZ=              4.6277  YZZ=              0.9226
  YYZ=              8.8647  XYZ=             -9.2705
 Hexadecapole moment (field-independent basis, Debye-Ang**3):
 XXXX=          -3270.5214 YYYY=           -549.9727 ZZZZ=           -376.2848 XXXY=            -64.5646
 XXXZ=            -28.9173 YYYX=             -2.9734 YYYZ=             44.5363 ZZZX=            -13.4489
 ZZZY=             22.1676 XXYY=           -564.2391 XXZZ=           -583.3591 YYZZ=           -156.5239
 XXYZ=             32.6107 YYXZ=              6.4290 ZZXY=              1.5823
 N-N= 9.297366201250D+02 E-N=-3.406130085948D+03  KE= 6.595941189735D+02
 Unable to Open any file for archive entry.
 1\1\GINC-LOTUS\FOpt\RMP2-FC\6-31G(d)\C9H13N3O2\ALEXEY\30-Jun-2023\0\\#
 MP2/6-31G* SCF=Tight Opt=(ModRedun, MaxCycle=20 ) NoSymm\\MolName:\\0,
 1\O,-3.7234761631,-0.7259623049,0.7966521353\N,-3.1105288155,-0.228015
 6828,-0.1676629792\O,-3.6255107292,0.0710711494,-1.2627850626\C,-1.670
 8565231,-0.0178840305,-0.0104389029\C,-1.3043839631,1.2476794664,0.339
 7905382\N,-0.0537397942,1.7487124232,0.4603755153\C,1.2030355974,1.015
 5395429,0.4012344113\H,1.8586446576,1.5066788389,1.1361202554\C,1.9034
 530655,1.0788501894,-0.955345897\C,3.3008576539,0.462202289,-0.8244302
 755\C,3.2531134392,-0.9585340439,-0.2561884831\C,2.4655179686,-1.02047
 54481,1.0539317168\C,1.0542384507,-0.4593935869,0.842517968\H,0.475986
 8875,-0.4778390614,1.7798709397\N,0.4073003191,-1.3192138596,-0.143100
 1686\C,-0.8433554554,-1.1248288807,-0.4179948195\H,-2.0943159802,1.973
 892466,0.5234205336\H,0.0000967254,2.6943673581,0.8166148109\H,1.30404
 5502,0.5337858023,-1.6927454054\H,1.9691397835,2.1213140132,-1.2901359
 666\H,3.8004893654,0.4633560274,-1.8000443143\H,3.9057987569,1.0995512
 051,-0.1637167568\H,2.769951675,-1.625221455,-0.9773945542\H,4.2723459
 301,-1.3317286534,-0.1000406056\H,2.3838192415,-2.0562073403,1.3998163
 897\H,2.9780236215,-0.4506980477,1.8411981983\H,-1.3196712169,-1.86301
 83762,-1.0705292213\\Version=ES64L-G16RevC.02\HF=-661.2781948\MP2=-663
 .3201159\RMSD=6.340e-09\RMSF=2.940e-04\Dipole=1.5938425,1.5229159,0.60
 4216\PG=C01 [X(C9H13N3O2)]\\@
 The archive entry for this job was punched.


 YE HAVE SOWN MUCH, AND BRING IN LITTLE.
 YE EAT, BUT YE HAVE NOT ENOUGH.
 YE DRINK, BUT YE ARE NOT FILLED WITH DRINK.
 YE CLOTHE YOU, BUT THERE IS NONE WARM.
 AND HE THAT EARNETH WAGES EARNETH WAGES TO PUT
 IT INTO A BAG WITH HOLES.
                                     HAGGAI I,6
 Job cpu time:       0 days  1 hours 37 minutes 18.1 seconds.
 Elapsed time:       0 days  0 hours 29 minutes  8.8 seconds.
 File lengths (MBytes):  RWF=     36 Int=      0 D2E=      0 Chk=      7 Scr=      1
 Normal termination of Gaussian 16 at Fri Jun 30 04:20:44 2023.
