 Entering Gaussian System, Link 0=g16
 Initial command:
 /home/alexey/programs//g16/l1.exe "/home/alexey/tmp/Gau-1071666.inp" -scrdir="/home/alexey/tmp/"
 Entering Link 1 = /home/alexey/programs//g16/l1.exe PID=   1071668.
  
 Copyright (c) 1988-2021, Gaussian, Inc.  All Rights Reserved.
  
 This is part of the Gaussian(R) 16 program.  It is based on
 the Gaussian(R) 09 system (copyright 2009, Gaussian, Inc.),
 the Gaussian(R) 03 system (copyright 2003, Gaussian, Inc.),
 the Gaussian(R) 98 system (copyright 1998, Gaussian, Inc.),
 the Gaussian(R) 94 system (copyright 1995, Gaussian, Inc.),
 the Gaussian 92(TM) system (copyright 1992, Gaussian, Inc.),
 the Gaussian 90(TM) system (copyright 1990, Gaussian, Inc.),
 the Gaussian 88(TM) system (copyright 1988, Gaussian, Inc.),
 the Gaussian 86(TM) system (copyright 1986, Carnegie Mellon
 University), and the Gaussian 82(TM) system (copyright 1983,
 Carnegie Mellon University). Gaussian is a federally registered
 trademark of Gaussian, Inc.
  
 This software contains proprietary and confidential information,
 including trade secrets, belonging to Gaussian, Inc.
  
 This software is provided under written license and may be
 used, copied, transmitted, or stored only in accord with that
 written license.
  
 The following legend is applicable only to US Government
 contracts under FAR:
  
                    RESTRICTED RIGHTS LEGEND
  
 Use, reproduction and disclosure by the US Government is
 subject to restrictions as set forth in subparagraphs (a)
 and (c) of the Commercial Computer Software - Restricted
 Rights clause in FAR 52.227-19.
  
 Gaussian, Inc.
 340 Quinnipiac St., Bldg. 40, Wallingford CT 06492
  
  
 ---------------------------------------------------------------
 Warning -- This program may not be used in any manner that
 competes with the business of Gaussian, Inc. or will provide
 assistance to any competitor of Gaussian, Inc.  The licensee
 of this program is prohibited from giving any competitor of
 Gaussian, Inc. access to this program.  By using this program,
 the user acknowledges that Gaussian, Inc. is engaged in the
 business of creating and licensing software in the field of
 computational chemistry and represents and warrants to the
 licensee that it is not a competitor of Gaussian, Inc. and that
 it will not use this program in any manner prohibited above.
 ---------------------------------------------------------------
  

 Cite this work as:
 Gaussian 16, Revision C.02,
 M. J. Frisch, G. W. Trucks, H. B. Schlegel, G. E. Scuseria, 
 M. A. Robb, J. R. Cheeseman, G. Scalmani, V. Barone, 
 G. A. Petersson, H. Nakatsuji, X. Li, M. Caricato, A. V. Marenich, 
 J. Bloino, B. G. Janesko, R. Gomperts, B. Mennucci, H. P. Hratchian, 
 J. V. Ortiz, A. F. Izmaylov, J. L. Sonnenberg, D. Williams-Young, 
 F. Ding, F. Lipparini, F. Egidi, J. Goings, B. Peng, A. Petrone, 
 T. Henderson, D. Ranasinghe, V. G. Zakrzewski, J. Gao, N. Rega, 
 G. Zheng, W. Liang, M. Hada, M. Ehara, K. Toyota, R. Fukuda, 
 J. Hasegawa, M. Ishida, T. Nakajima, Y. Honda, O. Kitao, H. Nakai, 
 T. Vreven, K. Throssell, J. A. Montgomery, Jr., J. E. Peralta, 
 F. Ogliaro, M. J. Bearpark, J. J. Heyd, E. N. Brothers, K. N. Kudin, 
 V. N. Staroverov, T. A. Keith, R. Kobayashi, J. Normand, 
 K. Raghavachari, A. P. Rendell, J. C. Burant, S. S. Iyengar, 
 J. Tomasi, M. Cossi, J. M. Millam, M. Klene, C. Adamo, R. Cammi, 
 J. W. Ochterski, R. L. Martin, K. Morokuma, O. Farkas, 
 J. B. Foresman, and D. J. Fox, Gaussian, Inc., Wallingford CT, 2019.
 
 ******************************************
 Gaussian 16:  ES64L-G16RevC.02  7-Dec-2021
                30-Jun-2023 
 ******************************************
 %mem=8GB
 %NPROCS=4
 Will use up to    4 processors via shared memory.
 %NoSave
 ---------------------------------------------------------
 #MP2/6-31G* SCF=Tight Opt=(ModRedun, MaxCycle=20 ) NoSymm
 ---------------------------------------------------------
 1/6=20,18=120,19=15,38=1/1,3;
 2/9=110,12=2,15=1,17=6,18=5,40=1/2;
 3/5=1,6=6,7=1,11=9,25=1,30=1,71=1/1,2,3;
 4//1;
 5/5=2,32=2,38=5/2;
 8/6=4,10=2/1;
 9/15=2,16=-3/6;
 10/5=1,31=1/2;
 6/7=2,8=2,9=2,10=2/1;
 7/12=2,30=1/1,2,3,16;
 1/6=20,18=20,19=15/3(2);
 2/9=110,15=1/2;
 99//99;
 2/9=110,15=1/2;
 3/5=1,6=6,7=1,11=9,25=1,30=1,71=1/1,2,3;
 4/5=5,16=3,69=1/1;
 5/5=2,32=2,38=5/2;
 8/6=4,10=2/1;
 9/15=2,16=-3/6;
 10/5=1,31=1/2;
 7/12=2,30=1/1,2,3,16;
 1/6=20,18=20,19=15/3(-8);
 2/9=110,15=1/2;
 6/7=2,8=2,9=2,10=2/1;
 99/9=10/99;
 --------
 MolName:
 --------
 Symbolic Z-matrix:
 Charge =  0 Multiplicity = 1
 8                    0    -3.73917  -0.48306   0.9638 
 7                    0    -3.18955  -0.22304  -0.10294 
 8                    0    -3.70497  -0.24923  -1.21715 
 6                    0    -1.73125   0.01441  -0.05491 
 6                    0    -1.37664   1.3051    0.32402 
 7                    0    -0.09249   1.7428    0.51383 
 6                    0     1.18642   0.97067   0.42845 
 1                    0     1.858     1.42537   1.20201 
 6                    0     1.93539   1.09871  -0.92153 
 6                    0     3.35074   0.5064   -0.78132 
 6                    0     3.29917  -0.94069  -0.26621 
 6                    0     2.46622  -1.04866   1.02908 
 6                    0     1.02474  -0.50698   0.82588 
 1                    0     0.48571  -0.59997   1.79787 
 7                    0     0.36049  -1.33115  -0.19013 
 6                    0    -0.88533  -1.12397  -0.46311 
 1                    0    -2.18184   2.02808   0.53748 
 1                    0     0.1452    2.73442   0.4337 
 1                    0     1.37781   0.56398  -1.71979 
 1                    0     2.01517   2.16675  -1.21573 
 1                    0     3.87402   0.53833  -1.76201 
 1                    0     3.93447   1.12237  -0.06126 
 1                    0     2.84532  -1.58851  -1.04984 
 1                    0     4.33057  -1.31263  -0.08148 
 1                    0     2.41602  -2.11393   1.34437 
 1                    0     2.96632  -0.47891   1.84006 
 1                    0    -1.41156  -1.85766  -1.09314 
 
 The following ModRedundant input section has been read:
 D       1       2       4      16 F                                           
 D       7      13      15      16 F                                           
 D       7       9      10      11 F                                           
 D       9      10      11      12 F                                           
 D       6       7      13      15 F                                           
 

 GradGradGradGradGradGradGradGradGradGradGradGradGradGradGradGradGradGrad
 Berny optimization.
 Initialization pass.
                           ----------------------------
                           !    Initial Parameters    !
                           ! (Angstroms and Degrees)  !
 --------------------------                            --------------------------
 ! Name  Definition              Value          Derivative Info.                !
 --------------------------------------------------------------------------------
 ! R1    R(1,2)                  1.2279         estimate D2E/DX2                !
 ! R2    R(2,3)                  1.2279         estimate D2E/DX2                !
 ! R3    R(2,4)                  1.4783         estimate D2E/DX2                !
 ! R4    R(4,5)                  1.3911         estimate D2E/DX2                !
 ! R5    R(4,16)                 1.4758         estimate D2E/DX2                !
 ! R6    R(5,6)                  1.3699         estimate D2E/DX2                !
 ! R7    R(5,17)                 1.103          estimate D2E/DX2                !
 ! R8    R(6,7)                  1.4964         estimate D2E/DX2                !
 ! R9    R(6,18)                 1.0229         estimate D2E/DX2                !
 ! R10   R(7,8)                  1.1208         estimate D2E/DX2                !
 ! R11   R(7,9)                  1.5491         estimate D2E/DX2                !
 ! R12   R(7,13)                 1.5387         estimate D2E/DX2                !
 ! R13   R(9,10)                 1.5407         estimate D2E/DX2                !
 ! R14   R(9,19)                 1.1109         estimate D2E/DX2                !
 ! R15   R(9,20)                 1.1107         estimate D2E/DX2                !
 ! R16   R(10,11)                1.5369         estimate D2E/DX2                !
 ! R17   R(10,21)                1.112          estimate D2E/DX2                !
 ! R18   R(10,22)                1.1129         estimate D2E/DX2                !
 ! R19   R(11,12)                1.5438         estimate D2E/DX2                !
 ! R20   R(11,23)                1.1134         estimate D2E/DX2                !
 ! R21   R(11,24)                1.1119         estimate D2E/DX2                !
 ! R22   R(12,13)                1.5532         estimate D2E/DX2                !
 ! R23   R(12,25)                1.1121         estimate D2E/DX2                !
 ! R24   R(12,26)                1.1101         estimate D2E/DX2                !
 ! R25   R(13,14)                1.1153         estimate D2E/DX2                !
 ! R26   R(13,15)                1.4672         estimate D2E/DX2                !
 ! R27   R(15,16)                1.2921         estimate D2E/DX2                !
 ! R28   R(16,27)                1.101          estimate D2E/DX2                !
 ! A1    A(1,2,3)              126.5782         estimate D2E/DX2                !
 ! A2    A(1,2,4)              116.5746         estimate D2E/DX2                !
 ! A3    A(3,2,4)              116.5501         estimate D2E/DX2                !
 ! A4    A(2,4,5)              114.1635         estimate D2E/DX2                !
 ! A5    A(2,4,16)             115.6292         estimate D2E/DX2                !
 ! A6    A(5,4,16)             130.1572         estimate D2E/DX2                !
 ! A7    A(4,5,6)              124.9693         estimate D2E/DX2                !
 ! A8    A(4,5,17)             118.3447         estimate D2E/DX2                !
 ! A9    A(6,5,17)             116.6196         estimate D2E/DX2                !
 ! A10   A(5,6,7)              128.9323         estimate D2E/DX2                !
 ! A11   A(5,6,18)             121.1133         estimate D2E/DX2                !
 ! A12   A(7,6,18)             107.2877         estimate D2E/DX2                !
 ! A13   A(6,7,8)              105.2722         estimate D2E/DX2                !
 ! A14   A(6,7,9)              114.8532         estimate D2E/DX2                !
 ! A15   A(6,7,13)             113.0164         estimate D2E/DX2                !
 ! A16   A(8,7,9)              106.1547         estimate D2E/DX2                !
 ! A17   A(8,7,13)             105.92           estimate D2E/DX2                !
 ! A18   A(9,7,13)             110.8097         estimate D2E/DX2                !
 ! A19   A(7,9,10)             109.455          estimate D2E/DX2                !
 ! A20   A(7,9,19)             110.1055         estimate D2E/DX2                !
 ! A21   A(7,9,20)             110.184          estimate D2E/DX2                !
 ! A22   A(10,9,19)            109.9643         estimate D2E/DX2                !
 ! A23   A(10,9,20)            109.1355         estimate D2E/DX2                !
 ! A24   A(19,9,20)            107.9742         estimate D2E/DX2                !
 ! A25   A(9,10,11)            111.202          estimate D2E/DX2                !
 ! A26   A(9,10,21)            109.9372         estimate D2E/DX2                !
 ! A27   A(9,10,22)            109.1431         estimate D2E/DX2                !
 ! A28   A(11,10,21)           109.7796         estimate D2E/DX2                !
 ! A29   A(11,10,22)           108.7761         estimate D2E/DX2                !
 ! A30   A(21,10,22)           107.9313         estimate D2E/DX2                !
 ! A31   A(10,11,12)           111.4181         estimate D2E/DX2                !
 ! A32   A(10,11,23)           109.0028         estimate D2E/DX2                !
 ! A33   A(10,11,24)           109.8482         estimate D2E/DX2                !
 ! A34   A(12,11,23)           109.2623         estimate D2E/DX2                !
 ! A35   A(12,11,24)           109.7373         estimate D2E/DX2                !
 ! A36   A(23,11,24)           107.4826         estimate D2E/DX2                !
 ! A37   A(11,12,13)           111.5045         estimate D2E/DX2                !
 ! A38   A(11,12,25)           109.222          estimate D2E/DX2                !
 ! A39   A(11,12,26)           109.5107         estimate D2E/DX2                !
 ! A40   A(13,12,25)           109.2238         estimate D2E/DX2                !
 ! A41   A(13,12,26)           109.5516         estimate D2E/DX2                !
 ! A42   A(25,12,26)           107.7487         estimate D2E/DX2                !
 ! A43   A(7,13,12)            105.7346         estimate D2E/DX2                !
 ! A44   A(7,13,14)            110.8515         estimate D2E/DX2                !
 ! A45   A(7,13,15)            114.0887         estimate D2E/DX2                !
 ! A46   A(12,13,14)           107.784          estimate D2E/DX2                !
 ! A47   A(12,13,15)           108.3514         estimate D2E/DX2                !
 ! A48   A(14,13,15)           109.7455         estimate D2E/DX2                !
 ! A49   A(13,15,16)           119.5208         estimate D2E/DX2                !
 ! A50   A(4,16,15)            128.1626         estimate D2E/DX2                !
 ! A51   A(4,16,27)            113.4743         estimate D2E/DX2                !
 ! A52   A(15,16,27)           118.3523         estimate D2E/DX2                !
 ! D1    D(1,2,4,5)            -82.31           estimate D2E/DX2                !
 ! D2    D(1,2,4,16)            99.9994         Frozen                          !
 ! D3    D(3,2,4,5)            103.5328         estimate D2E/DX2                !
 ! D4    D(3,2,4,16)           -74.1579         estimate D2E/DX2                !
 ! D5    D(2,4,5,6)            176.1125         estimate D2E/DX2                !
 ! D6    D(2,4,5,17)            -0.8157         estimate D2E/DX2                !
 ! D7    D(16,4,5,6)            -6.6121         estimate D2E/DX2                !
 ! D8    D(16,4,5,17)          176.4597         estimate D2E/DX2                !
 ! D9    D(2,4,16,15)         -159.7282         estimate D2E/DX2                !
 ! D10   D(2,4,16,27)           21.503          estimate D2E/DX2                !
 ! D11   D(5,4,16,15)           23.029          estimate D2E/DX2                !
 ! D12   D(5,4,16,27)         -155.7399         estimate D2E/DX2                !
 ! D13   D(4,5,6,7)             -2.9734         estimate D2E/DX2                !
 ! D14   D(4,5,6,18)           156.0584         estimate D2E/DX2                !
 ! D15   D(17,5,6,7)           174.0026         estimate D2E/DX2                !
 ! D16   D(17,5,6,18)          -26.9656         estimate D2E/DX2                !
 ! D17   D(5,6,7,8)           -145.9043         estimate D2E/DX2                !
 ! D18   D(5,6,7,9)             97.7154         estimate D2E/DX2                !
 ! D19   D(5,6,7,13)           -30.7585         estimate D2E/DX2                !
 ! D20   D(18,6,7,8)            52.8111         estimate D2E/DX2                !
 ! D21   D(18,6,7,9)           -63.5692         estimate D2E/DX2                !
 ! D22   D(18,6,7,13)          167.9569         estimate D2E/DX2                !
 ! D23   D(6,7,9,10)           168.4831         estimate D2E/DX2                !
 ! D24   D(6,7,9,19)           -70.5253         estimate D2E/DX2                !
 ! D25   D(6,7,9,20)            48.4663         estimate D2E/DX2                !
 ! D26   D(8,7,9,10)            52.609          estimate D2E/DX2                !
 ! D27   D(8,7,9,19)           173.6006         estimate D2E/DX2                !
 ! D28   D(8,7,9,20)           -67.4078         estimate D2E/DX2                !
 ! D29   D(13,7,9,10)          -61.9476         estimate D2E/DX2                !
 ! D30   D(13,7,9,19)           59.044          estimate D2E/DX2                !
 ! D31   D(13,7,9,20)          178.0356         estimate D2E/DX2                !
 ! D32   D(6,7,13,12)         -166.0135         estimate D2E/DX2                !
 ! D33   D(6,7,13,14)          -49.4703         estimate D2E/DX2                !
 ! D34   D(6,7,13,15)           75.0221         Frozen                          !
 ! D35   D(8,7,13,12)          -51.2564         estimate D2E/DX2                !
 ! D36   D(8,7,13,14)           65.2868         estimate D2E/DX2                !
 ! D37   D(8,7,13,15)         -170.2208         estimate D2E/DX2                !
 ! D38   D(9,7,13,12)           63.4473         estimate D2E/DX2                !
 ! D39   D(9,7,13,14)          179.9905         estimate D2E/DX2                !
 ! D40   D(9,7,13,15)          -55.5171         estimate D2E/DX2                !
 ! D41   D(7,9,10,11)           54.8122         Frozen                          !
 ! D42   D(7,9,10,21)          176.6031         estimate D2E/DX2                !
 ! D43   D(7,9,10,22)          -65.1945         estimate D2E/DX2                !
 ! D44   D(19,9,10,11)         -66.265          estimate D2E/DX2                !
 ! D45   D(19,9,10,21)          55.5259         estimate D2E/DX2                !
 ! D46   D(19,9,10,22)         173.7282         estimate D2E/DX2                !
 ! D47   D(20,9,10,11)         175.4691         estimate D2E/DX2                !
 ! D48   D(20,9,10,21)         -62.74           estimate D2E/DX2                !
 ! D49   D(20,9,10,22)          55.4623         estimate D2E/DX2                !
 ! D50   D(9,10,11,12)         -52.8219         Frozen                          !
 ! D51   D(9,10,11,23)          67.8339         estimate D2E/DX2                !
 ! D52   D(9,10,11,24)        -174.6428         estimate D2E/DX2                !
 ! D53   D(21,10,11,12)       -174.7045         estimate D2E/DX2                !
 ! D54   D(21,10,11,23)        -54.0487         estimate D2E/DX2                !
 ! D55   D(21,10,11,24)         63.4747         estimate D2E/DX2                !
 ! D56   D(22,10,11,12)         67.4022         estimate D2E/DX2                !
 ! D57   D(22,10,11,23)       -171.942          estimate D2E/DX2                !
 ! D58   D(22,10,11,24)        -54.4187         estimate D2E/DX2                !
 ! D59   D(10,11,12,13)         56.7474         estimate D2E/DX2                !
 ! D60   D(10,11,12,25)        177.5554         estimate D2E/DX2                !
 ! D61   D(10,11,12,26)        -64.6663         estimate D2E/DX2                !
 ! D62   D(23,11,12,13)        -63.756          estimate D2E/DX2                !
 ! D63   D(23,11,12,25)         57.052          estimate D2E/DX2                !
 ! D64   D(23,11,12,26)        174.8303         estimate D2E/DX2                !
 ! D65   D(24,11,12,13)        178.6325         estimate D2E/DX2                !
 ! D66   D(24,11,12,25)        -60.5595         estimate D2E/DX2                !
 ! D67   D(24,11,12,26)         57.2188         estimate D2E/DX2                !
 ! D68   D(11,12,13,7)         -60.5729         estimate D2E/DX2                !
 ! D69   D(11,12,13,14)       -179.1755         estimate D2E/DX2                !
 ! D70   D(11,12,13,15)         62.1255         estimate D2E/DX2                !
 ! D71   D(25,12,13,7)         178.6201         estimate D2E/DX2                !
 ! D72   D(25,12,13,14)         60.0175         estimate D2E/DX2                !
 ! D73   D(25,12,13,15)        -58.6815         estimate D2E/DX2                !
 ! D74   D(26,12,13,7)          60.817          estimate D2E/DX2                !
 ! D75   D(26,12,13,14)        -57.7857         estimate D2E/DX2                !
 ! D76   D(26,12,13,15)       -176.4846         estimate D2E/DX2                !
 ! D77   D(7,13,15,16)         -67.1601         Frozen                          !
 ! D78   D(12,13,15,16)        175.3707         estimate D2E/DX2                !
 ! D79   D(14,13,15,16)         57.9212         estimate D2E/DX2                !
 ! D80   D(13,15,16,4)          11.7803         estimate D2E/DX2                !
 ! D81   D(13,15,16,27)       -169.5029         estimate D2E/DX2                !
 --------------------------------------------------------------------------------
 Trust Radius=3.00D-01 FncErr=1.00D-07 GrdErr=1.00D-07 EigMax=2.50D+02 EigMin=1.00D-04
 Number of steps in this run=     20 maximum allowed number of steps=    162.
 GradGradGradGradGradGradGradGradGradGradGradGradGradGradGradGradGradGrad

                          Input orientation:                          
 ---------------------------------------------------------------------
 Center     Atomic      Atomic             Coordinates (Angstroms)
 Number     Number       Type             X           Y           Z
 ---------------------------------------------------------------------
      1          8           0       -3.739170   -0.483060    0.963800
      2          7           0       -3.189550   -0.223040   -0.102940
      3          8           0       -3.704970   -0.249230   -1.217150
      4          6           0       -1.731250    0.014410   -0.054910
      5          6           0       -1.376640    1.305100    0.324020
      6          7           0       -0.092490    1.742800    0.513830
      7          6           0        1.186420    0.970670    0.428450
      8          1           0        1.858000    1.425370    1.202010
      9          6           0        1.935390    1.098710   -0.921530
     10          6           0        3.350740    0.506400   -0.781320
     11          6           0        3.299170   -0.940690   -0.266210
     12          6           0        2.466220   -1.048660    1.029080
     13          6           0        1.024740   -0.506980    0.825880
     14          1           0        0.485710   -0.599970    1.797870
     15          7           0        0.360490   -1.331150   -0.190130
     16          6           0       -0.885330   -1.123970   -0.463110
     17          1           0       -2.181840    2.028080    0.537480
     18          1           0        0.145200    2.734420    0.433700
     19          1           0        1.377810    0.563980   -1.719790
     20          1           0        2.015170    2.166750   -1.215730
     21          1           0        3.874020    0.538330   -1.762010
     22          1           0        3.934470    1.122370   -0.061260
     23          1           0        2.845320   -1.588510   -1.049840
     24          1           0        4.330570   -1.312630   -0.081480
     25          1           0        2.416020   -2.113930    1.344370
     26          1           0        2.966320   -0.478910    1.840060
     27          1           0       -1.411560   -1.857660   -1.093140
 ---------------------------------------------------------------------
                    Distance matrix (angstroms):
                    1          2          3          4          5
     1  O    0.000000
     2  N    1.227855   0.000000
     3  O    2.193716   1.227928   0.000000
     4  C    2.305860   1.478286   2.305619   0.000000
     5  C    3.031235   2.409180   3.195664   1.391121   0.000000
     6  N    4.295952   3.719773   4.473755   2.448741   1.369909
     7  C    5.163465   4.566884   5.303004   3.108194   2.586895
     8  H    5.918375   5.467898   6.293112   4.056276   3.353838
     9  C    6.185232   5.355569   5.806720   3.920585   3.544508
    10  C    7.368263   6.615714   7.109428   5.157165   4.920144
    11  C    7.159649   6.530327   7.102139   5.124645   5.220646
    12  C    6.231455   5.826736   6.615756   4.463620   4.561235
    13  C    4.765966   4.324762   5.158543   2.939918   3.049938
    14  H    4.308010   4.154839   5.174472   2.953840   3.044647
    15  N    4.342583   3.719986   4.330506   2.490822   3.198716
    16  C    3.254419   2.500165   3.046985   1.475844   2.600258
    17  H    2.985440   2.548168   3.253428   2.146817   1.103001
    18  H    5.071638   4.489444   5.143081   3.340398   2.090689
    19  H    5.872089   4.908603   5.171906   3.569329   3.509047
    20  H    6.699573   5.834253   6.209425   4.473895   3.823303
    21  H    8.150702   7.295630   7.639255   5.882834   5.701657
    22  H    7.906510   7.250071   7.847191   5.773041   5.328200
    23  H    6.973684   6.259456   6.687897   4.950175   5.299568
    24  H    8.179334   7.598676   8.184771   6.205433   6.291994
    25  H    6.378945   6.090368   6.892388   4.866997   5.207221
    26  H    6.762503   6.460298   7.342029   5.089346   4.933799
    27  H    3.396807   2.610312   2.803953   2.164433   3.465922
                    6          7          8          9         10
     6  N    0.000000
     7  C    1.496357   0.000000
     8  H    2.092550   1.120788   0.000000
     9  C    2.566595   1.549128   2.149911   0.000000
    10  C    3.880970   2.522572   2.646956   1.540683   0.000000
    11  C    4.394649   2.932501   3.135424   2.539388   1.536902
    12  C    3.821613   2.465023   2.553558   2.949213   2.545218
    13  C    2.531223   1.538681   2.137703   2.541843   3.003383
    14  H    2.733431   2.198458   2.517982   3.518838   4.010570
    15  N    3.185894   2.522534   3.432054   2.986549   3.559170
    16  C    3.130715   3.078075   4.098490   3.620348   4.550127
    17  H    2.108869   3.532022   4.138256   4.465873   5.887630
    18  H    1.022853   2.048165   2.288579   2.777945   4.088500
    19  H    2.922406   2.194758   3.083746   1.110878   2.185519
    20  H    2.759229   2.195623   2.533735   1.110688   2.174677
    21  H    4.728995   3.494027   3.692776   2.186028   1.112023
    22  H    4.114860   2.795462   2.449365   2.176452   1.112945
    23  H    4.708866   3.389202   3.889615   2.839998   2.171681
    24  H    5.408651   3.919077   3.906097   3.501019   2.181447
    25  H    4.675124   3.444646   3.585847   3.960601   3.501198
    26  H    4.006395   2.694804   2.293853   3.343364   2.826703
    27  H    4.157597   4.130882   5.170689   4.468965   5.325928
                   11         12         13         14         15
    11  C    0.000000
    12  C    1.543774   0.000000
    13  C    2.560038   1.553246   0.000000
    14  H    3.506005   2.171355   1.115332   0.000000
    15  N    2.965483   2.449566   1.467229   2.121897   0.000000
    16  C    4.193137   3.669495   2.385485   2.695618   1.292095
    17  H    6.284981   5.595754   4.097787   3.951082   4.275194
    18  H    4.893244   4.478092   3.381430   3.618710   4.118783
    19  H    2.840519   3.367719   2.784250   3.811109   2.639378
    20  H    3.493770   3.947338   3.506844   4.367582   4.003139
    21  H    2.180681   3.505798   3.988514   5.044712   4.279095
    22  H    2.168370   2.838656   3.450844   4.279809   4.337015
    23  H    1.113430   2.181069   2.828877   3.828110   2.641915
    24  H    1.111868   2.186052   3.521489   4.338524   3.971610
    25  H    2.179544   1.112083   2.187871   2.494761   2.681909
    26  H    2.181835   1.110137   2.190681   2.483921   3.411500
    27  H    4.869869   4.493938   3.382681   3.679586   2.057377
                   16         17         18         19         20
    16  C    0.000000
    17  H    3.552117   0.000000
    18  H    4.093096   2.434092   0.000000
    19  H    3.090343   4.462058   3.296613   0.000000
    20  H    4.450638   4.550590   2.557275   1.796991   0.000000
    21  H    5.205938   6.646838   4.852634   2.496699   2.530908
    22  H    5.332729   6.211928   4.147560   3.098230   2.471284
    23  H    3.804970   6.393094   5.308414   2.689913   3.849499
    24  H    5.233244   7.345403   5.844771   3.863226   4.330553
    25  H    3.891776   6.240804   5.430694   4.199781   5.003900
    26  H    4.533862   5.872416   4.501339   4.035284   4.152355
    27  H    1.100980   4.283833   5.083497   3.746681   5.287096
                   21         22         23         24         25
    21  H    0.000000
    22  H    1.799252   0.000000
    23  H    2.467561   3.084219   0.000000
    24  H    2.541392   2.467089   1.794380   0.000000
    25  H    4.337032   3.841240   2.488495   2.518061   0.000000
    26  H    3.851442   2.667664   3.097963   2.499717   1.794945
    27  H    5.841704   6.206883   4.265600   5.855986   4.545052
                   26         27
    26  H    0.000000
    27  H    5.447059   0.000000
 Symmetry turned off by external request.
 Stoichiometry    C9H13N3O2
 Framework group  C1[X(C9H13N3O2)]
 Deg. of freedom    75
 Full point group                 C1      NOp   1
 Rotational constants (GHZ):           1.6535847           0.4001976           0.3739303
 Standard basis: 6-31G(d) (6D, 7F)
   236 basis functions,   444 primitive gaussians,   236 cartesian basis functions
    52 alpha electrons       52 beta electrons
       nuclear repulsion energy       921.1743609270 Hartrees.
 NAtoms=   27 NActive=   27 NUniq=   27 SFac= 1.00D+00 NAtFMM=   60 NAOKFM=F Big=F
 Integral buffers will be    131072 words long.
 Raffenetti 1 integral format.
 Two-electron integral symmetry is turned off.
 One-electron integrals computed using PRISM.
 NBasis=   236 RedAO= T EigKep=  1.70D-03  NBF=   236
 NBsUse=   236 1.00D-06 EigRej= -1.00D+00 NBFU=   236
 ExpMin= 1.61D-01 ExpMax= 5.48D+03 ExpMxC= 8.25D+02 IAcc=3 IRadAn=         5 AccDes= 0.00D+00
 Harris functional with IExCor=  205 and IRadAn=       5 diagonalized for initial guess.
 HarFok:  IExCor=  205 AccDes= 0.00D+00 IRadAn=         5 IDoV= 1 UseB2=F ITyADJ=14
 ICtDFT=  3500011 ScaDFX=  1.000000  1.000000  1.000000  1.000000
 FoFCou: FMM=F IPFlag=           0 FMFlag=      100000 FMFlg1=           0
         NFxFlg=           0 DoJE=T BraDBF=F KetDBF=T FulRan=T
         wScrn=  0.000000 ICntrl=       500 IOpCl=  0 I1Cent=   200000004 NGrid=           0
         NMat0=    1 NMatS0=      1 NMatT0=    0 NMatD0=    1 NMtDS0=    0 NMtDT0=    0
 Symmetry not used in FoFCou.
 Keep R1 ints in memory in canonical form, NReq=397720213.
 Requested convergence on RMS density matrix=1.00D-08 within 128 cycles.
 Requested convergence on MAX density matrix=1.00D-06.
 Requested convergence on             energy=1.00D-06.
 No special actions if energy rises.
 SCF Done:  E(RHF) =  -661.268429308     A.U. after   17 cycles
            NFock= 17  Conv=0.49D-08     -V/T= 2.0034
 ExpMin= 1.61D-01 ExpMax= 5.48D+03 ExpMxC= 8.25D+02 IAcc=3 IRadAn=         5 AccDes= 0.00D+00
 HarFok:  IExCor=  205 AccDes= 0.00D+00 IRadAn=         5 IDoV=-2 UseB2=F ITyADJ=14
 ICtDFT= 12500011 ScaDFX=  1.000000  1.000000  1.000000  1.000000
 Range of M.O.s used for correlation:    15   236
 NBasis=   236 NAE=    52 NBE=    52 NFC=    14 NFV=     0
 NROrb=    222 NOA=    38 NOB=    38 NVA=   184 NVB=   184
 Fully direct method using O(ONN) memory.
 JobTyp=1 Pass  1:  I=  15 to  52 NPSUse=  4 ParTrn=T ParDer=T DoDerP=T.
 Spin components of T(2) and E(2):
     alpha-alpha T2 =       0.9181884861D-01 E2=     -0.2718950433D+00
     alpha-beta  T2 =       0.5020580905D+00 E2=     -0.1496658794D+01
     beta-beta   T2 =       0.9181884861D-01 E2=     -0.2718950433D+00
 ANorm=    0.1298343478D+01
 E2 =    -0.2040448881D+01 EUMP2 =    -0.66330887818920D+03
          IDoAtm=111111111111111111111111111
          Differentiating once with respect to electric field.
                with respect to dipole field.
          Differentiating once with respect to nuclear coordinates.
 Keep R1 ints in memory in canonical form, NReq=397723379.
          There are     1 degrees of freedom in the 1st order CPHF.  IDoFFX=0 NUNeed=     1.
 LinEq1:  Iter=  0 NonCon=     1 RMS=4.51D-03 Max=1.30D-01 NDo=     1
 AX will form     1 AO Fock derivatives at one time.
 LinEq1:  Iter=  1 NonCon=     1 RMS=1.50D-03 Max=3.54D-02 NDo=     1
 LinEq1:  Iter=  2 NonCon=     1 RMS=6.10D-04 Max=2.02D-02 NDo=     1
 LinEq1:  Iter=  3 NonCon=     1 RMS=2.76D-04 Max=5.61D-03 NDo=     1
 LinEq1:  Iter=  4 NonCon=     1 RMS=8.35D-05 Max=1.21D-03 NDo=     1
 LinEq1:  Iter=  5 NonCon=     1 RMS=3.32D-05 Max=8.99D-04 NDo=     1
 LinEq1:  Iter=  6 NonCon=     1 RMS=1.37D-05 Max=5.64D-04 NDo=     1
 LinEq1:  Iter=  7 NonCon=     1 RMS=5.53D-06 Max=9.86D-05 NDo=     1
 LinEq1:  Iter=  8 NonCon=     1 RMS=2.32D-06 Max=6.39D-05 NDo=     1
 LinEq1:  Iter=  9 NonCon=     1 RMS=9.24D-07 Max=3.17D-05 NDo=     1
 LinEq1:  Iter= 10 NonCon=     1 RMS=4.45D-07 Max=1.47D-05 NDo=     1
 LinEq1:  Iter= 11 NonCon=     1 RMS=1.76D-07 Max=3.06D-06 NDo=     1
 LinEq1:  Iter= 12 NonCon=     1 RMS=7.12D-08 Max=2.32D-06 NDo=     1
 LinEq1:  Iter= 13 NonCon=     1 RMS=2.24D-08 Max=4.17D-07 NDo=     1
 LinEq1:  Iter= 14 NonCon=     1 RMS=8.04D-09 Max=1.84D-07 NDo=     1
 LinEq1:  Iter= 15 NonCon=     1 RMS=2.97D-09 Max=4.47D-08 NDo=     1
 LinEq1:  Iter= 16 NonCon=     1 RMS=1.01D-09 Max=1.41D-08 NDo=     1
 LinEq1:  Iter= 17 NonCon=     1 RMS=2.76D-10 Max=4.95D-09 NDo=     1
 LinEq1:  Iter= 18 NonCon=     1 RMS=9.83D-11 Max=2.70D-09 NDo=     1
 LinEq1:  Iter= 19 NonCon=     1 RMS=3.21D-11 Max=1.02D-09 NDo=     1
 LinEq1:  Iter= 20 NonCon=     0 RMS=1.03D-11 Max=2.37D-10 NDo=     1
 Linear equations converged to 1.000D-10 1.000D-09 after    20 iterations.
 End of Minotr F.D. properties file   721 does not exist.
 End of Minotr F.D. properties file   722 does not exist.
 End of Minotr F.D. properties file   788 does not exist.

 **********************************************************************

            Population analysis using the SCF Density.

 **********************************************************************

 Alpha  occ. eigenvalues --  -20.60738 -20.60658 -15.85051 -15.62182 -15.56859
 Alpha  occ. eigenvalues --  -11.34975 -11.30919 -11.29726 -11.29203 -11.27583
 Alpha  occ. eigenvalues --  -11.24284 -11.23650 -11.23241 -11.22699  -1.59526
 Alpha  occ. eigenvalues --   -1.39229  -1.27936  -1.22646  -1.13578  -1.09054
 Alpha  occ. eigenvalues --   -1.01615  -1.00619  -0.93687  -0.89104  -0.84631
 Alpha  occ. eigenvalues --   -0.81848  -0.78535  -0.77181  -0.73964  -0.71744
 Alpha  occ. eigenvalues --   -0.71167  -0.69020  -0.66920  -0.64386  -0.62930
 Alpha  occ. eigenvalues --   -0.61560  -0.60325  -0.57246  -0.56210  -0.54620
 Alpha  occ. eigenvalues --   -0.53507  -0.51303  -0.50271  -0.48775  -0.47936
 Alpha  occ. eigenvalues --   -0.47697  -0.46154  -0.45448  -0.44249  -0.41966
 Alpha  occ. eigenvalues --   -0.39958  -0.32706
 Alpha virt. eigenvalues --    0.08630   0.10624   0.18377   0.20944   0.22841
 Alpha virt. eigenvalues --    0.24094   0.25085   0.27758   0.28637   0.28874
 Alpha virt. eigenvalues --    0.29243   0.30963   0.31970   0.32467   0.33487
 Alpha virt. eigenvalues --    0.34002   0.35024   0.36739   0.37835   0.38496
 Alpha virt. eigenvalues --    0.40667   0.42096   0.44213   0.45187   0.45670
 Alpha virt. eigenvalues --    0.47410   0.49672   0.54434   0.57603   0.57896
 Alpha virt. eigenvalues --    0.60386   0.68746   0.69447   0.72155   0.73481
 Alpha virt. eigenvalues --    0.74487   0.75887   0.76444   0.77986   0.78990
 Alpha virt. eigenvalues --    0.79833   0.83059   0.85050   0.85980   0.88175
 Alpha virt. eigenvalues --    0.88549   0.89429   0.91260   0.92641   0.92955
 Alpha virt. eigenvalues --    0.94691   0.96975   0.99024   1.00799   1.01406
 Alpha virt. eigenvalues --    1.03934   1.05245   1.06254   1.06690   1.08332
 Alpha virt. eigenvalues --    1.09989   1.10609   1.10704   1.11400   1.12581
 Alpha virt. eigenvalues --    1.12791   1.13555   1.14630   1.15598   1.15914
 Alpha virt. eigenvalues --    1.16959   1.17424   1.18458   1.21037   1.22096
 Alpha virt. eigenvalues --    1.23575   1.23784   1.25241   1.25758   1.26671
 Alpha virt. eigenvalues --    1.28290   1.30420   1.33601   1.34356   1.36765
 Alpha virt. eigenvalues --    1.39731   1.42460   1.45589   1.46623   1.51601
 Alpha virt. eigenvalues --    1.53055   1.55547   1.60481   1.64880   1.67941
 Alpha virt. eigenvalues --    1.68781   1.71385   1.72808   1.74534   1.76007
 Alpha virt. eigenvalues --    1.78291   1.81102   1.86273   1.89843   1.92680
 Alpha virt. eigenvalues --    1.93139   1.98033   1.98807   2.00147   2.01764
 Alpha virt. eigenvalues --    2.03956   2.04782   2.07100   2.09433   2.11058
 Alpha virt. eigenvalues --    2.11375   2.13268   2.17217   2.19594   2.20860
 Alpha virt. eigenvalues --    2.22790   2.23542   2.25498   2.26372   2.29833
 Alpha virt. eigenvalues --    2.30305   2.31370   2.32342   2.34016   2.36964
 Alpha virt. eigenvalues --    2.37344   2.39298   2.41341   2.43469   2.44692
 Alpha virt. eigenvalues --    2.47711   2.49828   2.50808   2.56755   2.57747
 Alpha virt. eigenvalues --    2.60820   2.62643   2.66105   2.68146   2.69195
 Alpha virt. eigenvalues --    2.70012   2.71318   2.75144   2.75651   2.80774
 Alpha virt. eigenvalues --    2.85788   2.87020   2.89970   2.93817   2.95796
 Alpha virt. eigenvalues --    2.97270   3.00835   3.05054   3.06040   3.08007
 Alpha virt. eigenvalues --    3.10358   3.13692   3.18425   3.21824   3.23699
 Alpha virt. eigenvalues --    3.28062   3.32618   3.37238   3.40885   3.59097
 Alpha virt. eigenvalues --    4.16139   4.19126   4.29279   4.34035   4.44388
 Alpha virt. eigenvalues --    4.53764   4.59784   4.60790   4.71243   4.78194
 Alpha virt. eigenvalues --    4.99323   4.99641   5.04468   5.10047
          Condensed to atoms (all electrons):
               1          2          3          4          5          6
     1  O    8.303338   0.299076  -0.079900  -0.085565   0.002108   0.000001
     2  N    0.299076   5.778822   0.293792   0.243848  -0.051786   0.001297
     3  O   -0.079900   0.293792   8.310768  -0.089023   0.001996  -0.000001
     4  C   -0.085565   0.243848  -0.089023   5.212682   0.601968  -0.052765
     5  C    0.002108  -0.051786   0.001996   0.601968   4.621058   0.326955
     6  N    0.000001   0.001297  -0.000001  -0.052765   0.326955   7.165410
     7  C    0.000011  -0.000125  -0.000005   0.003125  -0.031053   0.211206
     8  H   -0.000000   0.000002   0.000000  -0.000152   0.002521  -0.048987
     9  C    0.000000  -0.000006   0.000000   0.000459   0.001852  -0.058520
    10  C   -0.000000   0.000000   0.000000  -0.000018  -0.000072   0.003427
    11  C    0.000000  -0.000000  -0.000000  -0.000022   0.000016  -0.000156
    12  C   -0.000000   0.000002   0.000000  -0.000049  -0.000139   0.003536
    13  C   -0.000027  -0.000038   0.000004  -0.009799   0.001025  -0.045919
    14  H   -0.000005  -0.000069   0.000001   0.002508   0.004829  -0.005487
    15  N   -0.000046   0.001904   0.000122  -0.066866  -0.006413   0.003529
    16  C    0.001388  -0.029236   0.002936   0.324859  -0.029386  -0.002516
    17  H    0.001138  -0.002351   0.000418  -0.038290   0.389704  -0.032029
    18  H    0.000000  -0.000060   0.000003   0.001565  -0.022659   0.327671
    19  H   -0.000000  -0.000000   0.000001  -0.000829   0.000675   0.000697
    20  H   -0.000000  -0.000000   0.000000  -0.000033   0.000040  -0.001377
    21  H    0.000000  -0.000000  -0.000000   0.000000   0.000001  -0.000060
    22  H   -0.000000   0.000000   0.000000  -0.000000  -0.000002  -0.000097
    23  H   -0.000000  -0.000000   0.000000   0.000024   0.000000  -0.000024
    24  H   -0.000000   0.000000   0.000000   0.000000  -0.000000   0.000004
    25  H    0.000000  -0.000000   0.000000   0.000019  -0.000000  -0.000070
    26  H    0.000000  -0.000000   0.000000   0.000004   0.000000  -0.000067
    27  H   -0.000172   0.001125   0.003284  -0.074755   0.001759   0.000041
               7          8          9         10         11         12
     1  O    0.000011  -0.000000   0.000000  -0.000000   0.000000  -0.000000
     2  N   -0.000125   0.000002  -0.000006   0.000000  -0.000000   0.000002
     3  O   -0.000005   0.000000   0.000000   0.000000  -0.000000   0.000000
     4  C    0.003125  -0.000152   0.000459  -0.000018  -0.000022  -0.000049
     5  C   -0.031053   0.002521   0.001852  -0.000072   0.000016  -0.000139
     6  N    0.211206  -0.048987  -0.058520   0.003427  -0.000156   0.003536
     7  C    5.000328   0.415704   0.342087  -0.049591  -0.007582  -0.064685
     8  H    0.415704   0.548924  -0.060865   0.001241  -0.000261  -0.002993
     9  C    0.342087  -0.060865   5.181319   0.317594  -0.053113  -0.005925
    10  C   -0.049591   0.001241   0.317594   5.128003   0.332752  -0.060202
    11  C   -0.007582  -0.000261  -0.053113   0.332752   5.124620   0.330330
    12  C   -0.064685  -0.002993  -0.005925  -0.060202   0.330330   5.138590
    13  C    0.329733  -0.039239  -0.052034  -0.001453  -0.048072   0.367055
    14  H   -0.039808  -0.000951   0.003802  -0.000384   0.003934  -0.040442
    15  N   -0.060777   0.004028  -0.012543   0.001559  -0.007789  -0.073898
    16  C   -0.001033  -0.000082  -0.000343  -0.000060   0.000030   0.002418
    17  H    0.001635  -0.000035  -0.000072   0.000001   0.000000   0.000001
    18  H   -0.029673  -0.002780   0.000628  -0.000112   0.000011  -0.000136
    19  H   -0.035123   0.004090   0.386554  -0.033087  -0.002256   0.000639
    20  H   -0.041407  -0.001765   0.397196  -0.037439   0.004139  -0.000359
    21  H    0.004051  -0.000083  -0.035791   0.399928  -0.035951   0.004227
    22  H   -0.004259   0.003548  -0.045553   0.395804  -0.045618  -0.001279
    23  H    0.000426   0.000034  -0.001980  -0.040192   0.396700  -0.036818
    24  H   -0.000150  -0.000098   0.004378  -0.038484   0.400235  -0.037894
    25  H    0.004995  -0.000000  -0.000382   0.004107  -0.034027   0.395354
    26  H   -0.004456   0.001536   0.001048  -0.002402  -0.042191   0.394708
    27  H   -0.000393   0.000008  -0.000052   0.000004   0.000005  -0.000022
              13         14         15         16         17         18
     1  O   -0.000027  -0.000005  -0.000046   0.001388   0.001138   0.000000
     2  N   -0.000038  -0.000069   0.001904  -0.029236  -0.002351  -0.000060
     3  O    0.000004   0.000001   0.000122   0.002936   0.000418   0.000003
     4  C   -0.009799   0.002508  -0.066866   0.324859  -0.038290   0.001565
     5  C    0.001025   0.004829  -0.006413  -0.029386   0.389704  -0.022659
     6  N   -0.045919  -0.005487   0.003529  -0.002516  -0.032029   0.327671
     7  C    0.329733  -0.039808  -0.060777  -0.001033   0.001635  -0.029673
     8  H   -0.039239  -0.000951   0.004028  -0.000082  -0.000035  -0.002780
     9  C   -0.052034   0.003802  -0.012543  -0.000343  -0.000072   0.000628
    10  C   -0.001453  -0.000384   0.001559  -0.000060   0.000001  -0.000112
    11  C   -0.048072   0.003934  -0.007789   0.000030   0.000000   0.000011
    12  C    0.367055  -0.040442  -0.073898   0.002418   0.000001  -0.000136
    13  C    5.020842   0.403802   0.247591  -0.070843  -0.000047   0.003789
    14  H    0.403802   0.512007  -0.035229  -0.005573   0.000055   0.000013
    15  N    0.247591  -0.035229   6.922667   0.600670  -0.000051  -0.000116
    16  C   -0.070843  -0.005573   0.600670   4.672487   0.001359  -0.000178
    17  H   -0.000047   0.000055  -0.000051   0.001359   0.421750  -0.002122
    18  H    0.003789   0.000013  -0.000116  -0.000178  -0.002122   0.331936
    19  H   -0.006110   0.000059   0.006697   0.002073   0.000011  -0.000109
    20  H    0.003885  -0.000050   0.000080  -0.000036  -0.000002   0.002744
    21  H   -0.000390   0.000009  -0.000035   0.000003  -0.000000  -0.000000
    22  H    0.000332  -0.000042   0.000007  -0.000001   0.000000   0.000003
    23  H   -0.005849   0.000006   0.006701   0.000071   0.000000   0.000000
    24  H    0.004148  -0.000059   0.000034   0.000005   0.000000  -0.000000
    25  H   -0.034700  -0.002654   0.000893  -0.000049  -0.000000   0.000002
    26  H   -0.044480  -0.000911   0.004142  -0.000054   0.000000  -0.000001
    27  H    0.004880  -0.000166  -0.035299   0.402563  -0.000071   0.000002
              19         20         21         22         23         24
     1  O   -0.000000  -0.000000   0.000000  -0.000000  -0.000000  -0.000000
     2  N   -0.000000  -0.000000  -0.000000   0.000000  -0.000000   0.000000
     3  O    0.000001   0.000000  -0.000000   0.000000   0.000000   0.000000
     4  C   -0.000829  -0.000033   0.000000  -0.000000   0.000024   0.000000
     5  C    0.000675   0.000040   0.000001  -0.000002   0.000000  -0.000000
     6  N    0.000697  -0.001377  -0.000060  -0.000097  -0.000024   0.000004
     7  C   -0.035123  -0.041407   0.004051  -0.004259   0.000426  -0.000150
     8  H    0.004090  -0.001765  -0.000083   0.003548   0.000034  -0.000098
     9  C    0.386554   0.397196  -0.035791  -0.045553  -0.001980   0.004378
    10  C   -0.033087  -0.037439   0.399928   0.395804  -0.040192  -0.038484
    11  C   -0.002256   0.004139  -0.035951  -0.045618   0.396700   0.400235
    12  C    0.000639  -0.000359   0.004227  -0.001279  -0.036818  -0.037894
    13  C   -0.006110   0.003885  -0.000390   0.000332  -0.005849   0.004148
    14  H    0.000059  -0.000050   0.000009  -0.000042   0.000006  -0.000059
    15  N    0.006697   0.000080  -0.000035   0.000007   0.006701   0.000034
    16  C    0.002073  -0.000036   0.000003  -0.000001   0.000071   0.000005
    17  H    0.000011  -0.000002  -0.000000   0.000000   0.000000   0.000000
    18  H   -0.000109   0.002744  -0.000000   0.000003   0.000000  -0.000000
    19  H    0.508012  -0.023804  -0.002604   0.003780   0.001664  -0.000071
    20  H   -0.023804   0.549517  -0.002649  -0.002942  -0.000050  -0.000090
    21  H   -0.002604  -0.002649   0.527594  -0.024819  -0.002836  -0.002080
    22  H    0.003780  -0.002942  -0.024819   0.569588   0.004076  -0.003584
    23  H    0.001664  -0.000050  -0.002836   0.004076   0.511310  -0.025075
    24  H   -0.000071  -0.000090  -0.002080  -0.003584  -0.025075   0.541990
    25  H   -0.000027   0.000011  -0.000087  -0.000082  -0.002082  -0.002402
    26  H    0.000024  -0.000035  -0.000073   0.002455   0.003821  -0.002748
    27  H    0.000081   0.000000  -0.000000   0.000000  -0.000020  -0.000000
              25         26         27
     1  O    0.000000   0.000000  -0.000172
     2  N   -0.000000  -0.000000   0.001125
     3  O    0.000000   0.000000   0.003284
     4  C    0.000019   0.000004  -0.074755
     5  C   -0.000000   0.000000   0.001759
     6  N   -0.000070  -0.000067   0.000041
     7  C    0.004995  -0.004456  -0.000393
     8  H   -0.000000   0.001536   0.000008
     9  C   -0.000382   0.001048  -0.000052
    10  C    0.004107  -0.002402   0.000004
    11  C   -0.034027  -0.042191   0.000005
    12  C    0.395354   0.394708  -0.000022
    13  C   -0.034700  -0.044480   0.004880
    14  H   -0.002654  -0.000911  -0.000166
    15  N    0.000893   0.004142  -0.035299
    16  C   -0.000049  -0.000054   0.402563
    17  H   -0.000000   0.000000  -0.000071
    18  H    0.000002  -0.000001   0.000002
    19  H   -0.000027   0.000024   0.000081
    20  H    0.000011  -0.000035   0.000000
    21  H   -0.000087  -0.000073  -0.000000
    22  H   -0.000082   0.002455   0.000000
    23  H   -0.002082   0.003821  -0.000020
    24  H   -0.002402  -0.002748  -0.000000
    25  H    0.511866  -0.023188  -0.000011
    26  H   -0.023188   0.560232   0.000001
    27  H   -0.000011   0.000001   0.465888
 Mulliken charges:
               1
     1  O   -0.441347
     2  N    0.463803
     3  O   -0.444397
     4  C    0.027104
     5  C    0.185003
     6  N   -0.795700
     7  C    0.056816
     8  H    0.176652
     9  C   -0.309740
    10  C   -0.320924
    11  C   -0.315735
    12  C   -0.312017
    13  C   -0.028086
    14  H    0.200806
    15  N   -0.501562
    16  C    0.128526
    17  H    0.258999
    18  H    0.389580
    19  H    0.188963
    20  H    0.154427
    21  H    0.171645
    22  H    0.148686
    23  H    0.190090
    24  H    0.161941
    25  H    0.182512
    26  H    0.152636
    27  H    0.231319
 Sum of Mulliken charges =  -0.00000
 Mulliken charges with hydrogens summed into heavy atoms:
               1
     1  O   -0.441347
     2  N    0.463803
     3  O   -0.444397
     4  C    0.027104
     5  C    0.444002
     6  N   -0.406121
     7  C    0.233468
     9  C    0.033650
    10  C   -0.000594
    11  C    0.036296
    12  C    0.023131
    13  C    0.172719
    15  N   -0.501562
    16  C    0.359846
 Electronic spatial extent (au):  <R**2>=           3060.6170
 Charge=             -0.0000 electrons
 Dipole moment (field-independent basis, Debye):
    X=              4.5196    Y=              4.1806    Z=              0.8366  Tot=              6.2132
 Quadrupole moment (field-independent basis, Debye-Ang):
   XX=           -100.9038   YY=            -76.1641   ZZ=            -87.3613
   XY=             -2.5867   XZ=              0.2218   YZ=              1.4473
 Traceless Quadrupole moment (field-independent basis, Debye-Ang):
   XX=            -12.7607   YY=             11.9789   ZZ=              0.7817
   XY=             -2.5867   XZ=              0.2218   YZ=              1.4473
 Octapole moment (field-independent basis, Debye-Ang**2):
  XXX=             73.2651  YYY=             29.3019  ZZZ=             -1.3086  XYY=            -19.5537
  XXY=             18.1047  XXZ=              4.7483  XZZ=              8.5278  YZZ=             -1.5512
  YYZ=              2.6073  XYZ=             -5.4690
 Hexadecapole moment (field-independent basis, Debye-Ang**3):
 XXXX=          -3360.2676 YYYY=           -551.1400 ZZZZ=           -380.0964 XXXY=            -78.2752
 XXXZ=             -5.3839 YYYX=             -1.9806 YYYZ=             17.7015 ZZZX=              1.6880
 ZZZY=              7.9410 XXYY=           -570.6010 XXZZ=           -605.6680 YYZZ=           -166.5417
 XXYZ=             17.2681 YYXZ=              9.2635 ZZXY=             -2.0212
 N-N= 9.211743609270D+02 E-N=-3.388489684979D+03  KE= 6.590244695526D+02
 Calling FoFJK, ICntrl=  10002127 FMM=F ISym2X=0 I1Cent= 0 IOpClX= 0 NMat=1 NMatS=1 NMatT=0.
 -------------------------------------------------------------------
 Center     Atomic                   Forces (Hartrees/Bohr)
 Number     Number              X              Y              Z
 -------------------------------------------------------------------
      1        8          -0.016925020    0.000269475    0.019671119
      2        7           0.037868435   -0.005308701   -0.000653307
      3        8          -0.014280635    0.000171210   -0.020441638
      4        6           0.008157677    0.017164472    0.008776038
      5        6           0.008183943   -0.022378596   -0.005032284
      6        7           0.020747299   -0.001442151   -0.003765096
      7        6          -0.006874445    0.006375959    0.002942640
      8        1          -0.010222658   -0.001317778   -0.007608924
      9        6          -0.003639922   -0.000162167   -0.001826176
     10        6           0.002768368   -0.000916671    0.000613673
     11        6          -0.000738364   -0.004322093   -0.002472656
     12        6           0.000683253   -0.008830649   -0.003713500
     13        6           0.008639155   -0.000640869    0.002250850
     14        1           0.000585969    0.004496514   -0.010267936
     15        7           0.001118457   -0.004573724    0.005721149
     16        6          -0.014976143    0.015661145    0.001962173
     17        1           0.009408778   -0.004235596   -0.003071488
     18        1          -0.016683733   -0.002977349    0.003439402
     19        1           0.003158845    0.005437684    0.007801692
     20        1          -0.003288117   -0.007623975    0.002310660
     21        1          -0.004140508    0.001821648    0.009784243
     22        1          -0.004071241   -0.003600098   -0.007528462
     23        1           0.004008970    0.005556333    0.009533457
     24        1          -0.009393709    0.002629855   -0.001907566
     25        1          -0.000848803    0.010709130   -0.001861792
     26        1          -0.004865548   -0.004552935   -0.004643005
     27        1           0.005619697    0.002589929   -0.000013265
 -------------------------------------------------------------------
 Cartesian Forces:  Max     0.037868435 RMS     0.009044404

 GradGradGradGradGradGradGradGradGradGradGradGradGradGradGradGradGradGrad
 Berny optimization.
 FormGI is forming the generalized inverse of G from B-inverse, IUseBI=4.
 Internal  Forces:  Max     0.027358033 RMS     0.006116468
 Search for a local minimum.
 Step number   1 out of a maximum of   20
 All quantities printed in internal units (Hartrees-Bohrs-Radians)
 Mixed Optimization -- RFO/linear search
 Second derivative matrix not updated -- first step.
 ITU=  0
     Eigenvalues ---    0.00698   0.00769   0.01097   0.01181   0.01336
     Eigenvalues ---    0.01507   0.01540   0.01665   0.02001   0.02075
     Eigenvalues ---    0.02153   0.02670   0.03654   0.04507   0.04697
     Eigenvalues ---    0.04837   0.05069   0.05138   0.05300   0.05867
     Eigenvalues ---    0.06272   0.07213   0.07700   0.07716   0.07859
     Eigenvalues ---    0.07997   0.08040   0.08049   0.10460   0.11738
     Eigenvalues ---    0.12271   0.13408   0.15179   0.15639   0.15988
     Eigenvalues ---    0.15999   0.20102   0.22032   0.23287   0.24980
     Eigenvalues ---    0.25000   0.25000   0.25313   0.26132   0.26656
     Eigenvalues ---    0.27990   0.28082   0.28421   0.31484   0.31780
     Eigenvalues ---    0.32042   0.32240   0.32290   0.32381   0.32387
     Eigenvalues ---    0.32403   0.32507   0.32527   0.32586   0.33352
     Eigenvalues ---    0.33574   0.34174   0.34767   0.35239   0.43886
     Eigenvalues ---    0.45574   0.49523   0.67283   0.91955   0.91986
     Eigenvalues --- 1000.000001000.000001000.000001000.000001000.00000
     Eigenvalues --- 1000.000001000.000001000.000001000.000001000.00000
     Eigenvalues --- 1000.000001000.000001000.000001000.000001000.00000
     Eigenvalues --- 1000.000001000.000001000.000001000.000001000.00000
     Eigenvalues --- 1000.000001000.000001000.000001000.000001000.00000
     Eigenvalues --- 1000.000001000.000001000.000001000.000001000.00000
     Eigenvalues --- 1000.000001000.000001000.000001000.000001000.00000
     Eigenvalues --- 1000.000001000.000001000.000001000.000001000.00000
     Eigenvalues --- 1000.000001000.000001000.000001000.000001000.00000
     Eigenvalues --- 1000.000001000.000001000.000001000.000001000.00000
     Eigenvalues --- 1000.000001000.000001000.000001000.000001000.00000
     Eigenvalues --- 1000.000001000.000001000.000001000.000001000.00000
     Eigenvalues --- 1000.000001000.000001000.000001000.000001000.00000
     Eigenvalues --- 1000.000001000.000001000.000001000.000001000.00000
     Eigenvalues --- 1000.000001000.000001000.000001000.000001000.00000
     Eigenvalues --- 1000.000001000.000001000.000001000.000001000.00000
     Eigenvalues --- 1000.000001000.000001000.000001000.000001000.00000
     Eigenvalues --- 1000.000001000.000001000.000001000.000001000.00000
     Eigenvalues --- 1000.00000
 RFO step:  Lambda=-1.80018542D-02 EMin= 6.97932896D-03
 Linear search not attempted -- first point.
 Iteration  1 RMS(Cart)=  0.04351952 RMS(Int)=  0.00111626
 Iteration  2 RMS(Cart)=  0.00133855 RMS(Int)=  0.00028062
 Iteration  3 RMS(Cart)=  0.00000070 RMS(Int)=  0.00028062
 Iteration  1 RMS(Cart)=  0.00001551 RMS(Int)=  0.00000967
 Iteration  2 RMS(Cart)=  0.00000888 RMS(Int)=  0.00001065
 Iteration  3 RMS(Cart)=  0.00000531 RMS(Int)=  0.00001204
 Iteration  4 RMS(Cart)=  0.00000339 RMS(Int)=  0.00001317
 Iteration  5 RMS(Cart)=  0.00000237 RMS(Int)=  0.00001402
 Iteration  6 RMS(Cart)=  0.00000182 RMS(Int)=  0.00001466
 Iteration  7 RMS(Cart)=  0.00000149 RMS(Int)=  0.00001518
 Iteration  8 RMS(Cart)=  0.00000126 RMS(Int)=  0.00001560
 Iteration  9 RMS(Cart)=  0.00000109 RMS(Int)=  0.00001596
 Iteration 10 RMS(Cart)=  0.00000095 RMS(Int)=  0.00001626
 Variable       Old X    -DE/DX   Delta X   Delta X   Delta X     New X
                                 (Linear)    (Quad)   (Total)
    R1        2.32031   0.02461   0.00000   0.02624   0.02624   2.34655
    R2        2.32045   0.02454   0.00000   0.02617   0.02617   2.34662
    R3        2.79355  -0.00574   0.00000  -0.01571  -0.01571   2.77785
    R4        2.62884  -0.02736   0.00000  -0.05821  -0.05805   2.57078
    R5        2.78894  -0.01954   0.00000  -0.05636  -0.05627   2.73268
    R6        2.58875  -0.01731   0.00000  -0.03300  -0.03288   2.55587
    R7        2.08437  -0.01024   0.00000  -0.02913  -0.02913   2.05524
    R8        2.82771  -0.02133   0.00000  -0.05906  -0.05906   2.76864
    R9        1.93291  -0.00703   0.00000  -0.01539  -0.01539   1.91752
   R10        2.11798  -0.01191   0.00000  -0.03579  -0.03579   2.08220
   R11        2.92743  -0.01270   0.00000  -0.04398  -0.04398   2.88345
   R12        2.90769  -0.00421   0.00000  -0.00943  -0.00939   2.89830
   R13        2.91147  -0.00458   0.00000  -0.01444  -0.01449   2.89698
   R14        2.09926  -0.00981   0.00000  -0.02859  -0.02859   2.07066
   R15        2.09890  -0.00818   0.00000  -0.02383  -0.02383   2.07507
   R16        2.90432  -0.00201   0.00000  -0.00758  -0.00767   2.89666
   R17        2.10142  -0.01052   0.00000  -0.03079  -0.03079   2.07063
   R18        2.10316  -0.00900   0.00000  -0.02640  -0.02640   2.07676
   R19        2.91731  -0.00916   0.00000  -0.02969  -0.02969   2.88762
   R20        2.10408  -0.01158   0.00000  -0.03401  -0.03401   2.07007
   R21        2.10113  -0.00991   0.00000  -0.02898  -0.02898   2.07215
   R22        2.93521  -0.01052   0.00000  -0.03692  -0.03687   2.89833
   R23        2.10153  -0.01075   0.00000  -0.03144  -0.03144   2.07009
   R24        2.09785  -0.00792   0.00000  -0.02303  -0.02303   2.07482
   R25        2.10767  -0.00961   0.00000  -0.02839  -0.02839   2.07929
   R26        2.77266  -0.00680   0.00000  -0.01572  -0.01595   2.75671
   R27        2.44171  -0.00415   0.00000  -0.00640  -0.00649   2.43521
   R28        2.08055  -0.00440   0.00000  -0.01245  -0.01245   2.06810
    A1        2.20921  -0.00730   0.00000  -0.02560  -0.02673   2.18248
    A2        2.03461   0.00573   0.00000   0.02301   0.02189   2.05650
    A3        2.03418   0.00249   0.00000   0.01091   0.00979   2.04397
    A4        1.99253   0.00399   0.00000   0.01915   0.01899   2.01152
    A5        2.01811  -0.00494   0.00000  -0.01434  -0.01450   2.00361
    A6        2.27167   0.00091   0.00000  -0.00432  -0.00408   2.26760
    A7        2.18113   0.01119   0.00000   0.04279   0.04310   2.22423
    A8        2.06550  -0.00273   0.00000  -0.00476  -0.00500   2.06050
    A9        2.03540  -0.00842   0.00000  -0.03710  -0.03736   1.99804
   A10        2.25029  -0.00720   0.00000  -0.02287  -0.02272   2.22758
   A11        2.11383  -0.01080   0.00000  -0.06709  -0.06761   2.04622
   A12        1.87252   0.01794   0.00000   0.09876   0.09883   1.97135
   A13        1.83735  -0.00191   0.00000  -0.01711  -0.01686   1.82049
   A14        2.00457  -0.00057   0.00000  -0.01038  -0.01065   1.99392
   A15        1.97251   0.00109   0.00000  -0.00511  -0.00554   1.96697
   A16        1.85275   0.00270   0.00000   0.02574   0.02562   1.87837
   A17        1.84865   0.00111   0.00000   0.02417   0.02391   1.87256
   A18        1.93399  -0.00209   0.00000  -0.01172  -0.01142   1.92257
   A19        1.91035   0.00056   0.00000  -0.00453  -0.00464   1.90571
   A20        1.92170  -0.00071   0.00000  -0.01381  -0.01379   1.90792
   A21        1.92307  -0.00193   0.00000  -0.00774  -0.00776   1.91531
   A22        1.91924  -0.00056   0.00000   0.00546   0.00542   1.92465
   A23        1.90477   0.00300   0.00000   0.02664   0.02664   1.93141
   A24        1.88451  -0.00034   0.00000  -0.00561  -0.00589   1.87862
   A25        1.94084  -0.00102   0.00000   0.00570   0.00558   1.94642
   A26        1.91877  -0.00052   0.00000  -0.00630  -0.00632   1.91245
   A27        1.90491   0.00028   0.00000  -0.00309  -0.00316   1.90174
   A28        1.91602   0.00070   0.00000   0.00750   0.00754   1.92355
   A29        1.89850   0.00183   0.00000   0.01153   0.01156   1.91007
   A30        1.88376  -0.00125   0.00000  -0.01587  -0.01596   1.86780
   A31        1.94461   0.00069   0.00000   0.00555   0.00566   1.95028
   A32        1.90246   0.00058   0.00000   0.00650   0.00647   1.90893
   A33        1.91721   0.00043   0.00000   0.00571   0.00567   1.92288
   A34        1.90699  -0.00126   0.00000  -0.01550  -0.01555   1.89144
   A35        1.91528  -0.00040   0.00000   0.00046   0.00037   1.91565
   A36        1.87592  -0.00007   0.00000  -0.00313  -0.00317   1.87275
   A37        1.94612  -0.00285   0.00000  -0.02015  -0.02015   1.92597
   A38        1.90628   0.00238   0.00000   0.01688   0.01669   1.92297
   A39        1.91132   0.00147   0.00000   0.01518   0.01514   1.92646
   A40        1.90631   0.00023   0.00000  -0.00354  -0.00340   1.90292
   A41        1.91204  -0.00033   0.00000  -0.00445  -0.00436   1.90768
   A42        1.88057  -0.00082   0.00000  -0.00336  -0.00356   1.87701
   A43        1.84542   0.00475   0.00000   0.02497   0.02497   1.87039
   A44        1.93472  -0.00425   0.00000  -0.03050  -0.03112   1.90361
   A45        1.99122   0.00109   0.00000   0.01406   0.01459   2.00581
   A46        1.88119   0.00234   0.00000   0.03433   0.03464   1.91582
   A47        1.89109  -0.00452   0.00000  -0.03273  -0.03289   1.85820
   A48        1.91542   0.00079   0.00000  -0.00740  -0.00725   1.90817
   A49        2.08603  -0.00544   0.00000  -0.01088  -0.01122   2.07481
   A50        2.23686  -0.00053   0.00000  -0.00516  -0.00550   2.23136
   A51        1.98050   0.00367   0.00000   0.02123   0.02067   2.00117
   A52        2.06564  -0.00316   0.00000  -0.01710  -0.01761   2.04802
    D1       -1.43658   0.00612   0.00000   0.01104   0.01096  -1.42562
    D2        1.74532   0.00717   0.00000   0.00000  -0.00000   1.74532
    D3        1.80699  -0.00237   0.00000  -0.06883  -0.06889   1.73810
    D4       -1.29430  -0.00132   0.00000  -0.07988  -0.07985  -1.37414
    D5        3.07374   0.00174   0.00000   0.00531   0.00543   3.07917
    D6       -0.01424   0.00090   0.00000  -0.01490  -0.01519  -0.02942
    D7       -0.11540   0.00035   0.00000   0.01818   0.01824  -0.09716
    D8        3.07980  -0.00049   0.00000  -0.00203  -0.00237   3.07743
    D9       -2.78778  -0.00059   0.00000  -0.00728  -0.00750  -2.79528
   D10        0.37530   0.00058   0.00000   0.05153   0.05171   0.42701
   D11        0.40193   0.00062   0.00000  -0.02105  -0.02101   0.38092
   D12       -2.71817   0.00178   0.00000   0.03775   0.03821  -2.67997
   D13       -0.05190  -0.00052   0.00000  -0.00999  -0.00975  -0.06165
   D14        2.72373   0.00262   0.00000   0.04178   0.04080   2.76453
   D15        3.03692   0.00045   0.00000   0.01075   0.01104   3.04795
   D16       -0.47064   0.00359   0.00000   0.06252   0.06158  -0.40906
   D17       -2.54651  -0.00075   0.00000  -0.00745  -0.00720  -2.55371
   D18        1.70546  -0.00250   0.00000  -0.02227  -0.02196   1.68350
   D19       -0.53684  -0.00001   0.00000   0.00869   0.00856  -0.52828
   D20        0.92173   0.00058   0.00000  -0.02908  -0.02966   0.89207
   D21       -1.10949  -0.00118   0.00000  -0.04391  -0.04441  -1.15391
   D22        2.93140   0.00131   0.00000  -0.01295  -0.01390   2.91750
   D23        2.94058   0.00228   0.00000   0.03516   0.03500   2.97558
   D24       -1.23090   0.00149   0.00000   0.03031   0.03018  -1.20072
   D25        0.84590  -0.00057   0.00000   0.00997   0.00992   0.85582
   D26        0.91820   0.00317   0.00000   0.04501   0.04498   0.96318
   D27        3.02990   0.00239   0.00000   0.04016   0.04015   3.07006
   D28       -1.17649   0.00033   0.00000   0.01982   0.01990  -1.15659
   D29       -1.08119   0.00141   0.00000   0.00815   0.00817  -1.07302
   D30        1.03051   0.00062   0.00000   0.00330   0.00335   1.03386
   D31        3.10731  -0.00144   0.00000  -0.01704  -0.01691   3.09040
   D32       -2.89748  -0.00091   0.00000  -0.01575  -0.01545  -2.91294
   D33       -0.86342   0.00240   0.00000   0.02361   0.02344  -0.83999
   D34        1.30938   0.00088   0.00000   0.00000  -0.00000   1.30938
   D35       -0.89459  -0.00198   0.00000  -0.02440  -0.02430  -0.91889
   D36        1.13947   0.00133   0.00000   0.01495   0.01459   1.15406
   D37       -2.97091  -0.00019   0.00000  -0.00865  -0.00884  -2.97976
   D38        1.10736   0.00078   0.00000   0.01343   0.01356   1.12093
   D39        3.14143   0.00410   0.00000   0.05279   0.05245  -3.08931
   D40       -0.96896   0.00258   0.00000   0.02918   0.02901  -0.93994
   D41        0.95665   0.00087   0.00000   0.00000   0.00001   0.95667
   D42        3.08231   0.00072   0.00000   0.00898   0.00894   3.09125
   D43       -1.13786  -0.00094   0.00000  -0.01587  -0.01583  -1.15369
   D44       -1.15654   0.00174   0.00000   0.01652   0.01659  -1.13995
   D45        0.96911   0.00160   0.00000   0.02550   0.02552   0.99463
   D46        3.03213  -0.00007   0.00000   0.00065   0.00074   3.03287
   D47        3.06251   0.00069   0.00000   0.00416   0.00413   3.06664
   D48       -1.09502   0.00055   0.00000   0.01314   0.01306  -1.08196
   D49        0.96800  -0.00112   0.00000  -0.01171  -0.01172   0.95628
   D50       -0.92192  -0.00061   0.00000   0.00000   0.00001  -0.92190
   D51        1.18392  -0.00136   0.00000  -0.01152  -0.01153   1.17240
   D52       -3.04809  -0.00086   0.00000  -0.00821  -0.00824  -3.05633
   D53       -3.04917   0.00024   0.00000  -0.00094  -0.00092  -3.05009
   D54       -0.94333  -0.00051   0.00000  -0.01246  -0.01246  -0.95578
   D55        1.10784  -0.00000   0.00000  -0.00914  -0.00916   1.09868
   D56        1.17639   0.00028   0.00000   0.00716   0.00720   1.18359
   D57       -3.00095  -0.00047   0.00000  -0.00436  -0.00434  -3.00530
   D58       -0.94978   0.00003   0.00000  -0.00105  -0.00105  -0.95084
   D59        0.99043  -0.00096   0.00000  -0.01163  -0.01165   0.97878
   D60        3.09893  -0.00091   0.00000  -0.01773  -0.01788   3.08105
   D61       -1.12864   0.00033   0.00000  -0.00311  -0.00306  -1.13170
   D62       -1.11275  -0.00129   0.00000  -0.01303  -0.01300  -1.12575
   D63        0.99575  -0.00124   0.00000  -0.01913  -0.01924   0.97651
   D64        3.05136   0.00000   0.00000  -0.00451  -0.00442   3.04695
   D65        3.11773  -0.00023   0.00000  -0.00039  -0.00038   3.11735
   D66       -1.05696  -0.00018   0.00000  -0.00649  -0.00661  -1.06358
   D67        0.99866   0.00106   0.00000   0.00813   0.00821   1.00686
   D68       -1.05720  -0.00006   0.00000  -0.00259  -0.00257  -1.05976
   D69       -3.12720   0.00125   0.00000   0.00286   0.00241  -3.12480
   D70        1.08430   0.00149   0.00000   0.01054   0.01059   1.09488
   D71        3.11751  -0.00136   0.00000  -0.00843  -0.00834   3.10917
   D72        1.04750  -0.00005   0.00000  -0.00299  -0.00337   1.04414
   D73       -1.02418   0.00019   0.00000   0.00470   0.00481  -1.01937
   D74        1.06146  -0.00031   0.00000   0.00029   0.00043   1.06189
   D75       -1.00855   0.00100   0.00000   0.00574   0.00541  -1.00314
   D76       -3.08024   0.00124   0.00000   0.01342   0.01359  -3.06665
   D77       -1.17217   0.00381   0.00000   0.00000  -0.00000  -1.17217
   D78        3.06080   0.00026   0.00000  -0.01765  -0.01750   3.04330
   D79        1.01092  -0.00039   0.00000  -0.03586  -0.03616   0.97476
   D80        0.20561  -0.00183   0.00000   0.00477   0.00472   0.21033
   D81       -2.95838  -0.00297   0.00000  -0.05611  -0.05545  -3.01384
         Item               Value     Threshold  Converged?
 Maximum Force            0.027092     0.000450     NO 
 RMS     Force            0.006120     0.000300     NO 
 Maximum Displacement     0.149463     0.001800     NO 
 RMS     Displacement     0.043504     0.001200     NO 
 Predicted change in Energy=-9.922066D-03
 GradGradGradGradGradGradGradGradGradGradGradGradGradGradGradGradGradGrad

                          Input orientation:                          
 ---------------------------------------------------------------------
 Center     Atomic      Atomic             Coordinates (Angstroms)
 Number     Number       Type             X           Y           Z
 ---------------------------------------------------------------------
      1          8           0       -3.702555   -0.507230    0.951756
      2          7           0       -3.118629   -0.245130   -0.112318
      3          8           0       -3.658623   -0.199754   -1.229619
      4          6           0       -1.670915    0.003716   -0.057372
      5          6           0       -1.312043    1.261421    0.316899
      6          7           0       -0.060513    1.735467    0.512448
      7          6           0        1.199608    0.991834    0.437400
      8          1           0        1.841284    1.466067    1.197288
      9          6           0        1.914312    1.104123   -0.906039
     10          6           0        3.314321    0.491419   -0.784750
     11          6           0        3.254460   -0.949567   -0.265529
     12          6           0        2.451295   -1.051369    1.030441
     13          6           0        1.041214   -0.482255    0.830144
     14          1           0        0.477389   -0.544485    1.772966
     15          7           0        0.395943   -1.320241   -0.174577
     16          6           0       -0.847283   -1.118997   -0.447582
     17          1           0       -2.102748    1.981289    0.515450
     18          1           0        0.069251    2.740377    0.458172
     19          1           0        1.333697    0.576088   -1.670714
     20          1           0        1.977512    2.158688   -1.205498
     21          1           0        3.814212    0.522185   -1.759321
     22          1           0        3.913630    1.103600   -0.096410
     23          1           0        2.778075   -1.587443   -1.017956
     24          1           0        4.267978   -1.336025   -0.104847
     25          1           0        2.372780   -2.097698    1.345127
     26          1           0        2.954024   -0.500285    1.836083
     27          1           0       -1.338695   -1.836796   -1.111638
 ---------------------------------------------------------------------
                    Distance matrix (angstroms):
                    1          2          3          4          5
     1  O    0.000000
     2  N    1.241740   0.000000
     3  O    2.203376   1.241779   0.000000
     4  C    2.325288   1.469972   2.316580   0.000000
     5  C    3.040677   2.391166   3.167521   1.360401   0.000000
     6  N    4.299668   3.696643   4.441426   2.432499   1.352511
     7  C    5.151986   4.525422   5.272688   3.075887   2.528950
     8  H    5.889680   5.407772   6.238094   4.006019   3.280310
     9  C    6.131643   5.270766   5.732574   3.845125   3.453937
    10  C    7.297211   6.509801   7.021223   5.061572   4.817652
    11  C    7.076545   6.413732   7.020142   5.021095   5.106920
    12  C    6.178361   5.742819   6.569947   4.391942   4.474466
    13  C    4.745393   4.271856   5.139153   2.894736   2.973490
    14  H    4.260012   4.071272   5.122592   2.875043   2.929760
    15  N    4.327505   3.675861   4.336832   2.457336   3.134284
    16  C    3.238053   2.456636   3.059448   1.446070   2.542994
    17  H    2.990396   2.526470   3.197336   2.103663   1.087588
    18  H    5.001709   4.404690   5.038854   3.283791   2.028606
    19  H    5.780550   4.788132   5.071465   3.458060   3.379382
    20  H    6.635059   5.739689   6.109733   4.390116   3.734160
    21  H    8.056762   7.166985   7.526290   5.766460   5.579932
    22  H    7.854915   7.160446   7.766718   5.691961   5.244367
    23  H    6.858949   6.114990   6.587986   4.821620   5.160128
    24  H    8.082865   7.466731   8.086237   6.088318   6.169378
    25  H    6.292378   5.975929   6.827102   4.768061   5.091055
    26  H    6.715067   6.382670   7.294926   5.022872   4.859100
    27  H    3.407810   2.588475   2.841811   2.146935   3.411799
                    6          7          8          9         10
     6  N    0.000000
     7  C    1.465104   0.000000
     8  H    2.039219   1.101850   0.000000
     9  C    2.512098   1.525856   2.135490   0.000000
    10  C    3.823595   2.493205   2.654854   1.533017   0.000000
    11  C    4.336323   2.912998   3.157877   2.534539   1.532845
    12  C    3.787341   2.468419   2.595657   2.946938   2.533757
    13  C    2.496603   1.533713   2.137959   2.508630   2.953462
    14  H    2.660155   2.160003   2.496785   3.458283   3.957674
    15  N    3.165076   2.523110   3.425571   2.952629   3.488746
    16  C    3.112656   3.070596   4.076339   3.574751   4.475049
    17  H    2.056978   3.448285   4.035560   4.350496   5.766703
    18  H    1.014707   2.082197   2.304400   2.818271   4.139220
    19  H    2.837989   2.152898   3.045512   1.095748   2.171399
    20  H    2.698888   2.160045   2.504328   1.098079   2.178043
    21  H    4.652578   3.447072   3.677621   2.162489   1.095731
    22  H    4.069862   2.768277   2.469747   2.157028   1.098976
    23  H    4.630491   3.355933   3.887005   2.828982   2.159540
    24  H    5.343309   3.889454   3.928883   3.483672   2.170549
    25  H    4.615996   3.427172   3.606212   3.940760   3.482298
    26  H    3.979702   2.694570   2.347933   3.342806   2.825253
    27  H    4.127041   4.104102   5.133450   4.390140   5.213252
                   11         12         13         14         15
    11  C    0.000000
    12  C    1.528063   0.000000
    13  C    2.513431   1.533733   0.000000
    14  H    3.468670   2.169004   1.100311   0.000000
    15  N    2.883884   2.397671   1.458786   2.097940   0.000000
    16  C    4.109275   3.615209   2.367371   2.648708   1.288659
    17  H    6.156258   5.495592   4.006567   3.823348   4.197581
    18  H    4.927980   4.514306   3.386508   3.561682   4.122586
    19  H    2.826923   3.345725   2.731287   3.721274   2.591114
    20  H    3.489324   3.940603   3.463390   4.292873   3.958169
    21  H    2.170436   3.480860   3.924761   4.974859   4.194104
    22  H    2.163008   2.837624   3.409430   4.244821   4.272615
    23  H    1.095433   2.142449   2.766514   3.764327   2.541109
    24  H    1.096535   2.161075   3.466286   4.303636   3.872695
    25  H    2.165589   1.095443   2.155905   2.487573   2.611862
    26  H    2.169997   1.097948   2.161268   2.477833   3.355422
    27  H    4.753961   4.423734   3.356973   3.645431   2.038108
                   16         17         18         19         20
    16  C    0.000000
    17  H    3.480717   0.000000
    18  H    4.068807   2.301537   0.000000
    19  H    3.020933   4.308486   3.288636   0.000000
    20  H    4.392848   4.431890   2.597618   1.770747   0.000000
    21  H    5.113088   6.504919   4.884914   2.482682   2.521572
    22  H    5.265885   6.110770   4.214955   3.068022   2.468165
    23  H    3.699727   6.237756   5.314763   2.682012   3.835306
    24  H    5.131322   7.209403   5.879061   3.836421   4.320959
    25  H    3.813196   6.112024   5.431381   4.162225   4.977825
    26  H    4.477484   5.785604   4.552191   4.010195   4.156311
    27  H    1.094391   4.220066   5.039557   3.643660   5.193258
                   21         22         23         24         25
    21  H    0.000000
    22  H    1.764427   0.000000
    23  H    2.464495   3.062752   0.000000
    24  H    2.529058   2.465240   1.765444   0.000000
    25  H    4.310349   3.834130   2.451282   2.504864   0.000000
    26  H    3.835661   2.688460   3.059151   2.488402   1.769353
    27  H    5.704098   6.104387   4.125379   5.718320   4.458566
                   26         27
    26  H    0.000000
    27  H    5.376129   0.000000
 Symmetry turned off by external request.
 Stoichiometry    C9H13N3O2
 Framework group  C1[X(C9H13N3O2)]
 Deg. of freedom    75
 Full point group                 C1      NOp   1
 Rotational constants (GHZ):           1.6670861           0.4102930           0.3830464
 Standard basis: 6-31G(d) (6D, 7F)
   236 basis functions,   444 primitive gaussians,   236 cartesian basis functions
    52 alpha electrons       52 beta electrons
       nuclear repulsion energy       929.9556025247 Hartrees.
 NAtoms=   27 NActive=   27 NUniq=   27 SFac= 1.00D+00 NAtFMM=   60 NAOKFM=F Big=F
 Integral buffers will be    131072 words long.
 Raffenetti 1 integral format.
 Two-electron integral symmetry is turned off.
 One-electron integrals computed using PRISM.
 NBasis=   236 RedAO= T EigKep=  1.51D-03  NBF=   236
 NBsUse=   236 1.00D-06 EigRej= -1.00D+00 NBFU=   236
 Initial guess from the checkpoint file:  "/home/alexey/tmp/Gau-1071668.chk"
 B after Tr=     0.032505   -0.001025    0.000477
         Rot=    0.999999   -0.001120    0.000633    0.000019 Ang=  -0.15 deg.
 ExpMin= 1.61D-01 ExpMax= 5.48D+03 ExpMxC= 8.25D+02 IAcc=3 IRadAn=         5 AccDes= 0.00D+00
 Harris functional with IExCor=  205 and IRadAn=       5 diagonalized for initial guess.
 HarFok:  IExCor=  205 AccDes= 0.00D+00 IRadAn=         5 IDoV= 1 UseB2=F ITyADJ=14
 ICtDFT=  3500011 ScaDFX=  1.000000  1.000000  1.000000  1.000000
 FoFCou: FMM=F IPFlag=           0 FMFlag=      100000 FMFlg1=           0
         NFxFlg=           0 DoJE=T BraDBF=F KetDBF=T FulRan=T
         wScrn=  0.000000 ICntrl=       500 IOpCl=  0 I1Cent=   200000004 NGrid=           0
         NMat0=    1 NMatS0=      1 NMatT0=    0 NMatD0=    1 NMtDS0=    0 NMtDT0=    0
 Symmetry not used in FoFCou.
 Keep R1 ints in memory in canonical form, NReq=397720213.
 Requested convergence on RMS density matrix=1.00D-08 within 128 cycles.
 Requested convergence on MAX density matrix=1.00D-06.
 Requested convergence on             energy=1.00D-06.
 No special actions if energy rises.
 SCF Done:  E(RHF) =  -661.279422706     A.U. after   15 cycles
            NFock= 15  Conv=0.61D-08     -V/T= 2.0025
 ExpMin= 1.61D-01 ExpMax= 5.48D+03 ExpMxC= 8.25D+02 IAcc=3 IRadAn=         5 AccDes= 0.00D+00
 HarFok:  IExCor=  205 AccDes= 0.00D+00 IRadAn=         5 IDoV=-2 UseB2=F ITyADJ=14
 ICtDFT= 12500011 ScaDFX=  1.000000  1.000000  1.000000  1.000000
 Range of M.O.s used for correlation:    15   236
 NBasis=   236 NAE=    52 NBE=    52 NFC=    14 NFV=     0
 NROrb=    222 NOA=    38 NOB=    38 NVA=   184 NVB=   184
 Fully direct method using O(ONN) memory.
 JobTyp=1 Pass  1:  I=  15 to  52 NPSUse=  4 ParTrn=T ParDer=T DoDerP=T.
 Spin components of T(2) and E(2):
     alpha-alpha T2 =       0.9147683368D-01 E2=     -0.2725410844D+00
     alpha-beta  T2 =       0.4971641090D+00 E2=     -0.1494097401D+01
     beta-beta   T2 =       0.9147683368D-01 E2=     -0.2725410844D+00
 ANorm=    0.1296193572D+01
 E2 =    -0.2039179570D+01 EUMP2 =    -0.66331860227631D+03
          IDoAtm=111111111111111111111111111
          Differentiating once with respect to electric field.
                with respect to dipole field.
          Differentiating once with respect to nuclear coordinates.
 Keep R1 ints in memory in canonical form, NReq=397723379.
          There are     1 degrees of freedom in the 1st order CPHF.  IDoFFX=0 NUNeed=     1.
 LinEq1:  Iter=  0 NonCon=     1 RMS=4.51D-03 Max=1.14D-01 NDo=     1
 AX will form     1 AO Fock derivatives at one time.
 LinEq1:  Iter=  1 NonCon=     1 RMS=1.50D-03 Max=3.45D-02 NDo=     1
 LinEq1:  Iter=  2 NonCon=     1 RMS=6.35D-04 Max=1.59D-02 NDo=     1
 LinEq1:  Iter=  3 NonCon=     1 RMS=2.78D-04 Max=4.61D-03 NDo=     1
 LinEq1:  Iter=  4 NonCon=     1 RMS=8.41D-05 Max=1.22D-03 NDo=     1
 LinEq1:  Iter=  5 NonCon=     1 RMS=3.26D-05 Max=8.59D-04 NDo=     1
 LinEq1:  Iter=  6 NonCon=     1 RMS=1.23D-05 Max=3.81D-04 NDo=     1
 LinEq1:  Iter=  7 NonCon=     1 RMS=5.03D-06 Max=9.82D-05 NDo=     1
 LinEq1:  Iter=  8 NonCon=     1 RMS=2.13D-06 Max=5.58D-05 NDo=     1
 LinEq1:  Iter=  9 NonCon=     1 RMS=9.37D-07 Max=3.39D-05 NDo=     1
[...]
                   16         17         18         19         20
    16  C    0.000000
    17  H    3.474538   0.000000
    18  H    4.103629   2.230867   0.000000
    19  H    3.000158   4.344349   3.573533   0.000000
    20  H    4.387077   4.494884   2.962668   1.767695   0.000000
    21  H    5.099658   6.541944   5.138804   2.499761   2.522850
    22  H    5.253159   6.111114   4.338265   3.070365   2.462837
    23  H    3.687857   6.238198   5.437213   2.705382   3.843846
    24  H    5.128596   7.194818   5.940777   3.850329   4.318216
    25  H    3.817822   6.052565   5.333759   4.175608   4.986216
    26  H    4.491825   5.740369   4.437832   4.032320   4.176418
    27  H    1.094071   4.239927   5.111708   3.613101   5.177635
                   21         22         23         24         25
    21  H    0.000000
    22  H    1.758804   0.000000
    23  H    2.469912   3.062183   0.000000
    24  H    2.516790   2.459765   1.764343   0.000000
    25  H    4.312154   3.837027   2.446527   2.518194   0.000000
    26  H    3.843533   2.699359   3.060627   2.494273   1.768017
    27  H    5.673420   6.078337   4.095750   5.699027   4.453384
                   26         27
    26  H    0.000000
    27  H    5.380688   0.000000
 Symmetry turned off by external request.
 Stoichiometry    C9H13N3O2
 Framework group  C1[X(C9H13N3O2)]
 Deg. of freedom    75
 Full point group                 C1      NOp   1
 Rotational constants (GHZ):           1.6583000           0.4107535           0.3846511

 **********************************************************************

            Population analysis using the SCF Density.

 **********************************************************************

 Alpha  occ. eigenvalues --  -20.60915 -20.60801 -15.85035 -15.62541 -15.56435
 Alpha  occ. eigenvalues --  -11.34358 -11.30207 -11.29100 -11.28718 -11.26958
 Alpha  occ. eigenvalues --  -11.23178 -11.22866 -11.22497 -11.21879  -1.57969
 Alpha  occ. eigenvalues --   -1.37748  -1.29796  -1.23116  -1.14622  -1.09714
 Alpha  occ. eigenvalues --   -1.02431  -1.00905  -0.94524  -0.89862  -0.85090
 Alpha  occ. eigenvalues --   -0.82615  -0.78265  -0.77931  -0.74832  -0.71871
 Alpha  occ. eigenvalues --   -0.71235  -0.68598  -0.67112  -0.65227  -0.63311
 Alpha  occ. eigenvalues --   -0.61998  -0.60279  -0.57348  -0.56711  -0.54872
 Alpha  occ. eigenvalues --   -0.54210  -0.51340  -0.50213  -0.49183  -0.48360
 Alpha  occ. eigenvalues --   -0.47929  -0.46146  -0.45777  -0.43878  -0.41574
 Alpha  occ. eigenvalues --   -0.39910  -0.33140
 Alpha virt. eigenvalues --    0.08502   0.10267   0.17528   0.21141   0.23432
 Alpha virt. eigenvalues --    0.24686   0.26452   0.28201   0.29175   0.29362
 Alpha virt. eigenvalues --    0.29643   0.31788   0.32107   0.32909   0.34211
 Alpha virt. eigenvalues --    0.34576   0.35638   0.37331   0.38717   0.39039
 Alpha virt. eigenvalues --    0.41183   0.42684   0.44463   0.45931   0.47034
 Alpha virt. eigenvalues --    0.48153   0.50675   0.54285   0.57442   0.58765
 Alpha virt. eigenvalues --    0.59616   0.69878   0.70075   0.72704   0.74189
 Alpha virt. eigenvalues --    0.74598   0.75889   0.76344   0.78777   0.79120
 Alpha virt. eigenvalues --    0.79929   0.83893   0.85610   0.86252   0.88601
 Alpha virt. eigenvalues --    0.89610   0.90196   0.91689   0.92945   0.93188
 Alpha virt. eigenvalues --    0.95361   0.97593   1.00011   1.01675   1.02636
 Alpha virt. eigenvalues --    1.04319   1.06153   1.06627   1.07506   1.08311
 Alpha virt. eigenvalues --    1.10247   1.11177   1.11332   1.11856   1.13219
 Alpha virt. eigenvalues --    1.13826   1.14297   1.14795   1.16179   1.16638
 Alpha virt. eigenvalues --    1.17398   1.19056   1.19572   1.21787   1.23427
 Alpha virt. eigenvalues --    1.24133   1.24917   1.25857   1.27518   1.28202
 Alpha virt. eigenvalues --    1.28795   1.31416   1.33888   1.36503   1.37247
 Alpha virt. eigenvalues --    1.40064   1.42898   1.46428   1.49966   1.52398
 Alpha virt. eigenvalues --    1.54997   1.55918   1.61611   1.62635   1.67034
 Alpha virt. eigenvalues --    1.67995   1.70655   1.72564   1.73727   1.75711
 Alpha virt. eigenvalues --    1.80502   1.84890   1.87728   1.91366   1.92521
 Alpha virt. eigenvalues --    1.95398   1.97082   2.00235   2.01223   2.02359
 Alpha virt. eigenvalues --    2.05957   2.07116   2.07981   2.09182   2.11322
 Alpha virt. eigenvalues --    2.12093   2.14793   2.16012   2.19922   2.22767
 Alpha virt. eigenvalues --    2.23508   2.25327   2.27604   2.28350   2.30363
 Alpha virt. eigenvalues --    2.32565   2.33325   2.33778   2.35952   2.38100
 Alpha virt. eigenvalues --    2.39621   2.40069   2.43155   2.44812   2.47141
 Alpha virt. eigenvalues --    2.48902   2.52076   2.53908   2.55531   2.60377
 Alpha virt. eigenvalues --    2.62306   2.64645   2.68737   2.70364   2.71059
 Alpha virt. eigenvalues --    2.71868   2.73824   2.76110   2.77766   2.81345
 Alpha virt. eigenvalues --    2.88743   2.89933   2.93465   2.95781   2.96276
 Alpha virt. eigenvalues --    2.99181   3.02228   3.04883   3.08617   3.09286
 Alpha virt. eigenvalues --    3.12575   3.15371   3.16064   3.21014   3.23798
 Alpha virt. eigenvalues --    3.29970   3.36266   3.38585   3.40971   3.63660
 Alpha virt. eigenvalues --    4.15108   4.16783   4.30963   4.36233   4.46791
 Alpha virt. eigenvalues --    4.56225   4.61725   4.62645   4.73978   4.79015
 Alpha virt. eigenvalues --    5.00391   5.01473   5.06275   5.10811
          Condensed to atoms (all electrons):
               1          2          3          4          5          6
     1  O    8.299330   0.296114  -0.078174  -0.081159   0.003000   0.000062
     2  N    0.296114   5.828706   0.287831   0.231504  -0.053266   0.001319
     3  O   -0.078174   0.287831   8.304954  -0.082042   0.001528  -0.000017
     4  C   -0.081159   0.231504  -0.082042   5.167111   0.607755  -0.051112
     5  C    0.003000  -0.053266   0.001528   0.607755   4.632217   0.339068
     6  N    0.000062   0.001319  -0.000017  -0.051112   0.339068   7.169516
     7  C    0.000010  -0.000159  -0.000005   0.002558  -0.034898   0.186772
     8  H   -0.000000   0.000003   0.000000  -0.000163   0.003078  -0.049605
     9  C    0.000000  -0.000005   0.000000   0.000931   0.001138  -0.063137
    10  C   -0.000000   0.000000   0.000000  -0.000036  -0.000069   0.003748
    11  C    0.000000  -0.000000  -0.000000  -0.000042   0.000024  -0.000200
    12  C   -0.000000   0.000002   0.000000  -0.000061  -0.000123   0.003887
    13  C   -0.000025  -0.000051   0.000005  -0.011869   0.000707  -0.050600
    14  H   -0.000006  -0.000089   0.000002   0.002848   0.007403  -0.007188
    15  N   -0.000045   0.002347   0.000125  -0.066304  -0.009413   0.003033
    16  C    0.001678  -0.032415   0.002538   0.332976  -0.035626  -0.002846
    17  H    0.001391  -0.003486   0.000376  -0.035858   0.391219  -0.034323
    18  H    0.000004  -0.000074   0.000001   0.002554  -0.028680   0.337706
    19  H   -0.000000  -0.000003   0.000001  -0.001054   0.000919  -0.000094
    20  H   -0.000000  -0.000000   0.000000  -0.000100   0.000179   0.000002
    21  H    0.000000   0.000000  -0.000000   0.000001   0.000001  -0.000074
    22  H   -0.000000   0.000000   0.000000  -0.000000  -0.000003  -0.000116
    23  H   -0.000000  -0.000000   0.000000   0.000040   0.000001  -0.000031
    24  H   -0.000000   0.000000   0.000000   0.000000  -0.000000   0.000005
    25  H   -0.000000  -0.000000   0.000000   0.000027  -0.000000  -0.000093
    26  H    0.000000  -0.000000  -0.000000   0.000005  -0.000003  -0.000051
    27  H   -0.000104   0.000546   0.003160  -0.073636   0.002071   0.000006
               7          8          9         10         11         12
     1  O    0.000010  -0.000000   0.000000  -0.000000   0.000000  -0.000000
     2  N   -0.000159   0.000003  -0.000005   0.000000  -0.000000   0.000002
     3  O   -0.000005   0.000000   0.000000   0.000000  -0.000000   0.000000
     4  C    0.002558  -0.000163   0.000931  -0.000036  -0.000042  -0.000061
     5  C   -0.034898   0.003078   0.001138  -0.000069   0.000024  -0.000123
     6  N    0.186772  -0.049605  -0.063137   0.003748  -0.000200   0.003887
     7  C    5.006079   0.417597   0.351354  -0.055001  -0.008650  -0.061447
     8  H    0.417597   0.542208  -0.055242   0.000539  -0.000291  -0.002319
     9  C    0.351354  -0.055242   5.156072   0.324285  -0.050305  -0.004921
    10  C   -0.055001   0.000539   0.324285   5.121483   0.336650  -0.061141
    11  C   -0.008650  -0.000291  -0.050305   0.336650   5.121056   0.335899
    12  C   -0.061447  -0.002319  -0.004921  -0.061141   0.335899   5.120853
    13  C    0.340195  -0.037717  -0.062871   0.000204  -0.051169   0.370059
    14  H   -0.046089  -0.000650   0.004378  -0.000389   0.004143  -0.035840
    15  N   -0.060092   0.003880  -0.013806   0.001749  -0.013441  -0.082781
    16  C   -0.000723  -0.000089  -0.000805  -0.000050   0.000055   0.002767
    17  H    0.002188  -0.000083  -0.000080   0.000001   0.000000   0.000001
    18  H   -0.022826  -0.004920   0.001769  -0.000089   0.000003  -0.000122
    19  H   -0.036903   0.004391   0.391049  -0.032980  -0.002255   0.000720
    20  H   -0.041415  -0.001908   0.399023  -0.035393   0.003926  -0.000410
    21  H    0.004581  -0.000078  -0.036175   0.402264  -0.035093   0.004371
    22  H   -0.004832   0.003611  -0.046724   0.397424  -0.045557  -0.001119
    23  H    0.000585   0.000038  -0.001943  -0.039126   0.399307  -0.038218
    24  H   -0.000140  -0.000102   0.004341  -0.038301   0.402209  -0.038686
    25  H    0.005064  -0.000011  -0.000452   0.004217  -0.033632   0.398205
    26  H   -0.003966   0.001655   0.000966  -0.002274  -0.041267   0.396654
    27  H   -0.000398   0.000009  -0.000053   0.000006   0.000013  -0.000037
              13         14         15         16         17         18
     1  O   -0.000025  -0.000006  -0.000045   0.001678   0.001391   0.000004
     2  N   -0.000051  -0.000089   0.002347  -0.032415  -0.003486  -0.000074
     3  O    0.000005   0.000002   0.000125   0.002538   0.000376   0.000001
     4  C   -0.011869   0.002848  -0.066304   0.332976  -0.035858   0.002554
     5  C    0.000707   0.007403  -0.009413  -0.035626   0.391219  -0.028680
     6  N   -0.050600  -0.007188   0.003033  -0.002846  -0.034323   0.337706
     7  C    0.340195  -0.046089  -0.060092  -0.000723   0.002188  -0.022826
     8  H   -0.037717  -0.000650   0.003880  -0.000089  -0.000083  -0.004920
     9  C   -0.062871   0.004378  -0.013806  -0.000805  -0.000080   0.001769
    10  C    0.000204  -0.000389   0.001749  -0.000050   0.000001  -0.000089
    11  C   -0.051169   0.004143  -0.013441   0.000055   0.000000   0.000003
    12  C    0.370059  -0.035840  -0.082781   0.002767   0.000001  -0.000122
    13  C    5.044278   0.403433   0.253096  -0.072379  -0.000007   0.002809
    14  H    0.403433   0.523087  -0.037401  -0.006486   0.000085  -0.000094
    15  N    0.253096  -0.037401   6.936893   0.601707  -0.000074  -0.000128
    16  C   -0.072379  -0.006486   0.601707   4.681743   0.001755  -0.000113
    17  H   -0.000007   0.000085  -0.000074   0.001755   0.426834  -0.003545
    18  H    0.002809  -0.000094  -0.000128  -0.000113  -0.003545   0.318549
    19  H   -0.007537   0.000106   0.007250   0.002370   0.000011  -0.000144
    20  H    0.004404  -0.000067   0.000133  -0.000040   0.000003   0.000498
    21  H   -0.000446   0.000010  -0.000045   0.000004  -0.000000   0.000002
    22  H    0.000053  -0.000053   0.000024  -0.000002   0.000000  -0.000000
    23  H   -0.007600   0.000001   0.008455   0.000118   0.000000   0.000000
    24  H    0.004706  -0.000057   0.000126   0.000007   0.000000  -0.000000
    25  H   -0.035735  -0.002784   0.000416  -0.000008  -0.000000   0.000002
    26  H   -0.047002  -0.001027   0.004885  -0.000069   0.000000   0.000000
    27  H    0.005286  -0.000187  -0.036598   0.404238  -0.000089   0.000001
              19         20         21         22         23         24
     1  O   -0.000000  -0.000000   0.000000  -0.000000  -0.000000  -0.000000
     2  N   -0.000003  -0.000000   0.000000   0.000000  -0.000000   0.000000
     3  O    0.000001   0.000000  -0.000000   0.000000   0.000000   0.000000
     4  C   -0.001054  -0.000100   0.000001  -0.000000   0.000040   0.000000
     5  C    0.000919   0.000179   0.000001  -0.000003   0.000001  -0.000000
     6  N   -0.000094   0.000002  -0.000074  -0.000116  -0.000031   0.000005
     7  C   -0.036903  -0.041415   0.004581  -0.004832   0.000585  -0.000140
     8  H    0.004391  -0.001908  -0.000078   0.003611   0.000038  -0.000102
     9  C    0.391049   0.399023  -0.036175  -0.046724  -0.001943   0.004341
    10  C   -0.032980  -0.035393   0.402264   0.397424  -0.039126  -0.038301
    11  C   -0.002255   0.003926  -0.035093  -0.045557   0.399307   0.402209
    12  C    0.000720  -0.000410   0.004371  -0.001119  -0.038218  -0.038686
    13  C   -0.007537   0.004404  -0.000446   0.000053  -0.007600   0.004706
    14  H    0.000106  -0.000067   0.000010  -0.000053   0.000001  -0.000057
    15  N    0.007250   0.000133  -0.000045   0.000024   0.008455   0.000126
    16  C    0.002370  -0.000040   0.000004  -0.000002   0.000118   0.000007
    17  H    0.000011   0.000003  -0.000000   0.000000   0.000000   0.000000
    18  H   -0.000144   0.000498   0.000002  -0.000000   0.000000  -0.000000
    19  H    0.507410  -0.024336  -0.002783   0.003995   0.001541  -0.000068
    20  H   -0.024336   0.538479  -0.002708  -0.002970  -0.000047  -0.000082
    21  H   -0.002783  -0.002708   0.525941  -0.027601  -0.002927  -0.002258
    22  H    0.003995  -0.002970  -0.027601   0.572717   0.004165  -0.003644
    23  H    0.001541  -0.000047  -0.002927   0.004165   0.501423  -0.025642
    24  H   -0.000068  -0.000082  -0.002258  -0.003644  -0.025642   0.539393
    25  H   -0.000027   0.000013  -0.000089  -0.000080  -0.002293  -0.002312
    26  H    0.000020  -0.000031  -0.000080   0.002390   0.004077  -0.003008
    27  H    0.000090   0.000000  -0.000000   0.000000  -0.000033  -0.000000
              25         26         27
     1  O   -0.000000   0.000000  -0.000104
     2  N   -0.000000  -0.000000   0.000546
     3  O    0.000000  -0.000000   0.003160
     4  C    0.000027   0.000005  -0.073636
     5  C   -0.000000  -0.000003   0.002071
     6  N   -0.000093  -0.000051   0.000006
     7  C    0.005064  -0.003966  -0.000398
     8  H   -0.000011   0.001655   0.000009
     9  C   -0.000452   0.000966  -0.000053
    10  C    0.004217  -0.002274   0.000006
    11  C   -0.033632  -0.041267   0.000013
    12  C    0.398205   0.396654  -0.000037
    13  C   -0.035735  -0.047002   0.005286
    14  H   -0.002784  -0.001027  -0.000187
    15  N    0.000416   0.004885  -0.036598
    16  C   -0.000008  -0.000069   0.404238
    17  H   -0.000000   0.000000  -0.000089
    18  H    0.000002   0.000000   0.000001
    19  H   -0.000027   0.000020   0.000090
    20  H    0.000013  -0.000031   0.000000
    21  H   -0.000089  -0.000080  -0.000000
    22  H   -0.000080   0.002390   0.000000
    23  H   -0.002293   0.004077  -0.000033
    24  H   -0.002312  -0.003008  -0.000000
    25  H    0.508616  -0.024231  -0.000013
    26  H   -0.024231   0.561858   0.000001
    27  H   -0.000013   0.000001   0.463318
 Mulliken charges:
               1
     1  O   -0.442075
     2  N    0.441175
     3  O   -0.440282
     4  C    0.055125
     5  C    0.171773
     6  N   -0.785640
     7  C    0.060562
     8  H    0.176167
     9  C   -0.298788
    10  C   -0.327722
    11  C   -0.321384
    12  C   -0.306194
    13  C   -0.044230
    14  H    0.192911
    15  N   -0.503991
    16  C    0.119695
    17  H    0.253681
    18  H    0.396837
    19  H    0.188308
    20  H    0.162847
    21  H    0.173184
    22  H    0.148323
    23  H    0.198108
    24  H    0.163511
    25  H    0.185201
    26  H    0.150494
    27  H    0.232403
 Sum of Mulliken charges =  -0.00000
 Mulliken charges with hydrogens summed into heavy atoms:
               1
     1  O   -0.442075
     2  N    0.441175
     3  O   -0.440282
     4  C    0.055125
     5  C    0.425454
     6  N   -0.388803
     7  C    0.236729
     9  C    0.052368
    10  C   -0.006215
    11  C    0.040235
    12  C    0.029502
    13  C    0.148681
    15  N   -0.503991
    16  C    0.352098
 Electronic spatial extent (au):  <R**2>=           2989.3520
 Charge=             -0.0000 electrons
 Dipole moment (field-independent basis, Debye):
    X=              4.4198    Y=              4.3165    Z=              1.7204  Tot=              6.4130
 Quadrupole moment (field-independent basis, Debye-Ang):
   XX=           -101.7895   YY=            -76.1787   ZZ=            -85.9592
   XY=             -2.7874   XZ=             -0.3682   YZ=              4.2276
 Traceless Quadrupole moment (field-independent basis, Debye-Ang):
   XX=            -13.8138   YY=             11.7971   ZZ=              2.0166
   XY=             -2.7874   XZ=             -0.3682   YZ=              4.2276
 Octapole moment (field-independent basis, Debye-Ang**2):
  XXX=             68.8006  YYY=             27.2670  ZZZ=              4.7230  XYY=            -20.7379
  XXY=             17.3291  XXZ=              6.7202  XZZ=              6.2522  YZZ=              1.9961
  YYZ=             10.1523  XYZ=             -5.7856
 Hexadecapole moment (field-independent basis, Debye-Ang**3):
 XXXX=          -3264.8963 YYYY=           -544.8662 ZZZZ=           -384.0185 XXXY=            -74.4155
 XXXZ=            -16.0768 YYYX=             -5.8622 YYYZ=             35.6550 ZZZX=             -8.0769
 ZZZY=             12.2288 XXYY=           -556.7012 XXZZ=           -590.0848 YYZZ=           -155.5672
 XXYZ=             16.5096 YYXZ=              5.8736 ZZXY=             -2.6414
 N-N= 9.299671462709D+02 E-N=-3.406585452456D+03  KE= 6.595952524323D+02
 Unable to Open any file for archive entry.
 1\1\GINC-LOTUS\FOpt\RMP2-FC\6-31G(d)\C9H13N3O2\ALEXEY\30-Jun-2023\0\\#
 MP2/6-31G* SCF=Tight Opt=(ModRedun, MaxCycle=20 ) NoSymm\\MolName:\\0,
 1\O,-3.7156059606,-0.5063447772,0.9033230477\N,-3.1096823424,-0.230249
 8987,-0.1502810034\O,-3.6217820819,-0.2233964884,-1.2868545318\C,-1.66
 96060795,0.0048036385,-0.0669888155\C,-1.301890304,1.2496681576,0.3498
 481984\N,-0.0514139478,1.7576948383,0.4486287956\C,1.2051937837,1.0210
 106332,0.3954762166\H,1.8560478549,1.5050415364,1.1392637427\C,1.91784
 0637,1.089172859,-0.954078103\C,3.3105130937,0.4637435349,-0.814016099
 9\C,3.2493385896,-0.9602519968,-0.2552194472\C,2.4491224082,-1.0262506
 355,1.0471557544\C,1.0432203557,-0.455488281,0.8256918814\H,0.45530286
 3,-0.4759080967,1.7569530949\N,0.4013641115,-1.3075815009,-0.169528952
 7\C,-0.8453691166,-1.1099621137,-0.4590987419\H,-2.0921957959,1.959792
 4627,0.5870586749\H,0.000707956,2.6894962759,0.840146291\H,1.322346190
 9,0.5518038754,-1.700263187\H,1.9921121797,2.1332526385,-1.2817175104\
 H,3.8192679276,0.4679928568,-1.7848933122\H,3.9128976718,1.093471257,-
 0.1437347469\H,2.7690277474,-1.619560577,-0.9851537767\H,4.2648909431,
 -1.3404323971,-0.0921879192\H,2.3583611528,-2.063728947,1.385407657\H,
 2.9573661053,-0.464408772,1.8428470185\H,-1.318395943,-1.844380082,-1.
 1177842255\\Version=ES64L-G16RevC.02\HF=-661.279225\MP2=-663.3210416\R
 MSD=9.248e-09\RMSF=1.366e-03\Dipole=1.6037498,1.5350186,0.6167487\PG=C
 01 [X(C9H13N3O2)]\\@
 The archive entry for this job was punched.


 IT IS A QUALITY OF REVOLUTIONS NOT TO GO BY OLD LINES OR OLD LAWS,
 BUT TO BREAK UP BOTH, AND MAKE NEW ONES.
                                              -- A. LINCOLN (1848)
 Job cpu time:       0 days  1 hours 25 minutes 31.1 seconds.
 Elapsed time:       0 days  0 hours 25 minutes 41.8 seconds.
 File lengths (MBytes):  RWF=     36 Int=      0 D2E=      0 Chk=      7 Scr=      1
 Normal termination of Gaussian 16 at Fri Jun 30 04:46:52 2023.
