 Entering Gaussian System, Link 0=g16
 Initial command:
 /home/alexey/programs//g16/l1.exe "/home/alexey/tmp/Gau-1076275.inp" -scrdir="/home/alexey/tmp/"
 Entering Link 1 = /home/alexey/programs//g16/l1.exe PID=   1076277.
  
 Copyright (c) 1988-2021, Gaussian, Inc.  All Rights Reserved.
  
 This is part of the Gaussian(R) 16 program.  It is based on
 the Gaussian(R) 09 system (copyright 2009, Gaussian, Inc.),
 the Gaussian(R) 03 system (copyright 2003, Gaussian, Inc.),
 the Gaussian(R) 98 system (copyright 1998, Gaussian, Inc.),
 the Gaussian(R) 94 system (copyright 1995, Gaussian, Inc.),
 the Gaussian 92(TM) system (copyright 1992, Gaussian, Inc.),
 the Gaussian 90(TM) system (copyright 1990, Gaussian, Inc.),
 the Gaussian 88(TM) system (copyright 1988, Gaussian, Inc.),
 the Gaussian 86(TM) system (copyright 1986, Carnegie Mellon
 University), and the Gaussian 82(TM) system (copyright 1983,
 Carnegie Mellon University). Gaussian is a federally registered
 trademark of Gaussian, Inc.
  
 This software contains proprietary and confidential information,
 including trade secrets, belonging to Gaussian, Inc.
  
 This software is provided under written license and may be
 used, copied, transmitted, or stored only in accord with that
 written license.
  
 The following legend is applicable only to US Government
 contracts under FAR:
  
                    RESTRICTED RIGHTS LEGEND
  
 Use, reproduction and disclosure by the US Government is
 subject to restrictions as set forth in subparagraphs (a)
 and (c) of the Commercial Computer Software - Restricted
 Rights clause in FAR 52.227-19.
  
 Gaussian, Inc.
 340 Quinnipiac St., Bldg. 40, Wallingford CT 06492
  
  
 ---------------------------------------------------------------
 Warning -- This program may not be used in any manner that
 competes with the business of Gaussian, Inc. or will provide
 assistance to any competitor of Gaussian, Inc.  The licensee
 of this program is prohibited from giving any competitor of
 Gaussian, Inc. access to this program.  By using this program,
 the user acknowledges that Gaussian, Inc. is engaged in the
 business of creating and licensing software in the field of
 computational chemistry and represents and warrants to the
 licensee that it is not a competitor of Gaussian, Inc. and that
 it will not use this program in any manner prohibited above.
 ---------------------------------------------------------------
  

 Cite this work as:
 Gaussian 16, Revision C.02,
 M. J. Frisch, G. W. Trucks, H. B. Schlegel, G. E. Scuseria, 
 M. A. Robb, J. R. Cheeseman, G. Scalmani, V. Barone, 
 G. A. Petersson, H. Nakatsuji, X. Li, M. Caricato, A. V. Marenich, 
 J. Bloino, B. G. Janesko, R. Gomperts, B. Mennucci, H. P. Hratchian, 
 J. V. Ortiz, A. F. Izmaylov, J. L. Sonnenberg, D. Williams-Young, 
 F. Ding, F. Lipparini, F. Egidi, J. Goings, B. Peng, A. Petrone, 
 T. Henderson, D. Ranasinghe, V. G. Zakrzewski, J. Gao, N. Rega, 
 G. Zheng, W. Liang, M. Hada, M. Ehara, K. Toyota, R. Fukuda, 
 J. Hasegawa, M. Ishida, T. Nakajima, Y. Honda, O. Kitao, H. Nakai, 
 T. Vreven, K. Throssell, J. A. Montgomery, Jr., J. E. Peralta, 
 F. Ogliaro, M. J. Bearpark, J. J. Heyd, E. N. Brothers, K. N. Kudin, 
 V. N. Staroverov, T. A. Keith, R. Kobayashi, J. Normand, 
 K. Raghavachari, A. P. Rendell, J. C. Burant, S. S. Iyengar, 
 J. Tomasi, M. Cossi, J. M. Millam, M. Klene, C. Adamo, R. Cammi, 
 J. W. Ochterski, R. L. Martin, K. Morokuma, O. Farkas, 
 J. B. Foresman, and D. J. Fox, Gaussian, Inc., Wallingford CT, 2019.
 
 ******************************************
 Gaussian 16:  ES64L-G16RevC.02  7-Dec-2021
                30-Jun-2023 
 ******************************************
 %mem=8GB
 %NPROCS=4
 Will use up to    4 processors via shared memory.
 %NoSave
 ---------------------------------------------------------
 #MP2/6-31G* SCF=Tight Opt=(ModRedun, MaxCycle=20 ) NoSymm
 ---------------------------------------------------------
 1/6=20,18=120,19=15,38=1/1,3;
 2/9=110,12=2,15=1,17=6,18=5,40=1/2;
 3/5=1,6=6,7=1,11=9,25=1,30=1,71=1/1,2,3;
 4//1;
 5/5=2,32=2,38=5/2;
 8/6=4,10=2/1;
 9/15=2,16=-3/6;
 10/5=1,31=1/2;
 6/7=2,8=2,9=2,10=2/1;
 7/12=2,30=1/1,2,3,16;
 1/6=20,18=20,19=15/3(2);
 2/9=110,15=1/2;
 99//99;
 2/9=110,15=1/2;
 3/5=1,6=6,7=1,11=9,25=1,30=1,71=1/1,2,3;
 4/5=5,16=3,69=1/1;
 5/5=2,32=2,38=5/2;
 8/6=4,10=2/1;
 9/15=2,16=-3/6;
 10/5=1,31=1/2;
 7/12=2,30=1/1,2,3,16;
 1/6=20,18=20,19=15/3(-8);
 2/9=110,15=1/2;
 6/7=2,8=2,9=2,10=2/1;
 99/9=10/99;
 --------
 MolName:
 --------
 Symbolic Z-matrix:
 Charge =  0 Multiplicity = 1
 8                    0    -3.77246  -0.30458   0.98178 
 7                    0    -3.19641  -0.22486  -0.10029 
 8                    0    -3.68981  -0.43856  -1.20458 
 6                    0    -1.73373   0.01593  -0.05958 
 6                    0    -1.37628   1.30359   0.32962 
 7                    0    -0.09159   1.74154   0.5158 
 6                    0     1.18708   0.96926   0.42984 
 1                    0     1.85663   1.41921   1.20796 
 6                    0     1.94029   1.10434  -0.91707 
 6                    0     3.35471   0.51005  -0.77589 
 6                    0     3.30031  -0.93989  -0.26918 
 6                    0     2.46328  -1.05451   1.02292 
 6                    0     1.02293  -0.51021   0.81873 
 1                    0     0.4811   -0.60832   1.78866 
 7                    0     0.36095  -1.32731  -0.20421 
 6                    0    -0.88382  -1.11674  -0.47959 
 1                    0    -2.18081   2.0236    0.55541 
 1                    0     0.14574   2.7335    0.4391 
 1                    0     1.38476   0.57465  -1.7201 
 1                    0     2.02189   2.17398  -1.20491 
 1                    0     3.88104   0.5471   -1.75477 
 1                    0     3.93673   1.12142  -0.05054 
 1                    0     2.84827  -1.58283  -1.05786 
 1                    0     4.33081  -1.31381  -0.08343 
 1                    0     2.41111  -2.12154   1.33187 
 1                    0     2.96152  -0.48997   1.83868 
 1                    0    -1.40724  -1.84406  -1.11934 
 
 The following ModRedundant input section has been read:
 D       1       2       4      16 F                                           
 D       7      13      15      16 F                                           
 D       7       9      10      11 F                                           
 D       9      10      11      12 F                                           
 D       6       7      13      15 F                                           
 

 GradGradGradGradGradGradGradGradGradGradGradGradGradGradGradGradGradGrad
 Berny optimization.
 Initialization pass.
                           ----------------------------
                           !    Initial Parameters    !
                           ! (Angstroms and Degrees)  !
 --------------------------                            --------------------------
 ! Name  Definition              Value          Derivative Info.                !
 --------------------------------------------------------------------------------
 ! R1    R(1,2)                  1.2284         estimate D2E/DX2                !
 ! R2    R(2,3)                  1.2282         estimate D2E/DX2                !
 ! R3    R(2,4)                  1.4829         estimate D2E/DX2                !
 ! R4    R(4,5)                  1.3919         estimate D2E/DX2                !
 ! R5    R(4,16)                 1.4771         estimate D2E/DX2                !
 ! R6    R(5,6)                  1.37           estimate D2E/DX2                !
 ! R7    R(5,17)                 1.103          estimate D2E/DX2                !
 ! R8    R(6,7)                  1.4963         estimate D2E/DX2                !
 ! R9    R(6,18)                 1.0228         estimate D2E/DX2                !
 ! R10   R(7,8)                  1.1208         estimate D2E/DX2                !
 ! R11   R(7,9)                  1.5491         estimate D2E/DX2                !
 ! R12   R(7,13)                 1.5385         estimate D2E/DX2                !
 ! R13   R(9,10)                 1.5407         estimate D2E/DX2                !
 ! R14   R(9,19)                 1.1109         estimate D2E/DX2                !
 ! R15   R(9,20)                 1.1107         estimate D2E/DX2                !
 ! R16   R(10,11)                1.5369         estimate D2E/DX2                !
 ! R17   R(10,21)                1.112          estimate D2E/DX2                !
 ! R18   R(10,22)                1.1129         estimate D2E/DX2                !
 ! R19   R(11,12)                1.5438         estimate D2E/DX2                !
 ! R20   R(11,23)                1.1134         estimate D2E/DX2                !
 ! R21   R(11,24)                1.1119         estimate D2E/DX2                !
 ! R22   R(12,13)                1.5532         estimate D2E/DX2                !
 ! R23   R(12,25)                1.1121         estimate D2E/DX2                !
 ! R24   R(12,26)                1.1101         estimate D2E/DX2                !
 ! R25   R(13,14)                1.1153         estimate D2E/DX2                !
 ! R26   R(13,15)                1.4671         estimate D2E/DX2                !
 ! R27   R(15,16)                1.2921         estimate D2E/DX2                !
 ! R28   R(16,27)                1.101          estimate D2E/DX2                !
 ! A1    A(1,2,3)              126.3198         estimate D2E/DX2                !
 ! A2    A(1,2,4)              116.672          estimate D2E/DX2                !
 ! A3    A(3,2,4)              116.69           estimate D2E/DX2                !
 ! A4    A(2,4,5)              114.2802         estimate D2E/DX2                !
 ! A5    A(2,4,16)             115.7999         estimate D2E/DX2                !
 ! A6    A(5,4,16)             129.8789         estimate D2E/DX2                !
 ! A7    A(4,5,6)              125.0687         estimate D2E/DX2                !
 ! A8    A(4,5,17)             118.2818         estimate D2E/DX2                !
 ! A9    A(6,5,17)             116.5821         estimate D2E/DX2                !
 ! A10   A(5,6,7)              128.944          estimate D2E/DX2                !
 ! A11   A(5,6,18)             121.159          estimate D2E/DX2                !
 ! A12   A(7,6,18)             107.3353         estimate D2E/DX2                !
 ! A13   A(6,7,8)              105.2729         estimate D2E/DX2                !
 ! A14   A(6,7,9)              114.8635         estimate D2E/DX2                !
 ! A15   A(6,7,13)             112.9939         estimate D2E/DX2                !
 ! A16   A(8,7,9)              106.1507         estimate D2E/DX2                !
 ! A17   A(8,7,13)             105.9201         estimate D2E/DX2                !
 ! A18   A(9,7,13)             110.8245         estimate D2E/DX2                !
 ! A19   A(7,9,10)             109.455          estimate D2E/DX2                !
 ! A20   A(7,9,19)             110.1084         estimate D2E/DX2                !
 ! A21   A(7,9,20)             110.1833         estimate D2E/DX2                !
 ! A22   A(10,9,19)            109.9632         estimate D2E/DX2                !
 ! A23   A(10,9,20)            109.1338         estimate D2E/DX2                !
 ! A24   A(19,9,20)            107.9749         estimate D2E/DX2                !
 ! A25   A(9,10,11)            111.2            estimate D2E/DX2                !
 ! A26   A(9,10,21)            109.9381         estimate D2E/DX2                !
 ! A27   A(9,10,22)            109.143          estimate D2E/DX2                !
 ! A28   A(11,10,21)           109.7799         estimate D2E/DX2                !
 ! A29   A(11,10,22)           108.7766         estimate D2E/DX2                !
 ! A30   A(21,10,22)           107.9317         estimate D2E/DX2                !
 ! A31   A(10,11,12)           111.4188         estimate D2E/DX2                !
 ! A32   A(10,11,23)           109.0022         estimate D2E/DX2                !
 ! A33   A(10,11,24)           109.8492         estimate D2E/DX2                !
 ! A34   A(12,11,23)           109.26           estimate D2E/DX2                !
 ! A35   A(12,11,24)           109.7381         estimate D2E/DX2                !
 ! A36   A(23,11,24)           107.4828         estimate D2E/DX2                !
 ! A37   A(11,12,13)           111.5146         estimate D2E/DX2                !
 ! A38   A(11,12,25)           109.2198         estimate D2E/DX2                !
 ! A39   A(11,12,26)           109.5074         estimate D2E/DX2                !
 ! A40   A(13,12,25)           109.2233         estimate D2E/DX2                !
 ! A41   A(13,12,26)           109.5473         estimate D2E/DX2                !
 ! A42   A(25,12,26)           107.7485         estimate D2E/DX2                !
 ! A43   A(7,13,12)            105.7399         estimate D2E/DX2                !
 ! A44   A(7,13,14)            110.8694         estimate D2E/DX2                !
 ! A45   A(7,13,15)            114.0469         estimate D2E/DX2                !
 ! A46   A(12,13,14)           107.7789         estimate D2E/DX2                !
 ! A47   A(12,13,15)           108.356          estimate D2E/DX2                !
 ! A48   A(14,13,15)           109.7653         estimate D2E/DX2                !
 ! A49   A(13,15,16)           119.5066         estimate D2E/DX2                !
 ! A50   A(4,16,15)            128.2196         estimate D2E/DX2                !
 ! A51   A(4,16,27)            113.4686         estimate D2E/DX2                !
 ! A52   A(15,16,27)           118.3041         estimate D2E/DX2                !
 ! D1    D(1,2,4,5)            -72.0951         estimate D2E/DX2                !
 ! D2    D(1,2,4,16)           110.0006         Frozen                          !
 ! D3    D(3,2,4,5)            113.9678         estimate D2E/DX2                !
 ! D4    D(3,2,4,16)           -63.9365         estimate D2E/DX2                !
 ! D5    D(2,4,5,6)            176.0659         estimate D2E/DX2                !
 ! D6    D(2,4,5,17)            -0.8403         estimate D2E/DX2                !
 ! D7    D(16,4,5,6)            -6.393          estimate D2E/DX2                !
 ! D8    D(16,4,5,17)          176.7008         estimate D2E/DX2                !
 ! D9    D(2,4,16,15)         -158.9909         estimate D2E/DX2                !
 ! D10   D(2,4,16,27)           22.0482         estimate D2E/DX2                !
 ! D11   D(5,4,16,15)           23.4987         estimate D2E/DX2                !
 ! D12   D(5,4,16,27)         -155.4622         estimate D2E/DX2                !
 ! D13   D(4,5,6,7)             -3.7064         estimate D2E/DX2                !
 ! D14   D(4,5,6,18)           155.7397         estimate D2E/DX2                !
 ! D15   D(17,5,6,7)           173.2471         estimate D2E/DX2                !
 ! D16   D(17,5,6,18)          -27.3068         estimate D2E/DX2                !
 ! D17   D(5,6,7,8)           -145.3589         estimate D2E/DX2                !
 ! D18   D(5,6,7,9)             98.2597         estimate D2E/DX2                !
 ! D19   D(5,6,7,13)           -30.2238         estimate D2E/DX2                !
 ! D20   D(18,6,7,8)            52.9859         estimate D2E/DX2                !
 ! D21   D(18,6,7,9)           -63.3955         estimate D2E/DX2                !
 ! D22   D(18,6,7,13)          168.1209         estimate D2E/DX2                !
 ! D23   D(6,7,9,10)           168.4987         estimate D2E/DX2                !
 ! D24   D(6,7,9,19)           -70.5093         estimate D2E/DX2                !
 ! D25   D(6,7,9,20)            48.4845         estimate D2E/DX2                !
 ! D26   D(8,7,9,10)            52.6207         estimate D2E/DX2                !
 ! D27   D(8,7,9,19)           173.6127         estimate D2E/DX2                !
 ! D28   D(8,7,9,20)           -67.3935         estimate D2E/DX2                !
 ! D29   D(13,7,9,10)          -61.9411         estimate D2E/DX2                !
 ! D30   D(13,7,9,19)           59.051          estimate D2E/DX2                !
 ! D31   D(13,7,9,20)          178.0448         estimate D2E/DX2                !
 ! D32   D(6,7,13,12)         -166.0277         estimate D2E/DX2                !
 ! D33   D(6,7,13,14)          -49.4786         estimate D2E/DX2                !
 ! D34   D(6,7,13,15)           75.0227         Frozen                          !
 ! D35   D(8,7,13,12)          -51.2811         estimate D2E/DX2                !
 ! D36   D(8,7,13,14)           65.268          estimate D2E/DX2                !
 ! D37   D(8,7,13,15)         -170.2308         estimate D2E/DX2                !
 ! D38   D(9,7,13,12)           63.4252         estimate D2E/DX2                !
 ! D39   D(9,7,13,14)          179.9743         estimate D2E/DX2                !
 ! D40   D(9,7,13,15)          -55.5245         estimate D2E/DX2                !
 ! D41   D(7,9,10,11)           54.8122         Frozen                          !
 ! D42   D(7,9,10,21)          176.6028         estimate D2E/DX2                !
 ! D43   D(7,9,10,22)          -65.1939         estimate D2E/DX2                !
 ! D44   D(19,9,10,11)         -66.2678         estimate D2E/DX2                !
 ! D45   D(19,9,10,21)          55.5228         estimate D2E/DX2                !
 ! D46   D(19,9,10,22)         173.7261         estimate D2E/DX2                !
 ! D47   D(20,9,10,11)         175.467          estimate D2E/DX2                !
 ! D48   D(20,9,10,21)         -62.7424         estimate D2E/DX2                !
 ! D49   D(20,9,10,22)          55.4609         estimate D2E/DX2                !
 ! D50   D(9,10,11,12)         -52.8222         Frozen                          !
 ! D51   D(9,10,11,23)          67.8308         estimate D2E/DX2                !
 ! D52   D(9,10,11,24)        -174.6453         estimate D2E/DX2                !
 ! D53   D(21,10,11,12)       -174.7048         estimate D2E/DX2                !
 ! D54   D(21,10,11,23)        -54.0518         estimate D2E/DX2                !
 ! D55   D(21,10,11,24)         63.4722         estimate D2E/DX2                !
 ! D56   D(22,10,11,12)         67.4009         estimate D2E/DX2                !
 ! D57   D(22,10,11,23)       -171.9461         estimate D2E/DX2                !
 ! D58   D(22,10,11,24)        -54.4222         estimate D2E/DX2                !
 ! D59   D(10,11,12,13)         56.7353         estimate D2E/DX2                !
 ! D60   D(10,11,12,25)        177.5478         estimate D2E/DX2                !
 ! D61   D(10,11,12,26)        -64.6773         estimate D2E/DX2                !
 ! D62   D(23,11,12,13)        -63.7663         estimate D2E/DX2                !
 ! D63   D(23,11,12,25)         57.0462         estimate D2E/DX2                !
 ! D64   D(23,11,12,26)        174.821          estimate D2E/DX2                !
 ! D65   D(24,11,12,13)        178.6227         estimate D2E/DX2                !
 ! D66   D(24,11,12,25)        -60.5648         estimate D2E/DX2                !
 ! D67   D(24,11,12,26)         57.2101         estimate D2E/DX2                !
 ! D68   D(11,12,13,7)         -60.5473         estimate D2E/DX2                !
 ! D69   D(11,12,13,14)       -179.1709         estimate D2E/DX2                !
 ! D70   D(11,12,13,15)         62.107          estimate D2E/DX2                !
 ! D71   D(25,12,13,7)         178.6422         estimate D2E/DX2                !
 ! D72   D(25,12,13,14)         60.0186         estimate D2E/DX2                !
 ! D73   D(25,12,13,15)        -58.7035         estimate D2E/DX2                !
 ! D74   D(26,12,13,7)          60.8421         estimate D2E/DX2                !
 ! D75   D(26,12,13,14)        -57.7815         estimate D2E/DX2                !
 ! D76   D(26,12,13,15)       -176.5036         estimate D2E/DX2                !
 ! D77   D(7,13,15,16)         -67.1604         Frozen                          !
 ! D78   D(12,13,15,16)        175.3861         estimate D2E/DX2                !
 ! D79   D(14,13,15,16)         57.9291         estimate D2E/DX2                !
 ! D80   D(13,15,16,4)          11.318          estimate D2E/DX2                !
 ! D81   D(13,15,16,27)       -169.7646         estimate D2E/DX2                !
 --------------------------------------------------------------------------------
 Trust Radius=3.00D-01 FncErr=1.00D-07 GrdErr=1.00D-07 EigMax=2.50D+02 EigMin=1.00D-04
 Number of steps in this run=     20 maximum allowed number of steps=    162.
 GradGradGradGradGradGradGradGradGradGradGradGradGradGradGradGradGradGrad

                          Input orientation:                          
 ---------------------------------------------------------------------
 Center     Atomic      Atomic             Coordinates (Angstroms)
 Number     Number       Type             X           Y           Z
 ---------------------------------------------------------------------
      1          8           0       -3.772460   -0.304580    0.981780
      2          7           0       -3.196410   -0.224860   -0.100290
      3          8           0       -3.689810   -0.438560   -1.204580
      4          6           0       -1.733730    0.015930   -0.059580
      5          6           0       -1.376280    1.303590    0.329620
      6          7           0       -0.091590    1.741540    0.515800
      7          6           0        1.187080    0.969260    0.429840
      8          1           0        1.856630    1.419210    1.207960
      9          6           0        1.940290    1.104340   -0.917070
     10          6           0        3.354710    0.510050   -0.775890
     11          6           0        3.300310   -0.939890   -0.269180
     12          6           0        2.463280   -1.054510    1.022920
     13          6           0        1.022930   -0.510210    0.818730
     14          1           0        0.481100   -0.608320    1.788660
     15          7           0        0.360950   -1.327310   -0.204210
     16          6           0       -0.883820   -1.116740   -0.479590
     17          1           0       -2.180810    2.023600    0.555410
     18          1           0        0.145740    2.733500    0.439100
     19          1           0        1.384760    0.574650   -1.720100
     20          1           0        2.021890    2.173980   -1.204910
     21          1           0        3.881040    0.547100   -1.754770
     22          1           0        3.936730    1.121420   -0.050540
     23          1           0        2.848270   -1.582830   -1.057860
     24          1           0        4.330810   -1.313810   -0.083430
     25          1           0        2.411110   -2.121540    1.331870
     26          1           0        2.961520   -0.489970    1.838680
     27          1           0       -1.407240   -1.844060   -1.119340
 ---------------------------------------------------------------------
                    Distance matrix (angstroms):
                    1          2          3          4          5
     1  O    0.000000
     2  N    1.228440   0.000000
     3  O    2.192020   1.228238   0.000000
     4  C    2.311618   1.482926   2.311674   0.000000
     5  C    2.958581   2.415337   3.277389   1.391875   0.000000
     6  N    4.237045   3.726420   4.545298   2.450595   1.369997
     7  C    5.150179   4.574051   5.332667   3.111190   2.587013
     8  H    5.891457   5.472449   6.327294   4.057898   3.352097
     9  C    6.182734   5.368388   5.844761   3.926620   3.548742
    10  C    7.385769   6.626741   7.121018   5.162313   4.922817
    11  C    7.210589   6.538131   7.070225   5.128263   5.221327
    12  C    6.280807   5.829409   6.572798   4.464587   4.558895
    13  C    4.802565   4.327684   5.129214   2.940651   3.047180
    14  H    4.340056   4.152018   5.136613   2.951466   3.038759
    15  N    4.420139   3.725722   4.266061   2.492568   3.197589
    16  C    3.337581   2.507467   2.976427   1.477057   2.599103
    17  H    2.852291   2.552833   3.381845   2.146819   1.103025
    18  H    4.987657   4.495865   5.241669   3.341598   2.091213
    19  H    5.888134   4.924441   5.200348   3.576936   3.515117
    20  H    6.670784   5.848527   6.280835   4.480362   3.828828
    21  H    8.172523   7.309140   7.654541   5.889096   5.705819
    22  H    7.907640   7.259245   7.869527   5.777223   5.329708
    23  H    7.044723   6.268906   6.639079   4.954525   5.301259
    24  H    8.235059   7.605599   8.145759   6.208657   6.292239
    25  H    6.454490   6.090382   6.818154   4.866684   5.203878
    26  H    6.790812   6.461423   7.314661   5.089666   4.930581
    27  H    3.518376   2.619428   2.681944   2.165468   3.465277
                    6          7          8          9         10
     6  N    0.000000
     7  C    1.496263   0.000000
     8  H    2.092497   1.120814   0.000000
     9  C    2.566647   1.549109   2.149859   0.000000
    10  C    3.880981   2.522554   2.646975   1.540680   0.000000
    11  C    4.394456   2.932443   3.135523   2.539349   1.536893
    12  C    3.821312   2.464970   2.553733   2.949189   2.545233
    13  C    2.530672   1.538510   2.137573   2.541913   3.003488
    14  H    2.733128   2.198535   2.517970   3.519008   4.010649
    15  N    3.184501   2.521655   3.431422   2.985868   3.558835
    16  C    3.128609   3.076863   4.097430   3.619417   4.549657
    17  H    2.108546   3.531301   4.134251   4.471767   5.891110
    18  H    1.022836   2.048662   2.290338   2.777367   4.088694
    19  H    2.922412   2.194775   3.083744   1.110875   2.185500
    20  H    2.759465   2.195601   2.533561   1.110694   2.174656
    21  H    4.729055   3.494018   3.692774   2.186039   1.112026
    22  H    4.114930   2.795441   2.449350   2.176451   1.112948
    23  H    4.708569   3.389095   3.889670   2.839918   2.171666
    24  H    5.408499   3.919042   3.906233   3.500999   2.181453
    25  H    4.674705   3.444554   3.586044   3.960518   3.501185
    26  H    4.006386   2.694962   2.294245   3.343485   2.826768
    27  H    4.154653   4.128586   5.168956   4.465415   5.323153
                   11         12         13         14         15
    11  C    0.000000
    12  C    1.543787   0.000000
    13  C    2.560202   1.553243   0.000000
    14  H    3.506079   2.171286   1.115334   0.000000
    15  N    2.965494   2.449502   1.467064   2.122007   0.000000
    16  C    4.193148   3.669399   2.385206   2.695636   1.292140
    17  H    6.285292   5.591145   4.093102   3.941278   4.273893
    18  H    4.893543   4.478935   3.381603   3.619605   4.117079
    19  H    2.840481   3.367718   2.784511   3.811485   2.638856
    20  H    3.493728   3.947303   3.506838   4.367687   4.002394
    21  H    2.180680   3.505818   3.988684   5.044847   4.278865
    22  H    2.168371   2.838669   3.450808   4.279724   4.336600
    23  H    1.113431   2.181051   2.829129   3.828295   2.642115
    24  H    1.111868   2.186073   3.521610   4.338514   3.971720
    25  H    2.179526   1.112081   2.187862   2.494680   2.682070
    26  H    2.181807   1.110141   2.190625   2.483746   3.411378
    27  H    4.868400   4.493728   3.382454   3.680944   2.056937
                   16         17         18         19         20
    16  C    0.000000
    17  H    3.551780   0.000000
    18  H    4.090029   2.435225   0.000000
    19  H    3.089680   4.471095   3.295140   0.000000
    20  H    4.449503   4.558950   2.556515   1.797001   0.000000
    21  H    5.205606   6.653045   4.852409   2.496673   2.530914
    22  H    5.332086   6.213324   4.148512   3.098215   2.471248
    23  H    3.805277   6.395359   5.308038   2.689822   3.849435
    24  H    5.233368   7.344904   5.845389   3.863183   4.330532
    25  H    3.891988   6.234646   5.431423   4.199685   5.003822
    26  H    4.533636   5.865865   4.503132   4.035406   4.152466
    27  H    1.101019   4.285089   5.078832   3.742504   5.283077
                   21         22         23         24         25
    21  H    0.000000
    22  H    1.799262   0.000000
    23  H    2.467569   3.084219   0.000000
    24  H    2.541389   2.467129   1.794383   0.000000
    25  H    4.337013   3.841271   2.488398   2.518085   0.000000
    26  H    3.851482   2.667726   3.097921   2.499635   1.794945
    27  H    5.838435   6.204387   4.263964   5.854869   4.545902
                   26         27
    26  H    0.000000
    27  H    5.446972   0.000000
 Symmetry turned off by external request.
 Stoichiometry    C9H13N3O2
 Framework group  C1[X(C9H13N3O2)]
 Deg. of freedom    75
 Full point group                 C1      NOp   1
 Rotational constants (GHZ):           1.6556338           0.3991712           0.3730847
 Standard basis: 6-31G(d) (6D, 7F)
   236 basis functions,   444 primitive gaussians,   236 cartesian basis functions
    52 alpha electrons       52 beta electrons
       nuclear repulsion energy       920.8414122625 Hartrees.
 NAtoms=   27 NActive=   27 NUniq=   27 SFac= 1.00D+00 NAtFMM=   60 NAOKFM=F Big=F
 Integral buffers will be    131072 words long.
 Raffenetti 1 integral format.
 Two-electron integral symmetry is turned off.
 One-electron integrals computed using PRISM.
 NBasis=   236 RedAO= T EigKep=  1.71D-03  NBF=   236
 NBsUse=   236 1.00D-06 EigRej= -1.00D+00 NBFU=   236
 ExpMin= 1.61D-01 ExpMax= 5.48D+03 ExpMxC= 8.25D+02 IAcc=3 IRadAn=         5 AccDes= 0.00D+00
 Harris functional with IExCor=  205 and IRadAn=       5 diagonalized for initial guess.
 HarFok:  IExCor=  205 AccDes= 0.00D+00 IRadAn=         5 IDoV= 1 UseB2=F ITyADJ=14
 ICtDFT=  3500011 ScaDFX=  1.000000  1.000000  1.000000  1.000000
 FoFCou: FMM=F IPFlag=           0 FMFlag=      100000 FMFlg1=           0
         NFxFlg=           0 DoJE=T BraDBF=F KetDBF=T FulRan=T
         wScrn=  0.000000 ICntrl=       500 IOpCl=  0 I1Cent=   200000004 NGrid=           0
         NMat0=    1 NMatS0=      1 NMatT0=    0 NMatD0=    1 NMtDS0=    0 NMtDT0=    0
 Symmetry not used in FoFCou.
 Keep R1 ints in memory in canonical form, NReq=397720213.
 Requested convergence on RMS density matrix=1.00D-08 within 128 cycles.
 Requested convergence on MAX density matrix=1.00D-06.
 Requested convergence on             energy=1.00D-06.
 No special actions if energy rises.
 SCF Done:  E(RHF) =  -661.270775390     A.U. after   17 cycles
            NFock= 17  Conv=0.50D-08     -V/T= 2.0034
 ExpMin= 1.61D-01 ExpMax= 5.48D+03 ExpMxC= 8.25D+02 IAcc=3 IRadAn=         5 AccDes= 0.00D+00
 HarFok:  IExCor=  205 AccDes= 0.00D+00 IRadAn=         5 IDoV=-2 UseB2=F ITyADJ=14
 ICtDFT= 12500011 ScaDFX=  1.000000  1.000000  1.000000  1.000000
 Range of M.O.s used for correlation:    15   236
 NBasis=   236 NAE=    52 NBE=    52 NFC=    14 NFV=     0
 NROrb=    222 NOA=    38 NOB=    38 NVA=   184 NVB=   184
 Fully direct method using O(ONN) memory.
 JobTyp=1 Pass  1:  I=  15 to  52 NPSUse=  4 ParTrn=T ParDer=T DoDerP=T.
 Spin components of T(2) and E(2):
     alpha-alpha T2 =       0.9187142545D-01 E2=     -0.2719360160D+00
     alpha-beta  T2 =       0.5016411204D+00 E2=     -0.1496223619D+01
     beta-beta   T2 =       0.9187142545D-01 E2=     -0.2719360160D+00
 ANorm=    0.1298223390D+01
 E2 =    -0.2040095651D+01 EUMP2 =    -0.66331087104173D+03
          IDoAtm=111111111111111111111111111
          Differentiating once with respect to electric field.
                with respect to dipole field.
          Differentiating once with respect to nuclear coordinates.
 Keep R1 ints in memory in canonical form, NReq=397723379.
          There are     1 degrees of freedom in the 1st order CPHF.  IDoFFX=0 NUNeed=     1.
 LinEq1:  Iter=  0 NonCon=     1 RMS=4.52D-03 Max=1.27D-01 NDo=     1
 AX will form     1 AO Fock derivatives at one time.
 LinEq1:  Iter=  1 NonCon=     1 RMS=1.51D-03 Max=3.63D-02 NDo=     1
 LinEq1:  Iter=  2 NonCon=     1 RMS=6.14D-04 Max=2.01D-02 NDo=     1
 LinEq1:  Iter=  3 NonCon=     1 RMS=2.78D-04 Max=5.67D-03 NDo=     1
 LinEq1:  Iter=  4 NonCon=     1 RMS=8.41D-05 Max=1.26D-03 NDo=     1
 LinEq1:  Iter=  5 NonCon=     1 RMS=3.38D-05 Max=1.08D-03 NDo=     1
 LinEq1:  Iter=  6 NonCon=     1 RMS=1.41D-05 Max=6.07D-04 NDo=     1
 LinEq1:  Iter=  7 NonCon=     1 RMS=5.76D-06 Max=1.05D-04 NDo=     1
 LinEq1:  Iter=  8 NonCon=     1 RMS=2.39D-06 Max=5.84D-05 NDo=     1
 LinEq1:  Iter=  9 NonCon=     1 RMS=9.73D-07 Max=3.26D-05 NDo=     1
 LinEq1:  Iter= 10 NonCon=     1 RMS=4.67D-07 Max=1.34D-05 NDo=     1
 LinEq1:  Iter= 11 NonCon=     1 RMS=1.78D-07 Max=3.31D-06 NDo=     1
 LinEq1:  Iter= 12 NonCon=     1 RMS=7.08D-08 Max=2.16D-06 NDo=     1
 LinEq1:  Iter= 13 NonCon=     1 RMS=2.24D-08 Max=3.78D-07 NDo=     1
 LinEq1:  Iter= 14 NonCon=     1 RMS=7.81D-09 Max=1.73D-07 NDo=     1
 LinEq1:  Iter= 15 NonCon=     1 RMS=2.86D-09 Max=4.05D-08 NDo=     1
 LinEq1:  Iter= 16 NonCon=     1 RMS=9.90D-10 Max=1.88D-08 NDo=     1
 LinEq1:  Iter= 17 NonCon=     1 RMS=2.85D-10 Max=4.53D-09 NDo=     1
 LinEq1:  Iter= 18 NonCon=     1 RMS=1.02D-10 Max=2.41D-09 NDo=     1
 LinEq1:  Iter= 19 NonCon=     0 RMS=3.26D-11 Max=9.91D-10 NDo=     1
 Linear equations converged to 1.000D-10 1.000D-09 after    19 iterations.
 End of Minotr F.D. properties file   721 does not exist.
 End of Minotr F.D. properties file   722 does not exist.
 End of Minotr F.D. properties file   788 does not exist.

 **********************************************************************

            Population analysis using the SCF Density.

 **********************************************************************

 Alpha  occ. eigenvalues --  -20.60606 -20.60485 -15.85061 -15.62371 -15.56818
 Alpha  occ. eigenvalues --  -11.35137 -11.30838 -11.29781 -11.29319 -11.27595
 Alpha  occ. eigenvalues --  -11.24334 -11.23682 -11.23259 -11.22718  -1.59373
 Alpha  occ. eigenvalues --   -1.39071  -1.28035  -1.22649  -1.13544  -1.08996
 Alpha  occ. eigenvalues --   -1.01641  -1.00633  -0.93679  -0.89089  -0.84669
 Alpha  occ. eigenvalues --   -0.81823  -0.78435  -0.77172  -0.74011  -0.71598
 Alpha  occ. eigenvalues --   -0.71189  -0.69047  -0.67009  -0.64354  -0.62977
 Alpha  occ. eigenvalues --   -0.61594  -0.60344  -0.57278  -0.56233  -0.54641
 Alpha  occ. eigenvalues --   -0.53519  -0.51158  -0.50231  -0.48770  -0.47904
 Alpha  occ. eigenvalues --   -0.47723  -0.46178  -0.45459  -0.44205  -0.41994
 Alpha  occ. eigenvalues --   -0.39933  -0.32825
 Alpha virt. eigenvalues --    0.08415   0.10965   0.18316   0.20917   0.22740
 Alpha virt. eigenvalues --    0.24097   0.25183   0.27727   0.28696   0.28846
 Alpha virt. eigenvalues --    0.29425   0.30994   0.31937   0.32443   0.33478
 Alpha virt. eigenvalues --    0.33969   0.35010   0.36565   0.37791   0.38518
 Alpha virt. eigenvalues --    0.40629   0.42097   0.44405   0.45189   0.45683
 Alpha virt. eigenvalues --    0.47440   0.49274   0.54320   0.57547   0.58269
 Alpha virt. eigenvalues --    0.60876   0.68797   0.69443   0.72152   0.73572
 Alpha virt. eigenvalues --    0.74510   0.75866   0.76396   0.77891   0.78849
 Alpha virt. eigenvalues --    0.79742   0.83079   0.85028   0.85943   0.88350
 Alpha virt. eigenvalues --    0.88702   0.89372   0.91178   0.92555   0.92993
 Alpha virt. eigenvalues --    0.94779   0.96971   0.99177   1.00676   1.01321
 Alpha virt. eigenvalues --    1.04037   1.05184   1.06279   1.06751   1.08383
 Alpha virt. eigenvalues --    1.10106   1.10312   1.10645   1.11633   1.12463
 Alpha virt. eigenvalues --    1.12940   1.13515   1.14875   1.15530   1.15911
 Alpha virt. eigenvalues --    1.16917   1.17669   1.18417   1.20913   1.22092
 Alpha virt. eigenvalues --    1.23589   1.23874   1.25461   1.26133   1.27930
 Alpha virt. eigenvalues --    1.29480   1.31209   1.33123   1.34487   1.36344
 Alpha virt. eigenvalues --    1.39700   1.42338   1.45325   1.45964   1.50061
 Alpha virt. eigenvalues --    1.53100   1.55303   1.60420   1.64202   1.68261
 Alpha virt. eigenvalues --    1.68464   1.71948   1.72897   1.73688   1.74975
 Alpha virt. eigenvalues --    1.78630   1.80500   1.86029   1.89597   1.91539
 Alpha virt. eigenvalues --    1.92760   1.97760   1.98434   1.99872   2.00609
 Alpha virt. eigenvalues --    2.03565   2.04719   2.07484   2.09223   2.11760
 Alpha virt. eigenvalues --    2.12385   2.14467   2.17141   2.19529   2.20916
 Alpha virt. eigenvalues --    2.22780   2.23316   2.25220   2.26082   2.29241
 Alpha virt. eigenvalues --    2.29985   2.31967   2.32110   2.34040   2.36855
 Alpha virt. eigenvalues --    2.37751   2.39236   2.40238   2.43014   2.45040
 Alpha virt. eigenvalues --    2.47563   2.49985   2.50796   2.57129   2.57963
 Alpha virt. eigenvalues --    2.60844   2.62973   2.66294   2.68293   2.69141
 Alpha virt. eigenvalues --    2.70025   2.70861   2.74829   2.75149   2.81141
 Alpha virt. eigenvalues --    2.85324   2.87161   2.90286   2.94171   2.95920
 Alpha virt. eigenvalues --    2.97147   3.00153   3.04438   3.06037   3.07355
 Alpha virt. eigenvalues --    3.09007   3.13527   3.18291   3.21055   3.23770
 Alpha virt. eigenvalues --    3.28947   3.33112   3.37951   3.40494   3.59179
 Alpha virt. eigenvalues --    4.14556   4.19583   4.26681   4.33566   4.43730
 Alpha virt. eigenvalues --    4.53573   4.59838   4.61517   4.71190   4.77548
 Alpha virt. eigenvalues --    4.98730   4.99450   5.04075   5.09989
          Condensed to atoms (all electrons):
               1          2          3          4          5          6
     1  O    8.303238   0.299828  -0.079554  -0.086667   0.004046   0.000040
     2  N    0.299828   5.771846   0.295389   0.242150  -0.050005   0.001335
     3  O   -0.079554   0.295389   8.307817  -0.086437   0.001705  -0.000015
     4  C   -0.086667   0.242150  -0.086437   5.227152   0.593040  -0.052751
     5  C    0.004046  -0.050005   0.001705   0.593040   4.627060   0.325856
     6  N    0.000040   0.001335  -0.000015  -0.052751   0.325856   7.166937
     7  C    0.000011  -0.000118  -0.000004   0.003174  -0.031459   0.209887
     8  H   -0.000000   0.000002   0.000000  -0.000162   0.002551  -0.049119
     9  C    0.000000  -0.000005   0.000000   0.000483   0.001752  -0.058244
    10  C   -0.000000   0.000000   0.000000  -0.000018  -0.000069   0.003412
    11  C    0.000000  -0.000000  -0.000000  -0.000021   0.000015  -0.000155
    12  C   -0.000000   0.000002   0.000000  -0.000053  -0.000130   0.003540
    13  C   -0.000024  -0.000037   0.000004  -0.009980   0.001078  -0.045801
    14  H   -0.000006  -0.000068   0.000001   0.002572   0.004876  -0.005497
    15  N   -0.000038   0.001902   0.000200  -0.066589  -0.005951   0.003445
    16  C    0.001272  -0.027532   0.003398   0.322748  -0.030848  -0.002484
    17  H    0.002272  -0.002234   0.000235  -0.038490   0.389124  -0.032122
    18  H    0.000000  -0.000058   0.000002   0.001457  -0.022479   0.327471
    19  H   -0.000000  -0.000000   0.000000  -0.000816   0.000696   0.000689
    20  H   -0.000000  -0.000000   0.000000  -0.000033   0.000045  -0.001418
    21  H    0.000000  -0.000000  -0.000000   0.000000   0.000001  -0.000060
    22  H   -0.000000   0.000000   0.000000  -0.000000  -0.000002  -0.000097
    23  H    0.000000  -0.000000   0.000000   0.000025   0.000000  -0.000024
    24  H   -0.000000   0.000000   0.000000   0.000000  -0.000000   0.000004
    25  H    0.000000  -0.000000   0.000000   0.000019  -0.000000  -0.000070
    26  H    0.000000  -0.000000   0.000000   0.000004  -0.000000  -0.000067
    27  H   -0.000084   0.001041   0.004366  -0.072711   0.001824   0.000039
               7          8          9         10         11         12
     1  O    0.000011  -0.000000   0.000000  -0.000000   0.000000  -0.000000
     2  N   -0.000118   0.000002  -0.000005   0.000000  -0.000000   0.000002
     3  O   -0.000004   0.000000   0.000000   0.000000  -0.000000   0.000000
     4  C    0.003174  -0.000162   0.000483  -0.000018  -0.000021  -0.000053
     5  C   -0.031459   0.002551   0.001752  -0.000069   0.000015  -0.000130
     6  N    0.209887  -0.049119  -0.058244   0.003412  -0.000155   0.003540
     7  C    5.001777   0.415687   0.341927  -0.049541  -0.007603  -0.064674
     8  H    0.415687   0.548731  -0.060830   0.001270  -0.000269  -0.002967
     9  C    0.341927  -0.060830   5.181354   0.317680  -0.053110  -0.005967
    10  C   -0.049541   0.001270   0.317680   5.127763   0.332762  -0.060200
    11  C   -0.007603  -0.000269  -0.053110   0.332762   5.124556   0.330379
    12  C   -0.064674  -0.002967  -0.005967  -0.060200   0.330379   5.138518
    13  C    0.329924  -0.039346  -0.051796  -0.001497  -0.048044   0.367135
    14  H   -0.039830  -0.000945   0.003806  -0.000384   0.003936  -0.040468
    15  N   -0.060834   0.004044  -0.012609   0.001551  -0.007774  -0.073975
    16  C   -0.000974  -0.000083  -0.000364  -0.000058   0.000035   0.002416
    17  H    0.001624  -0.000034  -0.000071   0.000001   0.000000   0.000001
    18  H   -0.029479  -0.002771   0.000659  -0.000113   0.000011  -0.000135
    19  H   -0.035103   0.004092   0.386461  -0.033002  -0.002255   0.000636
    20  H   -0.041465  -0.001774   0.397187  -0.037423   0.004139  -0.000359
    21  H    0.004049  -0.000083  -0.035796   0.399964  -0.035935   0.004224
    22  H   -0.004255   0.003545  -0.045581   0.395825  -0.045614  -0.001273
    23  H    0.000430   0.000034  -0.001984  -0.040179   0.396698  -0.036794
    24  H   -0.000149  -0.000098   0.004381  -0.038486   0.400234  -0.037888
    25  H    0.004998  -0.000001  -0.000380   0.004107  -0.034006   0.395345
    26  H   -0.004452   0.001539   0.001048  -0.002403  -0.042217   0.394677
    27  H   -0.000384   0.000008  -0.000051   0.000004   0.000005  -0.000021
              13         14         15         16         17         18
     1  O   -0.000024  -0.000006  -0.000038   0.001272   0.002272   0.000000
     2  N   -0.000037  -0.000068   0.001902  -0.027532  -0.002234  -0.000058
     3  O    0.000004   0.000001   0.000200   0.003398   0.000235   0.000002
     4  C   -0.009980   0.002572  -0.066589   0.322748  -0.038490   0.001457
     5  C    0.001078   0.004876  -0.005951  -0.030848   0.389124  -0.022479
     6  N   -0.045801  -0.005497   0.003445  -0.002484  -0.032122   0.327471
     7  C    0.329924  -0.039830  -0.060834  -0.000974   0.001624  -0.029479
     8  H   -0.039346  -0.000945   0.004044  -0.000083  -0.000034  -0.002771
     9  C   -0.051796   0.003806  -0.012609  -0.000364  -0.000071   0.000659
    10  C   -0.001497  -0.000384   0.001551  -0.000058   0.000001  -0.000113
    11  C   -0.048044   0.003936  -0.007774   0.000035   0.000000   0.000011
    12  C    0.367135  -0.040468  -0.073975   0.002416   0.000001  -0.000135
    13  C    5.020981   0.403633   0.246891  -0.070418  -0.000051   0.003762
    14  H    0.403633   0.512693  -0.035134  -0.005718   0.000056   0.000011
    15  N    0.246891  -0.035134   6.929118   0.594233  -0.000047  -0.000114
    16  C   -0.070418  -0.005718   0.594233   4.684231   0.001367  -0.000191
    17  H   -0.000051   0.000056  -0.000047   0.001367   0.418854  -0.002074
    18  H    0.003762   0.000011  -0.000114  -0.000191  -0.002074   0.330915
    19  H   -0.006136   0.000060   0.006764   0.002076   0.000011  -0.000111
    20  H    0.003879  -0.000050   0.000080  -0.000037  -0.000002   0.002749
    21  H   -0.000388   0.000009  -0.000034   0.000003  -0.000000  -0.000000
    22  H    0.000329  -0.000043   0.000007  -0.000001   0.000000   0.000003
    23  H   -0.005850   0.000006   0.006719   0.000066   0.000000   0.000000
    24  H    0.004147  -0.000059   0.000035   0.000005   0.000000  -0.000000
    25  H   -0.034655  -0.002655   0.000893  -0.000054  -0.000000   0.000002
    26  H   -0.044513  -0.000913   0.004148  -0.000055   0.000000  -0.000001
    27  H    0.004822  -0.000172  -0.035800   0.402107  -0.000070   0.000002
              19         20         21         22         23         24
     1  O   -0.000000  -0.000000   0.000000  -0.000000   0.000000  -0.000000
     2  N   -0.000000  -0.000000  -0.000000   0.000000  -0.000000   0.000000
     3  O    0.000000   0.000000  -0.000000   0.000000   0.000000   0.000000
     4  C   -0.000816  -0.000033   0.000000  -0.000000   0.000025   0.000000
     5  C    0.000696   0.000045   0.000001  -0.000002   0.000000  -0.000000
     6  N    0.000689  -0.001418  -0.000060  -0.000097  -0.000024   0.000004
     7  C   -0.035103  -0.041465   0.004049  -0.004255   0.000430  -0.000149
     8  H    0.004092  -0.001774  -0.000083   0.003545   0.000034  -0.000098
     9  C    0.386461   0.397187  -0.035796  -0.045581  -0.001984   0.004381
    10  C   -0.033002  -0.037423   0.399964   0.395825  -0.040179  -0.038486
    11  C   -0.002255   0.004139  -0.035935  -0.045614   0.396698   0.400234
    12  C    0.000636  -0.000359   0.004224  -0.001273  -0.036794  -0.037888
    13  C   -0.006136   0.003879  -0.000388   0.000329  -0.005850   0.004147
    14  H    0.000060  -0.000050   0.000009  -0.000043   0.000006  -0.000059
    15  N    0.006764   0.000080  -0.000034   0.000007   0.006719   0.000035
    16  C    0.002076  -0.000037   0.000003  -0.000001   0.000066   0.000005
    17  H    0.000011  -0.000002  -0.000000   0.000000   0.000000   0.000000
    18  H   -0.000111   0.002749  -0.000000   0.000003   0.000000  -0.000000
    19  H    0.507719  -0.023832  -0.002602   0.003776   0.001661  -0.000071
    20  H   -0.023832   0.549727  -0.002645  -0.002945  -0.000050  -0.000090
    21  H   -0.002602  -0.002645   0.527355  -0.024802  -0.002832  -0.002077
    22  H    0.003776  -0.002945  -0.024802   0.569497   0.004073  -0.003585
    23  H    0.001661  -0.000050  -0.002832   0.004073   0.511014  -0.025059
    24  H   -0.000071  -0.000090  -0.002077  -0.003585  -0.025059   0.541875
    25  H   -0.000027   0.000011  -0.000087  -0.000082  -0.002082  -0.002400
    26  H    0.000024  -0.000035  -0.000073   0.002456   0.003821  -0.002751
    27  H    0.000077   0.000000  -0.000000   0.000000  -0.000020  -0.000000
              25         26         27
     1  O    0.000000   0.000000  -0.000084
     2  N   -0.000000  -0.000000   0.001041
     3  O    0.000000   0.000000   0.004366
     4  C    0.000019   0.000004  -0.072711
     5  C   -0.000000  -0.000000   0.001824
     6  N   -0.000070  -0.000067   0.000039
     7  C    0.004998  -0.004452  -0.000384
     8  H   -0.000001   0.001539   0.000008
     9  C   -0.000380   0.001048  -0.000051
    10  C    0.004107  -0.002403   0.000004
    11  C   -0.034006  -0.042217   0.000005
    12  C    0.395345   0.394677  -0.000021
    13  C   -0.034655  -0.044513   0.004822
    14  H   -0.002655  -0.000913  -0.000172
    15  N    0.000893   0.004148  -0.035800
    16  C   -0.000054  -0.000055   0.402107
    17  H   -0.000000   0.000000  -0.000070
    18  H    0.000002  -0.000001   0.000002
    19  H   -0.000027   0.000024   0.000077
    20  H    0.000011  -0.000035   0.000000
    21  H   -0.000087  -0.000073  -0.000000
    22  H   -0.000082   0.002456   0.000000
    23  H   -0.002082   0.003821  -0.000020
    24  H   -0.002400  -0.002751  -0.000000
    25  H    0.511695  -0.023182  -0.000011
    26  H   -0.023182   0.560393   0.000001
    27  H   -0.000011   0.000001   0.459519
 Mulliken charges:
               1
     1  O   -0.444335
     2  N    0.466563
     3  O   -0.447109
     4  C    0.021905
     5  C    0.187272
     6  N   -0.794734
     7  C    0.056833
     8  H    0.176980
     9  C   -0.309949
    10  C   -0.320965
    11  C   -0.315766
    12  C   -0.311968
    13  C   -0.028047
    14  H    0.200282
    15  N   -0.501131
    16  C    0.124861
    17  H    0.261650
    18  H    0.390481
    19  H    0.189213
    20  H    0.154343
    21  H    0.171808
    22  H    0.148768
    23  H    0.190327
    24  H    0.162031
    25  H    0.182622
    26  H    0.152553
    27  H    0.235511
 Sum of Mulliken charges =  -0.00000
 Mulliken charges with hydrogens summed into heavy atoms:
               1
     1  O   -0.444335
     2  N    0.466563
     3  O   -0.447109
     4  C    0.021905
     5  C    0.448923
     6  N   -0.404253
     7  C    0.233813
     9  C    0.033607
    10  C   -0.000389
    11  C    0.036592
    12  C    0.023207
    13  C    0.172235
    15  N   -0.501131
    16  C    0.360372
 Electronic spatial extent (au):  <R**2>=           3066.4138
 Charge=             -0.0000 electrons
 Dipole moment (field-independent basis, Debye):
    X=              4.6179    Y=              4.2537    Z=              0.8216  Tot=              6.3320
 Quadrupole moment (field-independent basis, Debye-Ang):
   XX=           -101.3714   YY=            -76.0763   ZZ=            -87.3477
   XY=             -2.7125   XZ=              0.4962   YZ=              0.6601
 Traceless Quadrupole moment (field-independent basis, Debye-Ang):
   XX=            -13.1062   YY=             12.1889   ZZ=              0.9174
   XY=             -2.7125   XZ=              0.4962   YZ=              0.6601
 Octapole moment (field-independent basis, Debye-Ang**2):
  XXX=             75.9377  YYY=             29.4768  ZZZ=             -1.5018  XYY=            -19.4435
  XXY=             18.4097  XXZ=              3.1847  XZZ=              8.6997  YZZ=             -1.2323
  YYZ=              3.3614  XYZ=             -2.5520
 Hexadecapole moment (field-independent basis, Debye-Ang**3):
 XXXX=          -3377.4335 YYYY=           -550.0988 ZZZZ=           -379.7860 XXXY=            -80.1579
 XXXZ=              4.7360 YYYX=             -3.1894 YYYZ=             10.4874 ZZZX=              5.2472
 ZZZY=              0.0893 XXYY=           -571.7190 XXZZ=           -607.3330 YYZZ=           -166.2451
 XXYZ=              4.1421 YYXZ=              8.1817 ZZXY=             -3.0779
 N-N= 9.208414122625D+02 E-N=-3.387807850396D+03  KE= 6.590032302842D+02
 Calling FoFJK, ICntrl=  10002127 FMM=F ISym2X=0 I1Cent= 0 IOpClX= 0 NMat=1 NMatS=1 NMatT=0.
 -------------------------------------------------------------------
 Center     Atomic                   Forces (Hartrees/Bohr)
 Number     Number              X              Y              Z
 -------------------------------------------------------------------
      1        8          -0.016778126    0.005479737    0.018707256
      2        7           0.039612881   -0.006135374    0.001188655
      3        8          -0.011989998   -0.003058809   -0.020145916
      4        6           0.005833552    0.015941006    0.007591128
      5        6           0.008138146   -0.021623930   -0.003866202
      6        7           0.019533308   -0.002303120   -0.004473918
      7        6          -0.006529224    0.006173679    0.003092917
      8        1          -0.010206419   -0.001207630   -0.007653709
      9        6          -0.003705379   -0.000086363   -0.001877906
     10        6           0.002780058   -0.000919982    0.000660882
     11        6          -0.000772380   -0.004323871   -0.002511674
     12        6           0.000713809   -0.008743905   -0.003711939
     13        6           0.008744516   -0.000641972    0.002276787
     14        1           0.000648717    0.004586213   -0.010189389
     15        7           0.000821753   -0.004177822    0.005898643
     16        6          -0.015448599    0.015021345    0.000695193
     17        1           0.009289256   -0.004374178   -0.003127670
     18        1          -0.016718498   -0.002876601    0.003596032
     19        1           0.003141364    0.005386830    0.007860642
     20        1          -0.003284582   -0.007622018    0.002247502
     21        1          -0.004189241    0.001777383    0.009785407
     22        1          -0.004052049   -0.003553337   -0.007565648
     23        1           0.003985629    0.005499476    0.009575489
     24        1          -0.009391976    0.002656502   -0.001921121
     25        1          -0.000845722    0.010727674   -0.001804067
     26        1          -0.004839633   -0.004527334   -0.004674183
     27        1           0.005508838    0.002926401    0.000346807
 -------------------------------------------------------------------
 Cartesian Forces:  Max     0.039612881 RMS     0.008962343

 GradGradGradGradGradGradGradGradGradGradGradGradGradGradGradGradGradGrad
 Berny optimization.
 FormGI is forming the generalized inverse of G from B-inverse, IUseBI=4.
 Internal  Forces:  Max     0.027603237 RMS     0.006142553
 Search for a local minimum.
 Step number   1 out of a maximum of   20
 All quantities printed in internal units (Hartrees-Bohrs-Radians)
 Mixed Optimization -- RFO/linear search
 Second derivative matrix not updated -- first step.
 ITU=  0
     Eigenvalues ---    0.00639   0.00769   0.01095   0.01180   0.01312
     Eigenvalues ---    0.01501   0.01539   0.01656   0.01999   0.02067
     Eigenvalues ---    0.02147   0.02671   0.03655   0.04507   0.04697
     Eigenvalues ---    0.04837   0.05070   0.05138   0.05301   0.05869
     Eigenvalues ---    0.06271   0.07214   0.07700   0.07717   0.07860
     Eigenvalues ---    0.07997   0.08041   0.08050   0.10460   0.11738
     Eigenvalues ---    0.12271   0.13423   0.15196   0.15660   0.15988
     Eigenvalues ---    0.16000   0.20101   0.22018   0.23279   0.24984
     Eigenvalues ---    0.25000   0.25000   0.25317   0.26136   0.26656
     Eigenvalues ---    0.27990   0.28082   0.28424   0.31481   0.31767
     Eigenvalues ---    0.32042   0.32239   0.32290   0.32381   0.32386
     Eigenvalues ---    0.32403   0.32508   0.32527   0.32585   0.33350
     Eigenvalues ---    0.33570   0.34077   0.34237   0.35230   0.43889
     Eigenvalues ---    0.45454   0.49486   0.67255   0.91740   0.91825
     Eigenvalues --- 1000.000001000.000001000.000001000.000001000.00000
     Eigenvalues --- 1000.000001000.000001000.000001000.000001000.00000
     Eigenvalues --- 1000.000001000.000001000.000001000.000001000.00000
     Eigenvalues --- 1000.000001000.000001000.000001000.000001000.00000
     Eigenvalues --- 1000.000001000.000001000.000001000.000001000.00000
     Eigenvalues --- 1000.000001000.000001000.000001000.000001000.00000
     Eigenvalues --- 1000.000001000.000001000.000001000.000001000.00000
     Eigenvalues --- 1000.000001000.000001000.000001000.000001000.00000
     Eigenvalues --- 1000.000001000.000001000.000001000.000001000.00000
     Eigenvalues --- 1000.000001000.000001000.000001000.000001000.00000
     Eigenvalues --- 1000.000001000.000001000.000001000.000001000.00000
     Eigenvalues --- 1000.000001000.000001000.000001000.000001000.00000
     Eigenvalues --- 1000.000001000.000001000.000001000.000001000.00000
     Eigenvalues --- 1000.000001000.000001000.000001000.000001000.00000
     Eigenvalues --- 1000.000001000.000001000.000001000.000001000.00000
     Eigenvalues --- 1000.000001000.000001000.000001000.000001000.00000
     Eigenvalues --- 1000.000001000.000001000.000001000.000001000.00000
     Eigenvalues --- 1000.000001000.000001000.000001000.000001000.00000
     Eigenvalues --- 1000.00000
 RFO step:  Lambda=-1.80270419D-02 EMin= 6.39380129D-03
 Linear search not attempted -- first point.
 Iteration  1 RMS(Cart)=  0.04436080 RMS(Int)=  0.00113723
 Iteration  2 RMS(Cart)=  0.00138658 RMS(Int)=  0.00029463
 Iteration  3 RMS(Cart)=  0.00000069 RMS(Int)=  0.00029463
 Iteration  1 RMS(Cart)=  0.00001674 RMS(Int)=  0.00001117
 Iteration  2 RMS(Cart)=  0.00000951 RMS(Int)=  0.00001223
 Iteration  3 RMS(Cart)=  0.00000587 RMS(Int)=  0.00001380
 Iteration  4 RMS(Cart)=  0.00000402 RMS(Int)=  0.00001515
 Iteration  5 RMS(Cart)=  0.00000303 RMS(Int)=  0.00001626
 Iteration  6 RMS(Cart)=  0.00000244 RMS(Int)=  0.00001716
 Iteration  7 RMS(Cart)=  0.00000204 RMS(Int)=  0.00001791
 Iteration  8 RMS(Cart)=  0.00000173 RMS(Int)=  0.00001854
 Iteration  9 RMS(Cart)=  0.00000147 RMS(Int)=  0.00001908
 Iteration 10 RMS(Cart)=  0.00000126 RMS(Int)=  0.00001954
 Iteration 11 RMS(Cart)=  0.00000108 RMS(Int)=  0.00001994
 Iteration 12 RMS(Cart)=  0.00000092 RMS(Int)=  0.00002028
 Variable       Old X    -DE/DX   Delta X   Delta X   Delta X     New X
                                 (Linear)    (Quad)   (Total)
    R1        2.32141   0.02399   0.00000   0.02565   0.02565   2.34706
    R2        2.32103   0.02346   0.00000   0.02506   0.02506   2.34609
    R3        2.80232  -0.01009   0.00000  -0.02799  -0.02799   2.77434
    R4        2.63026  -0.02760   0.00000  -0.05885  -0.05867   2.57159
    R5        2.79123  -0.01988   0.00000  -0.05746  -0.05733   2.73390
    R6        2.58892  -0.01857   0.00000  -0.03542  -0.03531   2.55361
    R7        2.08442  -0.01027   0.00000  -0.02922  -0.02922   2.05520
    R8        2.82753  -0.02113   0.00000  -0.05854  -0.05856   2.76897
    R9        1.93288  -0.00694   0.00000  -0.01519  -0.01519   1.91769
   R10        2.11803  -0.01190   0.00000  -0.03574  -0.03574   2.08229
   R11        2.92739  -0.01275   0.00000  -0.04422  -0.04421   2.88318
   R12        2.90736  -0.00425   0.00000  -0.00965  -0.00960   2.89776
   R13        2.91146  -0.00460   0.00000  -0.01451  -0.01456   2.89691
   R14        2.09925  -0.00982   0.00000  -0.02863  -0.02863   2.07062
   R15        2.09891  -0.00816   0.00000  -0.02378  -0.02378   2.07513
   R16        2.90431  -0.00197   0.00000  -0.00750  -0.00758   2.89673
   R17        2.10142  -0.01054   0.00000  -0.03082  -0.03082   2.07060
   R18        2.10317  -0.00900   0.00000  -0.02640  -0.02640   2.07676
   R19        2.91734  -0.00915   0.00000  -0.02960  -0.02960   2.88774
   R20        2.10408  -0.01158   0.00000  -0.03401  -0.03401   2.07007
   R21        2.10113  -0.00992   0.00000  -0.02900  -0.02900   2.07213
   R22        2.93520  -0.01053   0.00000  -0.03696  -0.03691   2.89830
   R23        2.10153  -0.01075   0.00000  -0.03146  -0.03146   2.07007
   R24        2.09786  -0.00791   0.00000  -0.02300  -0.02300   2.07486
   R25        2.10768  -0.00958   0.00000  -0.02830  -0.02830   2.07937
   R26        2.77235  -0.00663   0.00000  -0.01519  -0.01545   2.75690
   R27        2.44179  -0.00426   0.00000  -0.00652  -0.00661   2.43518
   R28        2.08062  -0.00475   0.00000  -0.01344  -0.01344   2.06719
    A1        2.20470  -0.00547   0.00000  -0.01901  -0.02006   2.18464
    A2        2.03631   0.00594   0.00000   0.02354   0.02249   2.05880
    A3        2.03662   0.00064   0.00000   0.00378   0.00273   2.03936
    A4        1.99457   0.00258   0.00000   0.01381   0.01359   2.00815
    A5        2.02109  -0.00454   0.00000  -0.01289  -0.01312   2.00797
    A6        2.26681   0.00191   0.00000  -0.00011   0.00012   2.26693
    A7        2.18286   0.01074   0.00000   0.04105   0.04135   2.22421
    A8        2.06441  -0.00269   0.00000  -0.00493  -0.00518   2.05923
    A9        2.03474  -0.00799   0.00000  -0.03509  -0.03536   1.99938
   A10        2.25050  -0.00701   0.00000  -0.02196  -0.02187   2.22863
   A11        2.11462  -0.01098   0.00000  -0.06746  -0.06806   2.04656
   A12        1.87335   0.01796   0.00000   0.09918   0.09925   1.97261
   A13        1.83736  -0.00189   0.00000  -0.01713  -0.01687   1.82049
   A14        2.00475  -0.00057   0.00000  -0.01026  -0.01056   1.99418
   A15        1.97212   0.00099   0.00000  -0.00609  -0.00649   1.96563
   A16        1.85268   0.00270   0.00000   0.02598   0.02587   1.87855
   A17        1.84865   0.00110   0.00000   0.02446   0.02414   1.87280
   A18        1.93425  -0.00199   0.00000  -0.01129  -0.01099   1.92327
   A19        1.91035   0.00049   0.00000  -0.00492  -0.00504   1.90531
   A20        1.92175  -0.00071   0.00000  -0.01379  -0.01377   1.90798
   A21        1.92306  -0.00189   0.00000  -0.00753  -0.00754   1.91552
   A22        1.91922  -0.00055   0.00000   0.00555   0.00549   1.92471
   A23        1.90474   0.00301   0.00000   0.02664   0.02663   1.93138
   A24        1.88452  -0.00035   0.00000  -0.00551  -0.00579   1.87873
   A25        1.94081  -0.00100   0.00000   0.00567   0.00557   1.94638
   A26        1.91878  -0.00055   0.00000  -0.00643  -0.00645   1.91233
   A27        1.90490   0.00028   0.00000  -0.00307  -0.00314   1.90176
   A28        1.91602   0.00072   0.00000   0.00755   0.00759   1.92361
   A29        1.89851   0.00181   0.00000   0.01159   0.01161   1.91012
   A30        1.88376  -0.00125   0.00000  -0.01584  -0.01592   1.86784
   A31        1.94463   0.00068   0.00000   0.00555   0.00564   1.95027
   A32        1.90245   0.00059   0.00000   0.00649   0.00647   1.90892
   A33        1.91723   0.00042   0.00000   0.00569   0.00564   1.92287
   A34        1.90695  -0.00124   0.00000  -0.01549  -0.01553   1.89141
   A35        1.91529  -0.00041   0.00000   0.00047   0.00039   1.91568
   A36        1.87593  -0.00007   0.00000  -0.00312  -0.00316   1.87277
   A37        1.94630  -0.00286   0.00000  -0.02007  -0.02006   1.92624
   A38        1.90625   0.00241   0.00000   0.01696   0.01679   1.92303
   A39        1.91126   0.00144   0.00000   0.01507   0.01501   1.92628
   A40        1.90631   0.00021   0.00000  -0.00366  -0.00353   1.90278
   A41        1.91196  -0.00030   0.00000  -0.00435  -0.00426   1.90770
   A42        1.88057  -0.00083   0.00000  -0.00339  -0.00359   1.87697
   A43        1.84551   0.00470   0.00000   0.02447   0.02447   1.86998
   A44        1.93504  -0.00427   0.00000  -0.03067  -0.03127   1.90376
   A45        1.99049   0.00111   0.00000   0.01445   0.01502   2.00551
   A46        1.88110   0.00234   0.00000   0.03411   0.03443   1.91553
   A47        1.89117  -0.00445   0.00000  -0.03252  -0.03269   1.85848
   A48        1.91577   0.00077   0.00000  -0.00718  -0.00707   1.90870
   A49        2.08578  -0.00536   0.00000  -0.00969  -0.01012   2.07566
   A50        2.23785  -0.00125   0.00000  -0.00750  -0.00784   2.23002
   A51        1.98040   0.00373   0.00000   0.02077   0.02017   2.00057
   A52        2.06480  -0.00250   0.00000  -0.01417  -0.01472   2.05008
    D1       -1.25830   0.00786   0.00000   0.02081   0.02068  -1.23762
    D2        1.91987   0.00904   0.00000   0.00000  -0.00000   1.91987
    D3        1.98911  -0.00222   0.00000  -0.05675  -0.05683   1.93229
    D4       -1.11590  -0.00104   0.00000  -0.07756  -0.07751  -1.19341
    D5        3.07293   0.00199   0.00000   0.00384   0.00398   3.07691
    D6       -0.01467   0.00104   0.00000  -0.01880  -0.01914  -0.03380
    D7       -0.11158   0.00045   0.00000   0.02800   0.02813  -0.08345
    D8        3.08401  -0.00050   0.00000   0.00535   0.00501   3.08902
    D9       -2.77491  -0.00080   0.00000  -0.00526  -0.00544  -2.78035
   D10        0.38481   0.00038   0.00000   0.05519   0.05535   0.44016
   D11        0.41013   0.00061   0.00000  -0.03025  -0.03012   0.38001
   D12       -2.71333   0.00180   0.00000   0.03019   0.03066  -2.68266
   D13       -0.06469  -0.00069   0.00000  -0.01506  -0.01477  -0.07946
   D14        2.71817   0.00254   0.00000   0.04085   0.03967   2.75784
   D15        3.02373   0.00038   0.00000   0.00803   0.00842   3.03215
   D16       -0.47659   0.00361   0.00000   0.06394   0.06286  -0.41373
   D17       -2.53699  -0.00074   0.00000  -0.00735  -0.00709  -2.54409
   D18        1.71496  -0.00250   0.00000  -0.02251  -0.02218   1.69277
   D19       -0.52751  -0.00006   0.00000   0.00864   0.00848  -0.51902
   D20        0.92478   0.00046   0.00000  -0.03300  -0.03369   0.89109
   D21       -1.10646  -0.00130   0.00000  -0.04816  -0.04877  -1.15523
   D22        2.93426   0.00115   0.00000  -0.01701  -0.01811   2.91615
   D23        2.94086   0.00232   0.00000   0.03551   0.03534   2.97620
   D24       -1.23062   0.00151   0.00000   0.03052   0.03038  -1.20024
   D25        0.84621  -0.00053   0.00000   0.01044   0.01038   0.85659
   D26        0.91840   0.00320   0.00000   0.04517   0.04512   0.96352
   D27        3.03011   0.00238   0.00000   0.04017   0.04016   3.07027
   D28       -1.17624   0.00034   0.00000   0.02009   0.02016  -1.15608
   D29       -1.08108   0.00139   0.00000   0.00762   0.00765  -1.07342
   D30        1.03063   0.00058   0.00000   0.00262   0.00269   1.03332
   D31        3.10747  -0.00146   0.00000  -0.01746  -0.01731   3.09016
   D32       -2.89773  -0.00088   0.00000  -0.01561  -0.01531  -2.91304
   D33       -0.86356   0.00240   0.00000   0.02314   0.02298  -0.84059
   D34        1.30939   0.00086   0.00000   0.00000  -0.00001   1.30939
   D35       -0.89502  -0.00198   0.00000  -0.02462  -0.02453  -0.91956
   D36        1.13914   0.00130   0.00000   0.01413   0.01375   1.15289
   D37       -2.97109  -0.00025   0.00000  -0.00901  -0.00923  -2.98032
   D38        1.10698   0.00082   0.00000   0.01387   0.01399   1.12097
   D39        3.14114   0.00410   0.00000   0.05262   0.05228  -3.08976
   D40       -0.96909   0.00256   0.00000   0.02948   0.02930  -0.93979
   D41        0.95665   0.00084   0.00000   0.00000   0.00001   0.95666
   D42        3.08230   0.00070   0.00000   0.00894   0.00890   3.09120
   D43       -1.13785  -0.00097   0.00000  -0.01593  -0.01590  -1.15375
   D44       -1.15659   0.00174   0.00000   0.01670   0.01677  -1.13982
   D45        0.96906   0.00161   0.00000   0.02564   0.02566   0.99472
   D46        3.03209  -0.00006   0.00000   0.00076   0.00086   3.03295
   D47        3.06248   0.00068   0.00000   0.00418   0.00414   3.06662
   D48       -1.09506   0.00055   0.00000   0.01312   0.01303  -1.08203
   D49        0.96798  -0.00112   0.00000  -0.01176  -0.01177   0.95621
   D50       -0.92192  -0.00064   0.00000   0.00000   0.00001  -0.92191
   D51        1.18387  -0.00137   0.00000  -0.01152  -0.01152   1.17235
   D52       -3.04813  -0.00087   0.00000  -0.00820  -0.00823  -3.05636
   D53       -3.04917   0.00023   0.00000  -0.00079  -0.00078  -3.04995
   D54       -0.94338  -0.00050   0.00000  -0.01231  -0.01231  -0.95569
   D55        1.10780   0.00000   0.00000  -0.00900  -0.00902   1.09878
   D56        1.17637   0.00026   0.00000   0.00720   0.00724   1.18361
   D57       -3.00103  -0.00047   0.00000  -0.00431  -0.00429  -3.00532
   D58       -0.94985   0.00004   0.00000  -0.00100  -0.00100  -0.95084
   D59        0.99022  -0.00093   0.00000  -0.01159  -0.01158   0.97864
   D60        3.09879  -0.00089   0.00000  -0.01772  -0.01786   3.08094
   D61       -1.12883   0.00035   0.00000  -0.00316  -0.00310  -1.13193
   D62       -1.11293  -0.00128   0.00000  -0.01298  -0.01294  -1.12587
   D63        0.99564  -0.00124   0.00000  -0.01911  -0.01922   0.97643
   D64        3.05120   0.00000   0.00000  -0.00456  -0.00446   3.04674
   D65        3.11755  -0.00022   0.00000  -0.00037  -0.00036   3.11720
   D66       -1.05705  -0.00019   0.00000  -0.00651  -0.00663  -1.06368
   D67        0.99851   0.00106   0.00000   0.00805   0.00813   1.00663
   D68       -1.05675  -0.00006   0.00000  -0.00253  -0.00253  -1.05928
   D69       -3.12712   0.00130   0.00000   0.00346   0.00303  -3.12410
   D70        1.08397   0.00152   0.00000   0.01089   0.01098   1.09495
   D71        3.11789  -0.00138   0.00000  -0.00846  -0.00839   3.10951
   D72        1.04752  -0.00002   0.00000  -0.00246  -0.00283   1.04469
   D73       -1.02457   0.00020   0.00000   0.00497   0.00512  -1.01945
   D74        1.06190  -0.00032   0.00000   0.00032   0.00044   1.06233
   D75       -1.00848   0.00104   0.00000   0.00631   0.00599  -1.00249
   D76       -3.08057   0.00125   0.00000   0.01374   0.01394  -3.06663
   D77       -1.17217   0.00390   0.00000   0.00000  -0.00001  -1.17218
   D78        3.06107   0.00036   0.00000  -0.01743  -0.01728   3.04379
   D79        1.01105  -0.00032   0.00000  -0.03561  -0.03590   0.97516
   D80        0.19754  -0.00176   0.00000   0.00832   0.00827   0.20581
   D81       -2.96295  -0.00294   0.00000  -0.05434  -0.05369  -3.01664
         Item               Value     Threshold  Converged?
 Maximum Force            0.027319     0.000450     NO 
 RMS     Force            0.006117     0.000300     NO 
 Maximum Displacement     0.148733     0.001800     NO 
 RMS     Displacement     0.044351     0.001200     NO 
 Predicted change in Energy=-9.935733D-03
 GradGradGradGradGradGradGradGradGradGradGradGradGradGradGradGradGradGrad

                          Input orientation:                          
 ---------------------------------------------------------------------
 Center     Atomic      Atomic             Coordinates (Angstroms)
 Number     Number       Type             X           Y           Z
 ---------------------------------------------------------------------
      1          8           0       -3.727377   -0.317582    0.973026
      2          7           0       -3.118293   -0.242274   -0.106761
      3          8           0       -3.629803   -0.390747   -1.228202
      4          6           0       -1.671779    0.005196   -0.065323
      5          6           0       -1.312404    1.258771    0.323583
      6          7           0       -0.061398    1.732577    0.514720
      7          6           0        1.199289    0.989665    0.438706
      8          1           0        1.838841    1.459710    1.203047
      9          6           0        1.917491    1.109269   -0.902068
     10          6           0        3.316842    0.495325   -0.779969
     11          6           0        3.254762   -0.948487   -0.268814
     12          6           0        2.447645   -1.056992    1.024227
     13          6           0        1.038432   -0.486015    0.823284
     14          1           0        0.472468   -0.552735    1.764568
     15          7           0        0.395065   -1.317868   -0.187880
     16          6           0       -0.847123   -1.114611   -0.464027
     17          1           0       -2.103899    1.973506    0.536851
     18          1           0        0.067034    2.738113    0.467586
     19          1           0        1.338855    0.585642   -1.671231
     20          1           0        1.982060    2.165464   -1.195541
     21          1           0        3.819524    0.531227   -1.752911
     22          1           0        3.914379    1.103489   -0.086548
     23          1           0        2.780296   -1.581995   -1.026130
     24          1           0        4.267611   -1.336297   -0.107254
     25          1           0        2.367574   -2.104971    1.332936
     26          1           0        2.948499   -0.510697    1.834316
     27          1           0       -1.337592   -1.825703   -1.135162
 ---------------------------------------------------------------------
                    Distance matrix (angstroms):
                    1          2          3          4          5
     1  O    0.000000
     2  N    1.242011   0.000000
     3  O    2.204604   1.241498   0.000000
     4  C    2.325476   1.468116   2.311475   0.000000
     5  C    2.956139   2.387377   3.240260   1.360826   0.000000
     6  N    4.225234   3.692003   4.503310   2.431794   1.351311
     7  C    5.125078   4.522911   5.291904   3.076728   2.528690
     8  H    5.847603   5.402363   6.264282   4.006099   3.277831
     9  C    6.116896   5.274306   5.755769   3.847334   3.457859
    10  C    7.304438   6.512160   7.017258   5.063327   4.819812
    11  C    7.119723   6.414112   6.973430   5.022123   5.107046
    12  C    6.219344   5.737819   6.515573   4.391470   4.471199
    13  C    4.771134   4.266469   5.100009   2.894159   2.969917
    14  H    4.280249   4.061013   5.080506   2.873601   2.922971
    15  N    4.398045   3.675210   4.259271   2.457104   3.133067
    16  C    3.316057   2.459029   2.975105   1.446717   2.543571
    17  H    2.841657   2.520499   3.321670   2.103232   1.087563
    18  H    4.897989   4.399874   5.131478   3.282727   2.027817
    19  H    5.785725   4.795746   5.083028   3.461181   3.385492
    20  H    6.592865   5.744236   6.166708   4.392572   3.739428
    21  H    8.068886   7.172268   7.524482   5.768801   5.583711
    22  H    7.844652   7.160305   7.775011   5.693141   5.245148
    23  H    6.924245   6.118288   6.522980   4.823204   5.161576
    24  H    8.131704   7.466490   8.032418   6.089147   6.169000
    25  H    6.361817   5.969682   6.742887   4.767001   5.086825
    26  H    6.733976   6.375406   7.257236   5.022126   4.854753
    27  H    3.525614   2.595333   2.705917   2.146725   3.412118
                    6          7          8          9         10
     6  N    0.000000
     7  C    1.465274   0.000000
     8  H    2.039402   1.101901   0.000000
     9  C    2.512330   1.525712   2.135534   0.000000
    10  C    3.823547   2.492704   2.654596   1.532977   0.000000
    11  C    4.335775   2.912385   3.157628   2.534495   1.532881
    12  C    3.786369   2.467799   2.595459   2.946924   2.533833
    13  C    2.495394   1.533430   2.137925   2.508888   2.953743
    14  H    2.658907   2.159903   2.496441   3.458512   3.957722
    15  N    3.163419   2.522716   3.425508   2.952768   3.489271
    16  C    3.111558   3.070946   4.076845   3.574999   4.475524
    17  H    2.056780   3.447988   4.031501   4.357633   5.770915
    18  H    1.014800   2.083244   2.305324   2.820156   4.140984
    19  H    2.838054   2.152800   3.045563   1.095726   2.171390
    20  H    2.699649   2.160092   2.504362   1.098109   2.178005
    21  H    4.652628   3.446590   3.677346   2.162359   1.095716
    22  H    4.069898   2.767772   2.469374   2.157004   1.098976
    23  H    4.629885   3.355408   3.886842   2.828909   2.159568
    24  H    5.342767   3.888801   3.928545   3.483617   2.170563
    25  H    4.614776   3.426559   3.606020   3.940705   3.482386
    26  H    3.979082   2.694170   2.347839   3.342914   2.825287
    27  H    4.124578   4.103550   5.133312   4.389073   5.213164
                   11         12         13         14         15
    11  C    0.000000
    12  C    1.528125   0.000000
    13  C    2.513698   1.533712   0.000000
    14  H    3.468778   2.168802   1.100356   0.000000
    15  N    2.884589   2.397987   1.458887   2.098445   0.000000
    16  C    4.109886   3.615759   2.368042   2.650219   1.288644
    17  H    6.156491   5.489808   4.000691   3.811410   4.195616
    18  H    4.928987   4.514419   3.386021   3.560368   4.121677
    19  H    2.826839   3.345617   2.731540   3.721726   2.591219
    20  H    3.489310   3.940604   3.463587   4.292986   3.958223
    21  H    2.170496   3.480946   3.925053   4.974979   4.194686
    22  H    2.163081   2.837747   3.409602   4.244580   4.273032
    23  H    1.095436   2.142487   2.766875   3.764764   2.541997
    24  H    1.096522   2.161143   3.466479   4.303580   3.873429
    25  H    2.165677   1.095433   2.155778   2.487402   2.612126
    26  H    2.169934   1.097970   2.161285   2.477370   3.355716
    27  H    4.754974   4.425143   3.357941   3.647629   2.038956
                   16         17         18         19         20
    16  C    0.000000
    17  H    3.481050   0.000000
    18  H    4.067809   2.302688   0.000000
    19  H    3.021043   4.319068   3.290167   0.000000
    20  H    4.392981   4.442194   2.600240   1.770828   0.000000
    21  H    5.113472   6.512305   4.886936   2.482610   2.521441
    22  H    5.266342   6.112710   4.216767   3.068014   2.468099
    23  H    3.700348   6.240180   5.315667   2.681894   3.835275
    24  H    5.131952   7.208730   5.880145   3.836337   4.320930
    25  H    3.813681   6.104243   5.431094   4.162052   4.977794
    26  H    4.478152   5.777664   4.552534   4.010209   4.156426
    27  H    1.093908   4.221000   5.036884   3.642159   5.191642
                   21         22         23         24         25
    21  H    0.000000
    22  H    1.764440   0.000000
    23  H    2.464531   3.062807   0.000000
    24  H    2.529152   2.465310   1.765448   0.000000
    25  H    4.310469   3.834286   2.451333   2.505024   0.000000
    26  H    3.835686   2.688539   3.059106   2.488245   1.769340
    27  H    5.703733   6.104339   4.126534   5.719651   4.460689
                   26         27
    26  H    0.000000
    27  H    5.377511   0.000000
 Symmetry turned off by external request.
 Stoichiometry    C9H13N3O2
 Framework group  C1[X(C9H13N3O2)]
 Deg. of freedom    75
 Full point group                 C1      NOp   1
 Rotational constants (GHZ):           1.6691294           0.4101757           0.3834355
 Standard basis: 6-31G(d) (6D, 7F)
   236 basis functions,   444 primitive gaussians,   236 cartesian basis functions
    52 alpha electrons       52 beta electrons
       nuclear repulsion energy       930.2621220185 Hartrees.
 NAtoms=   27 NActive=   27 NUniq=   27 SFac= 1.00D+00 NAtFMM=   60 NAOKFM=F Big=F
 Integral buffers will be    131072 words long.
 Raffenetti 1 integral format.
 Two-electron integral symmetry is turned off.
 One-electron integrals computed using PRISM.
 NBasis=   236 RedAO= T EigKep=  1.52D-03  NBF=   236
 NBsUse=   236 1.00D-06 EigRej= -1.00D+00 NBFU=   236
 Initial guess from the checkpoint file:  "/home/alexey/tmp/Gau-1076277.chk"
 B after Tr=     0.035122   -0.000112   -0.000390
         Rot=    0.999999   -0.000951    0.000785    0.000170 Ang=  -0.14 deg.
 ExpMin= 1.61D-01 ExpMax= 5.48D+03 ExpMxC= 8.25D+02 IAcc=3 IRadAn=         5 AccDes= 0.00D+00
 Harris functional with IExCor=  205 and IRadAn=       5 diagonalized for initial guess.
 HarFok:  IExCor=  205 AccDes= 0.00D+00 IRadAn=         5 IDoV= 1 UseB2=F ITyADJ=14
 ICtDFT=  3500011 ScaDFX=  1.000000  1.000000  1.000000  1.000000
 FoFCou: FMM=F IPFlag=           0 FMFlag=      100000 FMFlg1=           0
         NFxFlg=           0 DoJE=T BraDBF=F KetDBF=T FulRan=T
         wScrn=  0.000000 ICntrl=       500 IOpCl=  0 I1Cent=   200000004 NGrid=           0
         NMat0=    1 NMatS0=      1 NMatT0=    0 NMatD0=    1 NMtDS0=    0 NMtDT0=    0
 Symmetry not used in FoFCou.
 Keep R1 ints in memory in canonical form, NReq=397720213.
 Requested convergence on RMS density matrix=1.00D-08 within 128 cycles.
 Requested convergence on MAX density matrix=1.00D-06.
 Requested convergence on             energy=1.00D-06.
 No special actions if energy rises.
 SCF Done:  E(RHF) =  -661.281987172     A.U. after   15 cycles
            NFock= 15  Conv=0.56D-08     -V/T= 2.0025
 ExpMin= 1.61D-01 ExpMax= 5.48D+03 ExpMxC= 8.25D+02 IAcc=3 IRadAn=         5 AccDes= 0.00D+00
 HarFok:  IExCor=  205 AccDes= 0.00D+00 IRadAn=         5 IDoV=-2 UseB2=F ITyADJ=14
 ICtDFT= 12500011 ScaDFX=  1.000000  1.000000  1.000000  1.000000
 Range of M.O.s used for correlation:    15   236
 NBasis=   236 NAE=    52 NBE=    52 NFC=    14 NFV=     0
 NROrb=    222 NOA=    38 NOB=    38 NVA=   184 NVB=   184
 Fully direct method using O(ONN) memory.
 JobTyp=1 Pass  1:  I=  15 to  52 NPSUse=  4 ParTrn=T ParDer=T DoDerP=T.
 Spin components of T(2) and E(2):
     alpha-alpha T2 =       0.9150327985D-01 E2=     -0.2725949745D+00
     alpha-beta  T2 =       0.4964782546D+00 E2=     -0.1493457661D+01
     beta-beta   T2 =       0.9150327985D-01 E2=     -0.2725949745D+00
 ANorm=    0.1295949387D+01
 E2 =    -0.2038647610D+01 EUMP2 =    -0.66332063478139D+03
          IDoAtm=111111111111111111111111111
          Differentiating once with respect to electric field.
                with respect to dipole field.
          Differentiating once with respect to nuclear coordinates.
 Keep R1 ints in memory in canonical form, NReq=397723379.
          There are     1 degrees of freedom in the 1st order CPHF.  IDoFFX=0 NUNeed=     1.
 LinEq1:  Iter=  0 NonCon=     1 RMS=4.51D-03 Max=1.14D-01 NDo=     1
 AX will form     1 AO Fock derivatives at one time.
 LinEq1:  Iter=  1 NonCon=     1 RMS=1.51D-03 Max=3.49D-02 NDo=     1
 LinEq1:  Iter=  2 NonCon=     1 RMS=6.36D-04 Max=1.61D-02 NDo=     1
 LinEq1:  Iter=  3 NonCon=     1 RMS=2.78D-04 Max=4.66D-03 NDo=     1
 LinEq1:  Iter=  4 NonCon=     1 RMS=8.44D-05 Max=1.18D-03 NDo=     1
 LinEq1:  Iter=  5 NonCon=     1 RMS=3.31D-05 Max=7.94D-04 NDo=     1
 LinEq1:  Iter=  6 NonCon=     1 RMS=1.30D-05 Max=4.73D-04 NDo=     1
 LinEq1:  Iter=  7 NonCon=     1 RMS=5.42D-06 Max=1.09D-04 NDo=     1
 LinEq1:  Iter=  8 NonCon=     1 RMS=2.32D-06 Max=5.16D-05 NDo=     1
[...]
                   16         17         18         19         20
    16  C    0.000000
    17  H    3.473998   0.000000
    18  H    4.105788   2.231182   0.000000
    19  H    3.001240   4.356892   3.571383   0.000000
    20  H    4.389872   4.510466   2.961937   1.767850   0.000000
    21  H    5.100079   6.550675   5.138267   2.499475   2.522649
    22  H    5.255276   6.113865   4.339473   3.070364   2.463062
    23  H    3.686437   6.236855   5.436088   2.704782   3.843724
    24  H    5.128241   7.190615   5.941106   3.849878   4.318281
    25  H    3.817238   6.036837   5.333893   4.174884   4.986274
    26  H    4.493488   5.726591   4.439439   4.032122   4.176937
    27  H    1.093538   4.243513   5.114303   3.616889   5.182375
                   21         22         23         24         25
    21  H    0.000000
    22  H    1.758781   0.000000
    23  H    2.469910   3.062285   0.000000
    24  H    2.516886   2.459894   1.764313   0.000000
    25  H    4.312137   3.837413   2.446201   2.518281   0.000000
    26  H    3.843841   2.699980   3.060545   2.494388   1.768061
    27  H    5.675344   6.081057   4.095033   5.698540   4.451491
                   26         27
    26  H    0.000000
    27  H    5.381348   0.000000
 Symmetry turned off by external request.
 Stoichiometry    C9H13N3O2
 Framework group  C1[X(C9H13N3O2)]
 Deg. of freedom    75
 Full point group                 C1      NOp   1
 Rotational constants (GHZ):           1.6609182           0.4108581           0.3849090

 **********************************************************************

            Population analysis using the SCF Density.

 **********************************************************************

 Alpha  occ. eigenvalues --  -20.60719 -20.60554 -15.84996 -15.62751 -15.56383
 Alpha  occ. eigenvalues --  -11.34486 -11.30128 -11.29179 -11.28727 -11.26997
 Alpha  occ. eigenvalues --  -11.23254 -11.22914 -11.22521 -11.21910  -1.57858
 Alpha  occ. eigenvalues --   -1.37624  -1.29952  -1.23113  -1.14659  -1.09756
 Alpha  occ. eigenvalues --   -1.02484  -1.00964  -0.94507  -0.89863  -0.85141
 Alpha  occ. eigenvalues --   -0.82618  -0.78242  -0.77933  -0.74879  -0.71899
 Alpha  occ. eigenvalues --   -0.71067  -0.68632  -0.67265  -0.65166  -0.63389
 Alpha  occ. eigenvalues --   -0.62023  -0.60340  -0.57422  -0.56719  -0.54889
 Alpha  occ. eigenvalues --   -0.54231  -0.51203  -0.50221  -0.49193  -0.48295
 Alpha  occ. eigenvalues --   -0.47941  -0.46198  -0.45785  -0.43851  -0.41650
 Alpha  occ. eigenvalues --   -0.39836  -0.33221
 Alpha virt. eigenvalues --    0.08281   0.10656   0.17499   0.21103   0.23338
 Alpha virt. eigenvalues --    0.24702   0.26530   0.28236   0.29275   0.29468
 Alpha virt. eigenvalues --    0.29674   0.31789   0.32065   0.32882   0.34191
 Alpha virt. eigenvalues --    0.34546   0.35725   0.37378   0.38775   0.39261
 Alpha virt. eigenvalues --    0.41135   0.42646   0.44650   0.45919   0.46991
 Alpha virt. eigenvalues --    0.48161   0.50125   0.54068   0.57994   0.59107
 Alpha virt. eigenvalues --    0.59975   0.69921   0.70053   0.72697   0.74360
 Alpha virt. eigenvalues --    0.74582   0.75879   0.76311   0.78601   0.79058
 Alpha virt. eigenvalues --    0.80028   0.83876   0.85612   0.86243   0.88768
 Alpha virt. eigenvalues --    0.89562   0.90398   0.91530   0.93115   0.93206
 Alpha virt. eigenvalues --    0.95420   0.97569   1.00111   1.01538   1.02666
 Alpha virt. eigenvalues --    1.04303   1.06218   1.06487   1.07858   1.08265
 Alpha virt. eigenvalues --    1.10053   1.10603   1.11713   1.12061   1.13065
 Alpha virt. eigenvalues --    1.13945   1.14339   1.14874   1.16120   1.16432
 Alpha virt. eigenvalues --    1.17601   1.19039   1.19659   1.21780   1.23452
 Alpha virt. eigenvalues --    1.24410   1.25057   1.26973   1.28380   1.28658
 Alpha virt. eigenvalues --    1.30535   1.31570   1.33931   1.36124   1.37170
 Alpha virt. eigenvalues --    1.39859   1.42704   1.45818   1.48554   1.52036
 Alpha virt. eigenvalues --    1.54658   1.56334   1.61133   1.62392   1.67266
 Alpha virt. eigenvalues --    1.68168   1.70673   1.72585   1.73020   1.75849
 Alpha virt. eigenvalues --    1.79878   1.84070   1.86978   1.90861   1.92573
 Alpha virt. eigenvalues --    1.93643   1.96523   1.99845   2.00813   2.02115
 Alpha virt. eigenvalues --    2.05788   2.06997   2.08135   2.09072   2.12340
 Alpha virt. eigenvalues --    2.13800   2.15824   2.16602   2.19763   2.22992
 Alpha virt. eigenvalues --    2.23241   2.25177   2.26768   2.28317   2.30363
 Alpha virt. eigenvalues --    2.32593   2.33106   2.33812   2.36050   2.37573
 Alpha virt. eigenvalues --    2.39273   2.40268   2.42999   2.45188   2.47037
 Alpha virt. eigenvalues --    2.49748   2.52146   2.54102   2.55632   2.60367
 Alpha virt. eigenvalues --    2.62391   2.64911   2.68792   2.70159   2.70660
 Alpha virt. eigenvalues --    2.71476   2.73684   2.75732   2.77623   2.81811
 Alpha virt. eigenvalues --    2.88777   2.89893   2.93550   2.95832   2.97343
 Alpha virt. eigenvalues --    2.98902   3.01862   3.04228   3.07808   3.09290
 Alpha virt. eigenvalues --    3.10467   3.15051   3.17823   3.20502   3.24094
 Alpha virt. eigenvalues --    3.30453   3.36909   3.38368   3.42257   3.63980
 Alpha virt. eigenvalues --    4.12889   4.17532   4.28250   4.36235   4.46129
 Alpha virt. eigenvalues --    4.56178   4.62062   4.63136   4.74000   4.78316
 Alpha virt. eigenvalues --    4.99986   5.01292   5.05997   5.10646
          Condensed to atoms (all electrons):
               1          2          3          4          5          6
     1  O    8.301487   0.297409  -0.077120  -0.084382   0.005938   0.000139
     2  N    0.297409   5.820546   0.287896   0.230167  -0.052246   0.001399
     3  O   -0.077120   0.287896   8.303742  -0.080304   0.001703  -0.000024
     4  C   -0.084382   0.230167  -0.080304   5.192518   0.591973  -0.052438
     5  C    0.005938  -0.052246   0.001703   0.591973   4.650838   0.336167
     6  N    0.000139   0.001399  -0.000024  -0.052438   0.336167   7.171975
     7  C    0.000011  -0.000156  -0.000003   0.002154  -0.035670   0.185474
     8  H   -0.000000   0.000003   0.000000  -0.000151   0.003002  -0.049717
     9  C    0.000000  -0.000005   0.000000   0.000949   0.001126  -0.062611
    10  C   -0.000000   0.000000   0.000000  -0.000034  -0.000069   0.003726
    11  C    0.000000  -0.000000  -0.000000  -0.000044   0.000024  -0.000201
    12  C   -0.000000   0.000002   0.000000  -0.000072  -0.000105   0.003927
    13  C   -0.000024  -0.000048   0.000004  -0.011736   0.000693  -0.050755
    14  H   -0.000007  -0.000080   0.000002   0.002827   0.007540  -0.007203
    15  N   -0.000036   0.002421   0.000217  -0.066762  -0.009070   0.002934
    16  C    0.001719  -0.030273   0.002196   0.332685  -0.039494  -0.002475
    17  H    0.002947  -0.003216   0.000169  -0.036175   0.390544  -0.034055
    18  H    0.000005  -0.000073   0.000001   0.002513  -0.028964   0.337666
    19  H   -0.000000  -0.000001   0.000001  -0.000997   0.000926  -0.000131
    20  H   -0.000000  -0.000000   0.000000  -0.000104   0.000184  -0.000095
    21  H    0.000000   0.000000  -0.000000   0.000001   0.000001  -0.000074
    22  H   -0.000000   0.000000   0.000000  -0.000000  -0.000003  -0.000115
    23  H    0.000000  -0.000000   0.000000   0.000040   0.000001  -0.000031
    24  H   -0.000000   0.000000   0.000000   0.000000  -0.000000   0.000005
    25  H   -0.000000  -0.000000   0.000000   0.000028  -0.000000  -0.000093
    26  H    0.000000  -0.000000  -0.000000   0.000005  -0.000004  -0.000051
    27  H   -0.000024   0.000446   0.004472  -0.071367   0.002182   0.000004
               7          8          9         10         11         12
     1  O    0.000011  -0.000000   0.000000  -0.000000   0.000000  -0.000000
     2  N   -0.000156   0.000003  -0.000005   0.000000  -0.000000   0.000002
     3  O   -0.000003   0.000000   0.000000   0.000000  -0.000000   0.000000
     4  C    0.002154  -0.000151   0.000949  -0.000034  -0.000044  -0.000072
     5  C   -0.035670   0.003002   0.001126  -0.000069   0.000024  -0.000105
     6  N    0.185474  -0.049717  -0.062611   0.003726  -0.000201   0.003927
     7  C    5.009303   0.417533   0.350662  -0.054966  -0.008688  -0.061804
     8  H    0.417533   0.541372  -0.055067   0.000546  -0.000287  -0.002290
     9  C    0.350662  -0.055067   5.156132   0.324395  -0.050349  -0.004949
    10  C   -0.054966   0.000546   0.324395   5.121419   0.336664  -0.061113
    11  C   -0.008688  -0.000287  -0.050349   0.336664   5.121146   0.335916
    12  C   -0.061804  -0.002290  -0.004949  -0.061113   0.335916   5.121191
    13  C    0.340347  -0.037617  -0.062414   0.000076  -0.051099   0.370354
    14  H   -0.046182  -0.000636   0.004377  -0.000389   0.004146  -0.035917
    15  N   -0.060211   0.003891  -0.013848   0.001744  -0.013450  -0.083048
    16  C   -0.000404  -0.000115  -0.000735  -0.000052   0.000066   0.002697
    17  H    0.002160  -0.000082  -0.000080   0.000001   0.000000   0.000001
    18  H   -0.022647  -0.004832   0.001725  -0.000089   0.000003  -0.000122
    19  H   -0.036843   0.004385   0.391025  -0.032930  -0.002245   0.000713
    20  H   -0.041381  -0.001910   0.399010  -0.035360   0.003922  -0.000411
    21  H    0.004582  -0.000078  -0.036215   0.402318  -0.035058   0.004364
    22  H   -0.004839   0.003602  -0.046714   0.397414  -0.045517  -0.001109
    23  H    0.000596   0.000038  -0.001950  -0.039117   0.399286  -0.038228
    24  H   -0.000138  -0.000101   0.004343  -0.038296   0.402211  -0.038648
    25  H    0.005086  -0.000013  -0.000449   0.004214  -0.033575   0.398129
    26  H   -0.003947   0.001647   0.000966  -0.002272  -0.041295   0.396577
    27  H   -0.000383   0.000008  -0.000049   0.000005   0.000013  -0.000033
              13         14         15         16         17         18
     1  O   -0.000024  -0.000007  -0.000036   0.001719   0.002947   0.000005
     2  N   -0.000048  -0.000080   0.002421  -0.030273  -0.003216  -0.000073
     3  O    0.000004   0.000002   0.000217   0.002196   0.000169   0.000001
     4  C   -0.011736   0.002827  -0.066762   0.332685  -0.036175   0.002513
     5  C    0.000693   0.007540  -0.009070  -0.039494   0.390544  -0.028964
     6  N   -0.050755  -0.007203   0.002934  -0.002475  -0.034055   0.337666
     7  C    0.340347  -0.046182  -0.060211  -0.000404   0.002160  -0.022647
     8  H   -0.037617  -0.000636   0.003891  -0.000115  -0.000082  -0.004832
     9  C   -0.062414   0.004377  -0.013848  -0.000735  -0.000080   0.001725
    10  C    0.000076  -0.000389   0.001744  -0.000052   0.000001  -0.000089
    11  C   -0.051099   0.004146  -0.013450   0.000066   0.000000   0.000003
    12  C    0.370354  -0.035917  -0.083048   0.002697   0.000001  -0.000122
    13  C    5.043294   0.403422   0.252149  -0.071328  -0.000006   0.002837
    14  H    0.403422   0.523479  -0.037144  -0.006762   0.000085  -0.000086
    15  N    0.252149  -0.037144   6.945496   0.594913  -0.000068  -0.000125
    16  C   -0.071328  -0.006762   0.594913   4.693124   0.001735  -0.000114
    17  H   -0.000006   0.000085  -0.000068   0.001735   0.422309  -0.003525
    18  H    0.002837  -0.000086  -0.000125  -0.000114  -0.003525   0.317744
    19  H   -0.007607   0.000107   0.007367   0.002283   0.000011  -0.000142
    20  H    0.004385  -0.000068   0.000134  -0.000041   0.000003   0.000513
    21  H   -0.000439   0.000010  -0.000044   0.000004  -0.000000   0.000002
    22  H    0.000049  -0.000053   0.000024  -0.000002   0.000000  -0.000000
    23  H   -0.007627   0.000002   0.008525   0.000120   0.000000   0.000000
    24  H    0.004703  -0.000057   0.000126   0.000007   0.000000  -0.000000
    25  H   -0.035691  -0.002783   0.000475  -0.000015  -0.000000   0.000002
    26  H   -0.047048  -0.001027   0.004902  -0.000067   0.000000   0.000000
    27  H    0.005156  -0.000192  -0.037022   0.403479  -0.000086   0.000001
              19         20         21         22         23         24
     1  O   -0.000000  -0.000000   0.000000  -0.000000   0.000000  -0.000000
     2  N   -0.000001  -0.000000   0.000000   0.000000  -0.000000   0.000000
     3  O    0.000001   0.000000  -0.000000   0.000000   0.000000   0.000000
     4  C   -0.000997  -0.000104   0.000001  -0.000000   0.000040   0.000000
     5  C    0.000926   0.000184   0.000001  -0.000003   0.000001  -0.000000
     6  N   -0.000131  -0.000095  -0.000074  -0.000115  -0.000031   0.000005
     7  C   -0.036843  -0.041381   0.004582  -0.004839   0.000596  -0.000138
     8  H    0.004385  -0.001910  -0.000078   0.003602   0.000038  -0.000101
     9  C    0.391025   0.399010  -0.036215  -0.046714  -0.001950   0.004343
    10  C   -0.032930  -0.035360   0.402318   0.397414  -0.039117  -0.038296
    11  C   -0.002245   0.003922  -0.035058  -0.045517   0.399286   0.402211
    12  C    0.000713  -0.000411   0.004364  -0.001109  -0.038228  -0.038648
    13  C   -0.007607   0.004385  -0.000439   0.000049  -0.007627   0.004703
    14  H    0.000107  -0.000068   0.000010  -0.000053   0.000002  -0.000057
    15  N    0.007367   0.000134  -0.000044   0.000024   0.008525   0.000126
    16  C    0.002283  -0.000041   0.000004  -0.000002   0.000120   0.000007
    17  H    0.000011   0.000003  -0.000000   0.000000   0.000000   0.000000
    18  H   -0.000142   0.000513   0.000002  -0.000000   0.000000  -0.000000
    19  H    0.506967  -0.024339  -0.002780   0.003989   0.001542  -0.000068
    20  H   -0.024339   0.538484  -0.002700  -0.002967  -0.000047  -0.000082
    21  H   -0.002780  -0.002700   0.525573  -0.027567  -0.002923  -0.002254
    22  H    0.003989  -0.002967  -0.027567   0.572495   0.004160  -0.003641
    23  H    0.001542  -0.000047  -0.002923   0.004160   0.501070  -0.025604
    24  H   -0.000068  -0.000082  -0.002254  -0.003641  -0.025604   0.539102
    25  H   -0.000027   0.000013  -0.000088  -0.000080  -0.002291  -0.002314
    26  H    0.000021  -0.000031  -0.000080   0.002388   0.004079  -0.003004
    27  H    0.000081   0.000000  -0.000000   0.000000  -0.000033  -0.000000
              25         26         27
     1  O   -0.000000   0.000000  -0.000024
     2  N   -0.000000  -0.000000   0.000446
     3  O    0.000000  -0.000000   0.004472
     4  C    0.000028   0.000005  -0.071367
     5  C   -0.000000  -0.000004   0.002182
     6  N   -0.000093  -0.000051   0.000004
     7  C    0.005086  -0.003947  -0.000383
     8  H   -0.000013   0.001647   0.000008
     9  C   -0.000449   0.000966  -0.000049
    10  C    0.004214  -0.002272   0.000005
    11  C   -0.033575  -0.041295   0.000013
    12  C    0.398129   0.396577  -0.000033
    13  C   -0.035691  -0.047048   0.005156
    14  H   -0.002783  -0.001027  -0.000192
    15  N    0.000475   0.004902  -0.037022
    16  C   -0.000015  -0.000067   0.403479
    17  H   -0.000000   0.000000  -0.000086
    18  H    0.000002   0.000000   0.000001
    19  H   -0.000027   0.000021   0.000081
    20  H    0.000013  -0.000031   0.000000
    21  H   -0.000088  -0.000080  -0.000000
    22  H   -0.000080   0.002388   0.000000
    23  H   -0.002291   0.004079  -0.000033
    24  H   -0.002314  -0.003004  -0.000000
    25  H    0.508252  -0.024200  -0.000013
    26  H   -0.024200   0.562031   0.000001
    27  H   -0.000013   0.000001   0.456204
 Mulliken charges:
               1
     1  O   -0.448063
     2  N    0.445809
     3  O   -0.442951
     4  C    0.048708
     5  C    0.172783
     6  N   -0.783346
     7  C    0.060356
     8  H    0.176870
     9  C   -0.299277
    10  C   -0.327835
    11  C   -0.321591
    12  C   -0.306023
    13  C   -0.044031
    14  H    0.192589
    15  N   -0.504491
    16  C    0.116852
    17  H    0.257330
    18  H    0.397706
    19  H    0.188692
    20  H    0.162888
    21  H    0.173446
    22  H    0.148485
    23  H    0.198391
    24  H    0.163710
    25  H    0.185435
    26  H    0.150409
    27  H    0.237149
 Sum of Mulliken charges =  -0.00000
 Mulliken charges with hydrogens summed into heavy atoms:
               1
     1  O   -0.448063
     2  N    0.445809
     3  O   -0.442951
     4  C    0.048708
     5  C    0.430113
     6  N   -0.385640
     7  C    0.237226
     9  C    0.052303
    10  C   -0.005904
    11  C    0.040509
    12  C    0.029821
    13  C    0.148558
    15  N   -0.504491
    16  C    0.354001
 Electronic spatial extent (au):  <R**2>=           2988.0370
 Charge=             -0.0000 electrons
 Dipole moment (field-independent basis, Debye):
    X=              4.5417    Y=              4.3817    Z=              1.7082  Tot=              6.5379
 Quadrupole moment (field-independent basis, Debye-Ang):
   XX=           -102.2272   YY=            -76.0793   ZZ=            -85.9193
   XY=             -2.8378   XZ=             -0.0978   YZ=              3.3397
 Traceless Quadrupole moment (field-independent basis, Debye-Ang):
   XX=            -14.1519   YY=             11.9959   ZZ=              2.1560
   XY=             -2.8378   XZ=             -0.0978   YZ=              3.3397
 Octapole moment (field-independent basis, Debye-Ang**2):
  XXX=             70.9155  YYY=             27.1145  ZZZ=              4.7628  XYY=            -20.7853
  XXY=             17.2612  XXZ=              5.1779  XZZ=              6.3442  YZZ=              2.3906
  YYZ=             10.9760  XYZ=             -2.5664
 Hexadecapole moment (field-independent basis, Debye-Ang**3):
 XXXX=          -3271.0882 YYYY=           -543.5090 ZZZZ=           -383.8308 XXXY=            -74.0050
 XXXZ=             -6.0119 YYYX=             -6.0324 YYYZ=             27.1670 ZZZX=             -4.5161
 ZZZY=              3.1726 XXYY=           -556.0031 XXZZ=           -590.3084 YYZZ=           -155.1770
 XXYZ=              2.1111 YYXZ=              4.5485 ZZXY=             -3.8434
 N-N= 9.303502475758D+02 E-N=-3.407352105460D+03  KE= 6.595980462987D+02
 Unable to Open any file for archive entry.
 1\1\GINC-LOTUS\FOpt\RMP2-FC\6-31G(d)\C9H13N3O2\ALEXEY\30-Jun-2023\0\\#
 MP2/6-31G* SCF=Tight Opt=(ModRedun, MaxCycle=20 ) NoSymm\\MolName:\\0,
 1\O,-3.7320932056,-0.2964169931,0.930142165\N,-3.1083215992,-0.2256876
 86,-0.1468335054\O,-3.6026128152,-0.4381304445,-1.2714433546\C,-1.6700
 65853,0.0107018298,-0.0938103957\C,-1.3006441826,1.245197997,0.3553878
 43\N,-0.0523537633,1.7551195388,0.4523684946\C,1.2060264708,1.02017673
 3,0.3977866917\H,1.8535614185,1.4998558222,1.1471522629\C,1.922900325,
 1.0968116027,-0.948759539\C,3.3142095974,0.4685218372,-0.8074290321\C,
 3.2487294575,-0.9590984352,-0.2582692772\C,2.443322865,-1.0326798421,1
 .0405312748\C,1.0391853179,-0.4583158387,0.8172530642\H,0.4478015364,-
 0.4834990023,1.7461835295\N,0.3999040652,-1.3037388044,-0.1849425203\C
 ,-0.8451027771,-1.1061740652,-0.4813562221\H,-2.0929978774,1.944714064
 3,0.6156858417\H,-0.0013532924,2.6866228792,0.8453962491\H,1.329557161
 6,0.5647918238,-1.7004408598\H,1.9998286089,2.1428591628,-1.2694712802
 \H,3.8263822178,0.478388281,-1.7764206832\H,3.9150363496,1.092956769,-
 0.1308942005\H,2.7701378282,-1.6128229237,-0.9943473732\H,4.2630512278
 ,-1.3419151167,-0.0940030755\H,2.3495659512,-2.0722740391,1.3712230002
 \H,2.9493220359,-0.4770633706,1.8420026846\H,-1.3159770686,-1.83792177
 94,-1.1436617826\\Version=ES64L-G16RevC.02\HF=-661.2822466\MP2=-663.32
 32578\RMSD=3.900e-09\RMSF=1.913e-03\Dipole=1.656827,1.5548233,0.613539
 5\PG=C01 [X(C9H13N3O2)]\\@
 The archive entry for this job was punched.


 ERWIN WITH HIS PSI CAN DO
 CALCULATIONS QUITE A FEW.
 BUT ONE THING HAS NOT BEEN SEEN
 JUST WHAT DOES PSI REALLY MEAN.
 -- WALTER HUCKEL, TRANS. BY FELIX BLOCH
 Job cpu time:       0 days  1 hours 18 minutes  7.5 seconds.
 Elapsed time:       0 days  0 hours 23 minutes 39.6 seconds.
 File lengths (MBytes):  RWF=     36 Int=      0 D2E=      0 Chk=      7 Scr=      1
 Normal termination of Gaussian 16 at Fri Jun 30 05:10:58 2023.
