 Entering Gaussian System, Link 0=g16
 Initial command:
 /home/alexey/programs//g16/l1.exe "/home/alexey/tmp/Gau-1156587.inp" -scrdir="/home/alexey/tmp/"
 Entering Link 1 = /home/alexey/programs//g16/l1.exe PID=   1156589.
  
 Copyright (c) 1988-2021, Gaussian, Inc.  All Rights Reserved.
  
 This is part of the Gaussian(R) 16 program.  It is based on
 the Gaussian(R) 09 system (copyright 2009, Gaussian, Inc.),
 the Gaussian(R) 03 system (copyright 2003, Gaussian, Inc.),
 the Gaussian(R) 98 system (copyright 1998, Gaussian, Inc.),
 the Gaussian(R) 94 system (copyright 1995, Gaussian, Inc.),
 the Gaussian 92(TM) system (copyright 1992, Gaussian, Inc.),
 the Gaussian 90(TM) system (copyright 1990, Gaussian, Inc.),
 the Gaussian 88(TM) system (copyright 1988, Gaussian, Inc.),
 the Gaussian 86(TM) system (copyright 1986, Carnegie Mellon
 University), and the Gaussian 82(TM) system (copyright 1983,
 Carnegie Mellon University). Gaussian is a federally registered
 trademark of Gaussian, Inc.
  
 This software contains proprietary and confidential information,
 including trade secrets, belonging to Gaussian, Inc.
  
 This software is provided under written license and may be
 used, copied, transmitted, or stored only in accord with that
 written license.
  
 The following legend is applicable only to US Government
 contracts under FAR:
  
                    RESTRICTED RIGHTS LEGEND
  
 Use, reproduction and disclosure by the US Government is
 subject to restrictions as set forth in subparagraphs (a)
 and (c) of the Commercial Computer Software - Restricted
 Rights clause in FAR 52.227-19.
  
 Gaussian, Inc.
 340 Quinnipiac St., Bldg. 40, Wallingford CT 06492
  
  
 ---------------------------------------------------------------
 Warning -- This program may not be used in any manner that
 competes with the business of Gaussian, Inc. or will provide
 assistance to any competitor of Gaussian, Inc.  The licensee
 of this program is prohibited from giving any competitor of
 Gaussian, Inc. access to this program.  By using this program,
 the user acknowledges that Gaussian, Inc. is engaged in the
 business of creating and licensing software in the field of
 computational chemistry and represents and warrants to the
 licensee that it is not a competitor of Gaussian, Inc. and that
 it will not use this program in any manner prohibited above.
 ---------------------------------------------------------------
  

 Cite this work as:
 Gaussian 16, Revision C.02,
 M. J. Frisch, G. W. Trucks, H. B. Schlegel, G. E. Scuseria, 
 M. A. Robb, J. R. Cheeseman, G. Scalmani, V. Barone, 
 G. A. Petersson, H. Nakatsuji, X. Li, M. Caricato, A. V. Marenich, 
 J. Bloino, B. G. Janesko, R. Gomperts, B. Mennucci, H. P. Hratchian, 
 J. V. Ortiz, A. F. Izmaylov, J. L. Sonnenberg, D. Williams-Young, 
 F. Ding, F. Lipparini, F. Egidi, J. Goings, B. Peng, A. Petrone, 
 T. Henderson, D. Ranasinghe, V. G. Zakrzewski, J. Gao, N. Rega, 
 G. Zheng, W. Liang, M. Hada, M. Ehara, K. Toyota, R. Fukuda, 
 J. Hasegawa, M. Ishida, T. Nakajima, Y. Honda, O. Kitao, H. Nakai, 
 T. Vreven, K. Throssell, J. A. Montgomery, Jr., J. E. Peralta, 
 F. Ogliaro, M. J. Bearpark, J. J. Heyd, E. N. Brothers, K. N. Kudin, 
 V. N. Staroverov, T. A. Keith, R. Kobayashi, J. Normand, 
 K. Raghavachari, A. P. Rendell, J. C. Burant, S. S. Iyengar, 
 J. Tomasi, M. Cossi, J. M. Millam, M. Klene, C. Adamo, R. Cammi, 
 J. W. Ochterski, R. L. Martin, K. Morokuma, O. Farkas, 
 J. B. Foresman, and D. J. Fox, Gaussian, Inc., Wallingford CT, 2019.
 
 ******************************************
 Gaussian 16:  ES64L-G16RevC.02  7-Dec-2021
                30-Jun-2023 
 ******************************************
 %mem=8GB
 %NPROCS=4
 Will use up to    4 processors via shared memory.
 %NoSave
 ---------------------------------------------------------
 #MP2/6-31G* SCF=Tight Opt=(ModRedun, MaxCycle=20 ) NoSymm
 ---------------------------------------------------------
 1/6=20,18=120,19=15,38=1/1,3;
 2/9=110,12=2,15=1,17=6,18=5,40=1/2;
 3/5=1,6=6,7=1,11=9,25=1,30=1,71=1/1,2,3;
 4//1;
 5/5=2,32=2,38=5/2;
 8/6=4,10=2/1;
 9/15=2,16=-3/6;
 10/5=1,31=1/2;
 6/7=2,8=2,9=2,10=2/1;
 7/12=2,30=1/1,2,3,16;
 1/6=20,18=20,19=15/3(2);
 2/9=110,15=1/2;
 99//99;
 2/9=110,15=1/2;
 3/5=1,6=6,7=1,11=9,25=1,30=1,71=1/1,2,3;
 4/5=5,16=3,69=1/1;
 5/5=2,32=2,38=5/2;
 8/6=4,10=2/1;
 9/15=2,16=-3/6;
 10/5=1,31=1/2;
 7/12=2,30=1/1,2,3,16;
 1/6=20,18=20,19=15/3(-8);
 2/9=110,15=1/2;
 6/7=2,8=2,9=2,10=2/1;
 99/9=10/99;
 --------
 MolName:
 --------
 Symbolic Z-matrix:
 Charge =  0 Multiplicity = 1
 8                    0    -3.95769   0.57918  -0.59483 
 7                    0    -3.23057  -0.25978  -0.06316 
 8                    0    -3.61787  -1.32184   0.41928 
 6                    0    -1.74534   0.00249  -0.04523 
 6                    0    -1.37067   1.33392   0.14587 
 7                    0    -0.08586   1.7945    0.26633 
 6                    0     1.19358   1.02169   0.29762 
 1                    0     1.86191   1.58397   1.00022 
 6                    0     1.94866   0.95399  -1.05337 
 6                    0     3.36284   0.38784  -0.82255 
 6                    0     3.30726  -0.96993  -0.1046 
 6                    0     2.46796  -0.88983   1.18872 
 6                    0     1.02834  -0.38107   0.90351 
 1                    0     0.48462  -0.33376   1.87612 
 7                    0     0.36785  -1.33911   0.01224 
 6                    0    -0.87613  -1.17177  -0.29514 
 1                    0    -2.16908   2.08709   0.25522 
 1                    0     0.15047   2.76244   0.035 
 1                    0     1.39454   0.31031  -1.76929 
 1                    0     2.03078   1.96867  -1.49758 
 1                    0     3.89083   0.27805  -1.79504 
 1                    0     3.94369   1.10094  -0.19586 
 1                    0     2.8563   -1.72369  -0.78886 
 1                    0     4.33732  -1.3119    0.13679 
 1                    0     2.41435  -1.89879   1.65332 
 1                    0     2.96551  -0.21022   1.9119 
 1                    0    -1.39259  -1.99039  -0.81963 
 
 The following ModRedundant input section has been read:
 D       1       2       4      16 F                                           
 D       7      13      15      16 F                                           
 D       7       9      10      11 F                                           
 D       9      10      11      12 F                                           
 D       6       7      13      15 F                                           
 

 GradGradGradGradGradGradGradGradGradGradGradGradGradGradGradGradGradGrad
 Berny optimization.
 Initialization pass.
                           ----------------------------
                           !    Initial Parameters    !
                           ! (Angstroms and Degrees)  !
 --------------------------                            --------------------------
 ! Name  Definition              Value          Derivative Info.                !
 --------------------------------------------------------------------------------
 ! R1    R(1,2)                  1.2309         estimate D2E/DX2                !
 ! R2    R(2,3)                  1.2291         estimate D2E/DX2                !
 ! R3    R(2,4)                  1.5083         estimate D2E/DX2                !
 ! R4    R(4,5)                  1.3963         estimate D2E/DX2                !
 ! R5    R(4,16)                 1.4822         estimate D2E/DX2                !
 ! R6    R(5,6)                  1.3702         estimate D2E/DX2                !
 ! R7    R(5,17)                 1.103          estimate D2E/DX2                !
 ! R8    R(6,7)                  1.4951         estimate D2E/DX2                !
 ! R9    R(6,18)                 1.0229         estimate D2E/DX2                !
 ! R10   R(7,8)                  1.1209         estimate D2E/DX2                !
 ! R11   R(7,9)                  1.5492         estimate D2E/DX2                !
 ! R12   R(7,13)                 1.5369         estimate D2E/DX2                !
 ! R13   R(9,10)                 1.5407         estimate D2E/DX2                !
 ! R14   R(9,19)                 1.1108         estimate D2E/DX2                !
 ! R15   R(9,20)                 1.1107         estimate D2E/DX2                !
 ! R16   R(10,11)                1.5369         estimate D2E/DX2                !
 ! R17   R(10,21)                1.112          estimate D2E/DX2                !
 ! R18   R(10,22)                1.1129         estimate D2E/DX2                !
 ! R19   R(11,12)                1.5439         estimate D2E/DX2                !
 ! R20   R(11,23)                1.1134         estimate D2E/DX2                !
 ! R21   R(11,24)                1.1119         estimate D2E/DX2                !
 ! R22   R(12,13)                1.5533         estimate D2E/DX2                !
 ! R23   R(12,25)                1.1121         estimate D2E/DX2                !
 ! R24   R(12,26)                1.1101         estimate D2E/DX2                !
 ! R25   R(13,14)                1.1153         estimate D2E/DX2                !
 ! R26   R(13,15)                1.4658         estimate D2E/DX2                !
 ! R27   R(15,16)                1.2923         estimate D2E/DX2                !
 ! R28   R(16,27)                1.1009         estimate D2E/DX2                !
 ! A1    A(1,2,3)              124.9124         estimate D2E/DX2                !
 ! A2    A(1,2,4)              117.9229         estimate D2E/DX2                !
 ! A3    A(3,2,4)              117.1207         estimate D2E/DX2                !
 ! A4    A(2,4,5)              115.573          estimate D2E/DX2                !
 ! A5    A(2,4,16)             115.9572         estimate D2E/DX2                !
 ! A6    A(5,4,16)             128.4015         estimate D2E/DX2                !
 ! A7    A(4,5,6)              125.7453         estimate D2E/DX2                !
 ! A8    A(4,5,17)             118.063          estimate D2E/DX2                !
 ! A9    A(6,5,17)             116.1353         estimate D2E/DX2                !
 ! A10   A(5,6,7)              129.0905         estimate D2E/DX2                !
 ! A11   A(5,6,18)             120.9882         estimate D2E/DX2                !
 ! A12   A(7,6,18)             107.2271         estimate D2E/DX2                !
 ! A13   A(6,7,8)              105.3116         estimate D2E/DX2                !
 ! A14   A(6,7,9)              114.9266         estimate D2E/DX2                !
 ! A15   A(6,7,13)             112.832          estimate D2E/DX2                !
 ! A16   A(8,7,9)              106.1369         estimate D2E/DX2                !
 ! A17   A(8,7,13)             105.9522         estimate D2E/DX2                !
 ! A18   A(9,7,13)             110.8737         estimate D2E/DX2                !
 ! A19   A(7,9,10)             109.4387         estimate D2E/DX2                !
 ! A20   A(7,9,19)             110.1351         estimate D2E/DX2                !
 ! A21   A(7,9,20)             110.1752         estimate D2E/DX2                !
 ! A22   A(10,9,19)            109.9685         estimate D2E/DX2                !
 ! A23   A(10,9,20)            109.1325         estimate D2E/DX2                !
 ! A24   A(19,9,20)            107.9686         estimate D2E/DX2                !
 ! A25   A(9,10,11)            111.1879         estimate D2E/DX2                !
 ! A26   A(9,10,21)            109.9428         estimate D2E/DX2                !
 ! A27   A(9,10,22)            109.1453         estimate D2E/DX2                !
 ! A28   A(11,10,21)           109.7841         estimate D2E/DX2                !
 ! A29   A(11,10,22)           108.7769         estimate D2E/DX2                !
 ! A30   A(21,10,22)           107.9328         estimate D2E/DX2                !
 ! A31   A(10,11,12)           111.4171         estimate D2E/DX2                !
 ! A32   A(10,11,23)           109.0038         estimate D2E/DX2                !
 ! A33   A(10,11,24)           109.8544         estimate D2E/DX2                !
 ! A34   A(12,11,23)           109.2542         estimate D2E/DX2                !
 ! A35   A(12,11,24)           109.7383         estimate D2E/DX2                !
 ! A36   A(23,11,24)           107.4834         estimate D2E/DX2                !
 ! A37   A(11,12,13)           111.5325         estimate D2E/DX2                !
 ! A38   A(11,12,25)           109.2149         estimate D2E/DX2                !
 ! A39   A(11,12,26)           109.5011         estimate D2E/DX2                !
 ! A40   A(13,12,25)           109.2201         estimate D2E/DX2                !
 ! A41   A(13,12,26)           109.5415         estimate D2E/DX2                !
 ! A42   A(25,12,26)           107.7504         estimate D2E/DX2                !
 ! A43   A(7,13,12)            105.7646         estimate D2E/DX2                !
 ! A44   A(7,13,14)            110.9462         estimate D2E/DX2                !
 ! A45   A(7,13,15)            113.9094         estimate D2E/DX2                !
 ! A46   A(12,13,14)           107.7949         estimate D2E/DX2                !
 ! A47   A(12,13,15)           108.3732         estimate D2E/DX2                !
 ! A48   A(14,13,15)           109.7746         estimate D2E/DX2                !
 ! A49   A(13,15,16)           119.5885         estimate D2E/DX2                !
 ! A50   A(4,16,15)            128.8297         estimate D2E/DX2                !
 ! A51   A(4,16,27)            113.2242         estimate D2E/DX2                !
 ! A52   A(15,16,27)           117.9453         estimate D2E/DX2                !
 ! D1    D(1,2,4,5)             37.251          estimate D2E/DX2                !
 ! D2    D(1,2,4,16)          -140.0            Frozen                          !
 ! D3    D(3,2,4,5)           -145.043          estimate D2E/DX2                !
 ! D4    D(3,2,4,16)            37.706          estimate D2E/DX2                !
 ! D5    D(2,4,5,6)            176.4052         estimate D2E/DX2                !
 ! D6    D(2,4,5,17)            -0.7491         estimate D2E/DX2                !
 ! D7    D(16,4,5,6)            -6.7492         estimate D2E/DX2                !
 ! D8    D(16,4,5,17)          176.0966         estimate D2E/DX2                !
 ! D9    D(2,4,16,15)         -158.9681         estimate D2E/DX2                !
 ! D10   D(2,4,16,27)           21.3598         estimate D2E/DX2                !
 ! D11   D(5,4,16,15)           24.1965         estimate D2E/DX2                !
 ! D12   D(5,4,16,27)         -155.4756         estimate D2E/DX2                !
 ! D13   D(4,5,6,7)             -3.5129         estimate D2E/DX2                !
 ! D14   D(4,5,6,18)           155.3967         estimate D2E/DX2                !
 ! D15   D(17,5,6,7)           173.6899         estimate D2E/DX2                !
 ! D16   D(17,5,6,18)          -27.4004         estimate D2E/DX2                !
 ! D17   D(5,6,7,8)           -145.4136         estimate D2E/DX2                !
 ! D18   D(5,6,7,9)             98.1628         estimate D2E/DX2                !
 ! D19   D(5,6,7,13)           -30.2981         estimate D2E/DX2                !
 ! D20   D(18,6,7,8)            53.429          estimate D2E/DX2                !
 ! D21   D(18,6,7,9)           -62.9946         estimate D2E/DX2                !
 ! D22   D(18,6,7,13)          168.5446         estimate D2E/DX2                !
 ! D23   D(6,7,9,10)           168.618          estimate D2E/DX2                !
 ! D24   D(6,7,9,19)           -70.3769         estimate D2E/DX2                !
 ! D25   D(6,7,9,20)            48.6208         estimate D2E/DX2                !
 ! D26   D(8,7,9,10)            52.6669         estimate D2E/DX2                !
 ! D27   D(8,7,9,19)           173.672          estimate D2E/DX2                !
 ! D28   D(8,7,9,20)           -67.3304         estimate D2E/DX2                !
 ! D29   D(13,7,9,10)          -61.9493         estimate D2E/DX2                !
 ! D30   D(13,7,9,19)           59.0558         estimate D2E/DX2                !
 ! D31   D(13,7,9,20)          178.0534         estimate D2E/DX2                !
 ! D32   D(6,7,13,12)         -166.0687         estimate D2E/DX2                !
 ! D33   D(6,7,13,14)          -49.4476         estimate D2E/DX2                !
 ! D34   D(6,7,13,15)           75.0219         Frozen                          !
 ! D35   D(8,7,13,12)          -51.3389         estimate D2E/DX2                !
 ! D36   D(8,7,13,14)           65.2822         estimate D2E/DX2                !
 ! D37   D(8,7,13,15)         -170.2483         estimate D2E/DX2                !
 ! D38   D(9,7,13,12)           63.3929         estimate D2E/DX2                !
 ! D39   D(9,7,13,14)         -179.986          estimate D2E/DX2                !
 ! D40   D(9,7,13,15)          -55.5164         estimate D2E/DX2                !
 ! D41   D(7,9,10,11)           54.8116         Frozen                          !
 ! D42   D(7,9,10,21)          176.6026         estimate D2E/DX2                !
 ! D43   D(7,9,10,22)          -65.1887         estimate D2E/DX2                !
 ! D44   D(19,9,10,11)         -66.2945         estimate D2E/DX2                !
 ! D45   D(19,9,10,21)          55.4965         estimate D2E/DX2                !
 ! D46   D(19,9,10,22)         173.7052         estimate D2E/DX2                !
 ! D47   D(20,9,10,11)         175.4458         estimate D2E/DX2                !
 ! D48   D(20,9,10,21)         -62.7632         estimate D2E/DX2                !
 ! D49   D(20,9,10,22)          55.4455         estimate D2E/DX2                !
 ! D50   D(9,10,11,12)         -52.8219         Frozen                          !
 ! D51   D(9,10,11,23)          67.8237         estimate D2E/DX2                !
 ! D52   D(9,10,11,24)        -174.6478         estimate D2E/DX2                !
 ! D53   D(21,10,11,12)       -174.7053         estimate D2E/DX2                !
 ! D54   D(21,10,11,23)        -54.0596         estimate D2E/DX2                !
 ! D55   D(21,10,11,24)         63.4689         estimate D2E/DX2                !
 ! D56   D(22,10,11,12)         67.3966         estimate D2E/DX2                !
 ! D57   D(22,10,11,23)       -171.9578         estimate D2E/DX2                !
 ! D58   D(22,10,11,24)        -54.4292         estimate D2E/DX2                !
 ! D59   D(10,11,12,13)         56.684          estimate D2E/DX2                !
 ! D60   D(10,11,12,25)        177.5006         estimate D2E/DX2                !
 ! D61   D(10,11,12,26)        -64.7288         estimate D2E/DX2                !
 ! D62   D(23,11,12,13)        -63.8146         estimate D2E/DX2                !
 ! D63   D(23,11,12,25)         57.002          estimate D2E/DX2                !
 ! D64   D(23,11,12,26)        174.7726         estimate D2E/DX2                !
 ! D65   D(24,11,12,13)        178.5771         estimate D2E/DX2                !
 ! D66   D(24,11,12,25)        -60.6063         estimate D2E/DX2                !
 ! D67   D(24,11,12,26)         57.1643         estimate D2E/DX2                !
 ! D68   D(11,12,13,7)         -60.4831         estimate D2E/DX2                !
 ! D69   D(11,12,13,14)       -179.2168         estimate D2E/DX2                !
 ! D70   D(11,12,13,15)         62.0317         estimate D2E/DX2                !
 ! D71   D(25,12,13,7)         178.7033         estimate D2E/DX2                !
 ! D72   D(25,12,13,14)         59.9696         estimate D2E/DX2                !
 ! D73   D(25,12,13,15)        -58.7819         estimate D2E/DX2                !
 ! D74   D(26,12,13,7)          60.9062         estimate D2E/DX2                !
 ! D75   D(26,12,13,14)        -57.8275         estimate D2E/DX2                !
 ! D76   D(26,12,13,15)       -176.5789         estimate D2E/DX2                !
 ! D77   D(7,13,15,16)         -67.1594         Frozen                          !
 ! D78   D(12,13,15,16)        175.4276         estimate D2E/DX2                !
 ! D79   D(14,13,15,16)         57.9362         estimate D2E/DX2                !
 ! D80   D(13,15,16,4)          10.6801         estimate D2E/DX2                !
 ! D81   D(13,15,16,27)       -169.6611         estimate D2E/DX2                !
 --------------------------------------------------------------------------------
 Trust Radius=3.00D-01 FncErr=1.00D-07 GrdErr=1.00D-07 EigMax=2.50D+02 EigMin=1.00D-04
 Number of steps in this run=     20 maximum allowed number of steps=    162.
 GradGradGradGradGradGradGradGradGradGradGradGradGradGradGradGradGradGrad

                          Input orientation:                          
 ---------------------------------------------------------------------
 Center     Atomic      Atomic             Coordinates (Angstroms)
 Number     Number       Type             X           Y           Z
 ---------------------------------------------------------------------
      1          8           0       -3.957690    0.579180   -0.594830
      2          7           0       -3.230570   -0.259780   -0.063160
      3          8           0       -3.617870   -1.321840    0.419280
      4          6           0       -1.745340    0.002490   -0.045230
      5          6           0       -1.370670    1.333920    0.145870
      6          7           0       -0.085860    1.794500    0.266330
      7          6           0        1.193580    1.021690    0.297620
      8          1           0        1.861910    1.583970    1.000220
      9          6           0        1.948660    0.953990   -1.053370
     10          6           0        3.362840    0.387840   -0.822550
     11          6           0        3.307260   -0.969930   -0.104600
     12          6           0        2.467960   -0.889830    1.188720
     13          6           0        1.028340   -0.381070    0.903510
     14          1           0        0.484620   -0.333760    1.876120
     15          7           0        0.367850   -1.339110    0.012240
     16          6           0       -0.876130   -1.171770   -0.295140
     17          1           0       -2.169080    2.087090    0.255220
     18          1           0        0.150470    2.762440    0.035000
     19          1           0        1.394540    0.310310   -1.769290
     20          1           0        2.030780    1.968670   -1.497580
     21          1           0        3.890830    0.278050   -1.795040
     22          1           0        3.943690    1.100940   -0.195860
     23          1           0        2.856300   -1.723690   -0.788860
     24          1           0        4.337320   -1.311900    0.136790
     25          1           0        2.414350   -1.898790    1.653320
     26          1           0        2.965510   -0.210220    1.911900
     27          1           0       -1.392590   -1.990390   -0.819630
 ---------------------------------------------------------------------
                    Distance matrix (angstroms):
                    1          2          3          4          5
     1  O    0.000000
     2  N    1.230947   0.000000
     3  O    2.181232   1.229114   0.000000
     4  C    2.351409   1.508315   2.340083   0.000000
     5  C    2.794806   2.458211   3.489659   1.396282   0.000000
     6  N    4.148454   3.770654   4.712755   2.462162   1.370176
     7  C    5.246700   4.620112   5.353222   3.129467   2.587642
     8  H    6.117314   5.519379   6.229704   4.075082   3.352911
     9  C    5.935968   5.410931   6.191474   3.945546   3.549715
    10  C    7.326570   6.668519   7.293522   5.181334   4.923314
    11  C    7.444432   6.576416   6.953827   5.145667   5.220487
    12  C    6.828471   5.868340   6.149471   4.480041   4.557157
    13  C    5.294110   4.368922   4.765165   2.956438   3.044743
    14  H    5.164608   4.191529   4.464203   2.962663   3.035955
    15  N    4.770604   3.757561   4.006488   2.503750   3.191457
    16  C    3.556916   2.535533   2.837262   1.482183   2.591822
    17  H    2.489077   2.595366   3.707656   2.148344   1.103033
    18  H    4.694709   4.535954   5.570404   3.349307   2.089696
    19  H    5.486166   4.962613   5.707715   3.595272   3.515964
    20  H    6.213486   5.891125   6.812419   4.498252   3.830626
    21  H    7.945467   7.348674   7.990209   5.907976   5.706608
    22  H    7.928633   7.303367   7.964010   5.796063   5.330430
    23  H    7.195229   6.302353   6.598179   4.970691   5.299998
    24  H    8.539241   7.643291   7.960210   6.225713   6.291391
    25  H    7.197042   6.123543   6.184125   4.878828   5.200884
    26  H    7.405238   6.503440   6.841382   5.105655   4.930080
    27  H    3.637714   2.635418   2.633197   2.166956   3.461749
                    6          7          8          9         10
     6  N    0.000000
     7  C    1.495052   0.000000
     8  H    2.092062   1.120924   0.000000
     9  C    2.566581   1.549162   2.149798   0.000000
    10  C    3.880449   2.522347   2.646887   1.540685   0.000000
    11  C    4.392371   2.931889   3.135613   2.539178   1.536906
    12  C    3.818171   2.464145   2.553922   2.948951   2.545281
    13  C    2.525974   1.536926   2.136720   2.541408   3.003397
    14  H    2.728802   2.198074   2.518296   3.519037   4.010945
    15  N    3.176464   2.517270   3.428224   2.982079   3.556571
    16  C    3.120662   3.073488   4.094988   3.615689   4.547462
    17  H    2.103696   3.527656   4.130016   4.466778   5.886525
    18  H    1.022875   2.046279   2.291172   2.772819   4.085760
    19  H    2.922012   2.195123   3.083963   1.110817   2.185528
    20  H    2.760775   2.195545   2.532887   1.110694   2.174643
    21  H    4.728946   3.493907   3.692617   2.186091   1.112009
    22  H    4.114841   2.795158   2.449027   2.176479   1.112941
    23  H    4.706102   3.388538   3.889760   2.839674   2.171699
    24  H    5.406572   3.918496   3.906306   3.500919   2.181527
    25  H    4.670673   3.443458   3.586272   3.959974   3.501177
    26  H    4.004705   2.695040   2.295258   3.343979   2.827148
    27  H    4.148764   4.124215   5.165237   4.459592   5.316964
                   11         12         13         14         15
    11  C    0.000000
    12  C    1.543864   0.000000
    13  C    2.560570   1.553283   0.000000
    14  H    3.506460   2.171490   1.115276   0.000000
    15  N    2.964806   2.448759   1.465759   2.120946   0.000000
    16  C    4.192588   3.669369   2.385157   2.695973   1.292274
    17  H    6.282129   5.588883   4.090915   3.940806   4.270117
    18  H    4.890337   4.476707   3.377369   3.617711   4.107370
    19  H    2.840547   3.367846   2.784954   3.812059   2.636006
    20  H    3.493589   3.946943   3.505909   4.367339   3.998287
    21  H    2.180733   3.505899   3.988792   5.045195   4.277015
    22  H    2.168381   2.838663   3.450251   4.279793   4.334026
    23  H    1.113432   2.181044   2.829873   3.828693   2.642356
    24  H    1.111862   2.186140   3.521882   4.338816   3.971517
    25  H    2.179530   1.112082   2.187856   2.494557   2.682265
    26  H    2.181794   1.110142   2.190586   2.484222   3.410416
    27  H    4.862221   4.488713   3.379353   3.679050   2.053125
                   16         17         18         19         20
    16  C    0.000000
    17  H    3.548913   0.000000
    18  H    4.079327   2.425883   0.000000
    19  H    3.086361   4.467099   3.288786   0.000000
    20  H    4.445037   4.552489   2.552340   1.796882   0.000000
    21  H    5.203421   6.648210   4.848869   2.496631   2.531099
    22  H    5.329703   6.208214   4.147577   3.098216   2.471165
    23  H    3.805182   6.392698   5.303360   2.689822   3.849323
    24  H    5.233188   7.341689   5.842972   3.863245   4.330523
    25  H    3.892597   6.232957   5.428736   4.199333   5.003253
    26  H    4.533630   5.863978   4.503766   4.036094   4.152811
    27  H    1.100890   4.287666   5.069598   3.736732   5.277616
                   21         22         23         24         25
    21  H    0.000000
    22  H    1.799255   0.000000
    23  H    2.467714   3.084250   0.000000
    24  H    2.541508   2.467265   1.794385   0.000000
    25  H    4.337028   3.841449   2.488016   2.518356   0.000000
    26  H    3.851757   2.668076   3.097842   2.499315   1.794968
    27  H    5.831961   6.198491   4.257363   5.848671   4.540558
                   26         27
    26  H    0.000000
    27  H    5.442729   0.000000
 Symmetry turned off by external request.
 Stoichiometry    C9H13N3O2
 Framework group  C1[X(C9H13N3O2)]
 Deg. of freedom    75
 Full point group                 C1      NOp   1
 Rotational constants (GHZ):           1.6647076           0.4038104           0.3592414
 Standard basis: 6-31G(d) (6D, 7F)
   236 basis functions,   444 primitive gaussians,   236 cartesian basis functions
    52 alpha electrons       52 beta electrons
       nuclear repulsion energy       918.8815527025 Hartrees.
 NAtoms=   27 NActive=   27 NUniq=   27 SFac= 1.00D+00 NAtFMM=   60 NAOKFM=F Big=F
 Integral buffers will be    131072 words long.
 Raffenetti 1 integral format.
 Two-electron integral symmetry is turned off.
 One-electron integrals computed using PRISM.
 NBasis=   236 RedAO= T EigKep=  1.71D-03  NBF=   236
 NBsUse=   236 1.00D-06 EigRej= -1.00D+00 NBFU=   236
 ExpMin= 1.61D-01 ExpMax= 5.48D+03 ExpMxC= 8.25D+02 IAcc=3 IRadAn=         5 AccDes= 0.00D+00
 Harris functional with IExCor=  205 and IRadAn=       5 diagonalized for initial guess.
 HarFok:  IExCor=  205 AccDes= 0.00D+00 IRadAn=         5 IDoV= 1 UseB2=F ITyADJ=14
 ICtDFT=  3500011 ScaDFX=  1.000000  1.000000  1.000000  1.000000
 FoFCou: FMM=F IPFlag=           0 FMFlag=      100000 FMFlg1=           0
         NFxFlg=           0 DoJE=T BraDBF=F KetDBF=T FulRan=T
         wScrn=  0.000000 ICntrl=       500 IOpCl=  0 I1Cent=   200000004 NGrid=           0
         NMat0=    1 NMatS0=      1 NMatT0=    0 NMatD0=    1 NMtDS0=    0 NMtDT0=    0
 Symmetry not used in FoFCou.
 Keep R1 ints in memory in canonical form, NReq=397720213.
 Requested convergence on RMS density matrix=1.00D-08 within 128 cycles.
 Requested convergence on MAX density matrix=1.00D-06.
 Requested convergence on             energy=1.00D-06.
 No special actions if energy rises.
 SCF Done:  E(RHF) =  -661.278866814     A.U. after   17 cycles
            NFock= 17  Conv=0.49D-08     -V/T= 2.0036
 ExpMin= 1.61D-01 ExpMax= 5.48D+03 ExpMxC= 8.25D+02 IAcc=3 IRadAn=         5 AccDes= 0.00D+00
 HarFok:  IExCor=  205 AccDes= 0.00D+00 IRadAn=         5 IDoV=-2 UseB2=F ITyADJ=14
 ICtDFT= 12500011 ScaDFX=  1.000000  1.000000  1.000000  1.000000
 Range of M.O.s used for correlation:    15   236
 NBasis=   236 NAE=    52 NBE=    52 NFC=    14 NFV=     0
 NROrb=    222 NOA=    38 NOB=    38 NVA=   184 NVB=   184
 Fully direct method using O(ONN) memory.
 JobTyp=1 Pass  1:  I=  15 to  52 NPSUse=  4 ParTrn=T ParDer=T DoDerP=T.
 Spin components of T(2) and E(2):
     alpha-alpha T2 =       0.9188612243D-01 E2=     -0.2717697966D+00
     alpha-beta  T2 =       0.5001300231D+00 E2=     -0.1494339897D+01
     beta-beta   T2 =       0.9188612243D-01 E2=     -0.2717697966D+00
 ANorm=    0.1297652599D+01
 E2 =    -0.2037879491D+01 EUMP2 =    -0.66331674630416D+03
          IDoAtm=111111111111111111111111111
          Differentiating once with respect to electric field.
                with respect to dipole field.
          Differentiating once with respect to nuclear coordinates.
 Keep R1 ints in memory in canonical form, NReq=397723379.
          There are     1 degrees of freedom in the 1st order CPHF.  IDoFFX=0 NUNeed=     1.
 LinEq1:  Iter=  0 NonCon=     1 RMS=4.55D-03 Max=1.13D-01 NDo=     1
 AX will form     1 AO Fock derivatives at one time.
 LinEq1:  Iter=  1 NonCon=     1 RMS=1.53D-03 Max=2.90D-02 NDo=     1
 LinEq1:  Iter=  2 NonCon=     1 RMS=6.29D-04 Max=1.71D-02 NDo=     1
 LinEq1:  Iter=  3 NonCon=     1 RMS=2.87D-04 Max=7.72D-03 NDo=     1
 LinEq1:  Iter=  4 NonCon=     1 RMS=8.80D-05 Max=1.93D-03 NDo=     1
 LinEq1:  Iter=  5 NonCon=     1 RMS=3.59D-05 Max=1.65D-03 NDo=     1
 LinEq1:  Iter=  6 NonCon=     1 RMS=1.49D-05 Max=6.04D-04 NDo=     1
 LinEq1:  Iter=  7 NonCon=     1 RMS=5.66D-06 Max=9.44D-05 NDo=     1
 LinEq1:  Iter=  8 NonCon=     1 RMS=2.25D-06 Max=4.94D-05 NDo=     1
 LinEq1:  Iter=  9 NonCon=     1 RMS=7.96D-07 Max=1.88D-05 NDo=     1
 LinEq1:  Iter= 10 NonCon=     1 RMS=4.04D-07 Max=1.50D-05 NDo=     1
 LinEq1:  Iter= 11 NonCon=     1 RMS=1.57D-07 Max=5.49D-06 NDo=     1
 LinEq1:  Iter= 12 NonCon=     1 RMS=5.83D-08 Max=1.05D-06 NDo=     1
 LinEq1:  Iter= 13 NonCon=     1 RMS=1.86D-08 Max=4.65D-07 NDo=     1
 LinEq1:  Iter= 14 NonCon=     1 RMS=6.38D-09 Max=1.64D-07 NDo=     1
 LinEq1:  Iter= 15 NonCon=     1 RMS=2.35D-09 Max=5.16D-08 NDo=     1
 LinEq1:  Iter= 16 NonCon=     1 RMS=8.40D-10 Max=1.31D-08 NDo=     1
 LinEq1:  Iter= 17 NonCon=     1 RMS=2.72D-10 Max=3.48D-09 NDo=     1
 LinEq1:  Iter= 18 NonCon=     1 RMS=9.72D-11 Max=1.34D-09 NDo=     1
 LinEq1:  Iter= 19 NonCon=     0 RMS=3.29D-11 Max=5.58D-10 NDo=     1
 Linear equations converged to 1.000D-10 1.000D-09 after    19 iterations.
 End of Minotr F.D. properties file   721 does not exist.
 End of Minotr F.D. properties file   722 does not exist.
 End of Minotr F.D. properties file   788 does not exist.

 **********************************************************************

            Population analysis using the SCF Density.

 **********************************************************************

 Alpha  occ. eigenvalues --  -20.60103 -20.59767 -15.85083 -15.63016 -15.56809
 Alpha  occ. eigenvalues --  -11.35651 -11.30724 -11.29992 -11.29709 -11.27686
 Alpha  occ. eigenvalues --  -11.24535 -11.23819 -11.23358 -11.22813  -1.58735
 Alpha  occ. eigenvalues --   -1.38362  -1.28423  -1.22713  -1.13386  -1.08646
 Alpha  occ. eigenvalues --   -1.01763  -1.00690  -0.93682  -0.88987  -0.84849
 Alpha  occ. eigenvalues --   -0.81677  -0.78149  -0.77095  -0.74230  -0.71175
 Alpha  occ. eigenvalues --   -0.70874  -0.69289  -0.67129  -0.64455  -0.63187
 Alpha  occ. eigenvalues --   -0.61678  -0.60396  -0.57398  -0.56426  -0.54837
 Alpha  occ. eigenvalues --   -0.53647  -0.50694  -0.50007  -0.48613  -0.47874
 Alpha  occ. eigenvalues --   -0.47616  -0.46169  -0.45620  -0.44003  -0.42081
 Alpha  occ. eigenvalues --   -0.39935  -0.33419
 Alpha virt. eigenvalues --    0.07901   0.11276   0.18260   0.21215   0.23285
 Alpha virt. eigenvalues --    0.24227   0.25795   0.27767   0.28631   0.28817
 Alpha virt. eigenvalues --    0.29282   0.30879   0.31890   0.32336   0.33352
 Alpha virt. eigenvalues --    0.33839   0.34751   0.35902   0.37660   0.38684
 Alpha virt. eigenvalues --    0.40707   0.41680   0.44553   0.45188   0.45489
 Alpha virt. eigenvalues --    0.46985   0.48722   0.53380   0.57499   0.58517
 Alpha virt. eigenvalues --    0.63203   0.68901   0.69275   0.72206   0.74111
 Alpha virt. eigenvalues --    0.74695   0.75797   0.75927   0.77876   0.78986
 Alpha virt. eigenvalues --    0.80784   0.83185   0.84820   0.85367   0.88198
 Alpha virt. eigenvalues --    0.89209   0.90032   0.90695   0.91651   0.93713
 Alpha virt. eigenvalues --    0.94752   0.97195   0.98690   1.00552   1.01637
 Alpha virt. eigenvalues --    1.03515   1.05026   1.06539   1.07410   1.08304
 Alpha virt. eigenvalues --    1.10171   1.10532   1.11025   1.11895   1.13271
 Alpha virt. eigenvalues --    1.13368   1.13947   1.15083   1.15800   1.16854
 Alpha virt. eigenvalues --    1.17047   1.18852   1.19500   1.21032   1.21961
 Alpha virt. eigenvalues --    1.23183   1.23858   1.25761   1.26553   1.27999
 Alpha virt. eigenvalues --    1.31323   1.32058   1.35357   1.36163   1.37081
 Alpha virt. eigenvalues --    1.39919   1.41455   1.44321   1.47117   1.51237
 Alpha virt. eigenvalues --    1.53020   1.55337   1.60313   1.61564   1.66616
 Alpha virt. eigenvalues --    1.68261   1.71669   1.73087   1.73750   1.75348
 Alpha virt. eigenvalues --    1.77524   1.78244   1.84482   1.88687   1.90346
 Alpha virt. eigenvalues --    1.91962   1.96528   1.97296   1.99525   2.00031
 Alpha virt. eigenvalues --    2.02821   2.04004   2.05898   2.09741   2.12215
 Alpha virt. eigenvalues --    2.13746   2.15140   2.17860   2.18485   2.20324
 Alpha virt. eigenvalues --    2.20857   2.22360   2.24722   2.25758   2.26326
 Alpha virt. eigenvalues --    2.29624   2.32049   2.32834   2.34980   2.35519
 Alpha virt. eigenvalues --    2.38812   2.39911   2.40582   2.43268   2.45370
 Alpha virt. eigenvalues --    2.48556   2.50508   2.51397   2.56513   2.57985
 Alpha virt. eigenvalues --    2.60732   2.63151   2.65675   2.68410   2.69549
 Alpha virt. eigenvalues --    2.69791   2.70885   2.73832   2.75282   2.83439
 Alpha virt. eigenvalues --    2.85049   2.87174   2.88529   2.92985   2.95015
 Alpha virt. eigenvalues --    2.97158   2.98487   3.02480   3.04176   3.05865
 Alpha virt. eigenvalues --    3.07687   3.13196   3.18568   3.20582   3.25987
 Alpha virt. eigenvalues --    3.29273   3.33754   3.37369   3.42157   3.59559
 Alpha virt. eigenvalues --    4.08433   4.22352   4.23867   4.32726   4.43661
 Alpha virt. eigenvalues --    4.52732   4.59731   4.61061   4.71009   4.76955
 Alpha virt. eigenvalues --    4.96716   4.99308   5.03194   5.09940
          Condensed to atoms (all electrons):
               1          2          3          4          5          6
     1  O    8.319015   0.299478  -0.082668  -0.087320   0.009367   0.000334
     2  N    0.299478   5.739153   0.309475   0.245904  -0.043864   0.001176
     3  O   -0.082668   0.309475   8.291521  -0.081568   0.002390  -0.000023
     4  C   -0.087320   0.245904  -0.081568   5.254105   0.570296  -0.051481
     5  C    0.009367  -0.043864   0.002390   0.570296   4.655763   0.311822
     6  N    0.000334   0.001176  -0.000023  -0.051481   0.311822   7.182522
     7  C   -0.000002  -0.000092   0.000004   0.003812  -0.029840   0.202722
     8  H   -0.000000   0.000002  -0.000000  -0.000164   0.002368  -0.049188
     9  C    0.000000  -0.000004  -0.000000   0.000448   0.001813  -0.057359
    10  C    0.000000   0.000000  -0.000000  -0.000019  -0.000069   0.003374
    11  C   -0.000000  -0.000000  -0.000000  -0.000016   0.000016  -0.000155
    12  C   -0.000000   0.000001  -0.000000  -0.000101  -0.000149   0.003604
    13  C   -0.000000  -0.000030  -0.000024  -0.009706   0.000403  -0.045190
    14  H    0.000001  -0.000050  -0.000007   0.002490   0.004499  -0.005430
    15  N   -0.000030   0.001949   0.000050  -0.064201  -0.004075   0.002359
    16  C    0.001253  -0.025513   0.005351   0.317426  -0.035035  -0.001132
    17  H    0.007899  -0.002685   0.000031  -0.031881   0.381815  -0.032071
    18  H    0.000010  -0.000044   0.000000   0.001405  -0.024206   0.328347
    19  H    0.000000   0.000001   0.000000  -0.000862   0.000645   0.000612
    20  H    0.000000  -0.000000  -0.000000  -0.000027   0.000015  -0.001508
    21  H   -0.000000  -0.000000   0.000000   0.000000   0.000001  -0.000060
    22  H   -0.000000   0.000000  -0.000000  -0.000000  -0.000002  -0.000096
    23  H    0.000000  -0.000000  -0.000000   0.000024  -0.000001  -0.000023
    24  H    0.000000   0.000000  -0.000000   0.000000  -0.000000   0.000004
    25  H    0.000000  -0.000000   0.000000   0.000020  -0.000001  -0.000070
    26  H    0.000000  -0.000000  -0.000000   0.000005  -0.000001  -0.000068
    27  H   -0.000055   0.000347   0.003143  -0.073238   0.002155   0.000051
               7          8          9         10         11         12
     1  O   -0.000002  -0.000000   0.000000   0.000000  -0.000000  -0.000000
     2  N   -0.000092   0.000002  -0.000004   0.000000  -0.000000   0.000001
     3  O    0.000004  -0.000000  -0.000000  -0.000000  -0.000000  -0.000000
     4  C    0.003812  -0.000164   0.000448  -0.000019  -0.000016  -0.000101
     5  C   -0.029840   0.002368   0.001813  -0.000069   0.000016  -0.000149
     6  N    0.202722  -0.049188  -0.057359   0.003374  -0.000155   0.003604
     7  C    5.006967   0.416125   0.341319  -0.049444  -0.007693  -0.064157
     8  H    0.416125   0.547097  -0.060318   0.001327  -0.000290  -0.002987
     9  C    0.341319  -0.060318   5.180445   0.317990  -0.053123  -0.006005
    10  C   -0.049444   0.001327   0.317990   5.127267   0.332710  -0.060269
    11  C   -0.007693  -0.000290  -0.053123   0.332710   5.124340   0.330546
    12  C   -0.064157  -0.002987  -0.006005  -0.060269   0.330546   5.137446
    13  C    0.330055  -0.039627  -0.051426  -0.001551  -0.048009   0.367883
    14  H   -0.040419  -0.000947   0.003848  -0.000387   0.003948  -0.040690
    15  N   -0.058604   0.003994  -0.012609   0.001481  -0.007792  -0.074043
    16  C   -0.002480   0.000008  -0.000732  -0.000043   0.000008   0.002534
    17  H    0.001548  -0.000030  -0.000064   0.000001   0.000000   0.000001
    18  H   -0.029116  -0.002843   0.000825  -0.000119   0.000011  -0.000139
    19  H   -0.035115   0.004083   0.386341  -0.032821  -0.002245   0.000613
    20  H   -0.041577  -0.001810   0.397250  -0.037352   0.004134  -0.000363
    21  H    0.004051  -0.000080  -0.035832   0.400071  -0.035872   0.004221
    22  H   -0.004265   0.003522  -0.045623   0.395899  -0.045607  -0.001245
    23  H    0.000430   0.000034  -0.001993  -0.040130   0.396709  -0.036667
    24  H   -0.000143  -0.000099   0.004390  -0.038476   0.400295  -0.037876
    25  H    0.004989  -0.000003  -0.000375   0.004098  -0.033909   0.395409
    26  H   -0.004473   0.001565   0.001053  -0.002410  -0.042268   0.394660
    27  H   -0.000407   0.000009  -0.000057   0.000005   0.000005  -0.000024
              13         14         15         16         17         18
     1  O   -0.000000   0.000001  -0.000030   0.001253   0.007899   0.000010
     2  N   -0.000030  -0.000050   0.001949  -0.025513  -0.002685  -0.000044
     3  O   -0.000024  -0.000007   0.000050   0.005351   0.000031   0.000000
     4  C   -0.009706   0.002490  -0.064201   0.317426  -0.031881   0.001405
     5  C    0.000403   0.004499  -0.004075  -0.035035   0.381815  -0.024206
     6  N   -0.045190  -0.005430   0.002359  -0.001132  -0.032071   0.328347
     7  C    0.330055  -0.040419  -0.058604  -0.002480   0.001548  -0.029116
     8  H   -0.039627  -0.000947   0.003994   0.000008  -0.000030  -0.002843
     9  C   -0.051426   0.003848  -0.012609  -0.000732  -0.000064   0.000825
    10  C   -0.001551  -0.000387   0.001481  -0.000043   0.000001  -0.000119
    11  C   -0.048009   0.003948  -0.007792   0.000008   0.000000   0.000011
    12  C    0.367883  -0.040690  -0.074043   0.002534   0.000001  -0.000139
    13  C    5.020799   0.403517   0.244018  -0.070450  -0.000056   0.003744
    14  H    0.403517   0.516736  -0.036024  -0.004571   0.000054   0.000012
    15  N    0.244018  -0.036024   6.930081   0.595681  -0.000044  -0.000125
    16  C   -0.070450  -0.004571   0.595681   4.675653   0.001625  -0.000163
    17  H   -0.000056   0.000054  -0.000044   0.001625   0.398042  -0.002128
    18  H    0.003744   0.000012  -0.000125  -0.000163  -0.002128   0.326831
    19  H   -0.006156   0.000063   0.006842   0.002461   0.000011  -0.000125
    20  H    0.003879  -0.000050   0.000079  -0.000030  -0.000002   0.002785
    21  H   -0.000385   0.000009  -0.000032   0.000002  -0.000000  -0.000000
    22  H    0.000325  -0.000043   0.000004  -0.000001   0.000000   0.000002
    23  H   -0.005874   0.000007   0.006744   0.000075   0.000000   0.000000
    24  H    0.004150  -0.000059   0.000039   0.000005   0.000000  -0.000000
    25  H   -0.034498  -0.002662   0.000844  -0.000055  -0.000000   0.000002
    26  H   -0.044743  -0.000886   0.004167  -0.000053   0.000000  -0.000001
    27  H    0.004956  -0.000160  -0.038097   0.404644  -0.000062   0.000002
              19         20         21         22         23         24
     1  O    0.000000   0.000000  -0.000000  -0.000000   0.000000   0.000000
     2  N    0.000001  -0.000000  -0.000000   0.000000  -0.000000   0.000000
     3  O    0.000000  -0.000000   0.000000  -0.000000  -0.000000  -0.000000
     4  C   -0.000862  -0.000027   0.000000  -0.000000   0.000024   0.000000
     5  C    0.000645   0.000015   0.000001  -0.000002  -0.000001  -0.000000
     6  N    0.000612  -0.001508  -0.000060  -0.000096  -0.000023   0.000004
     7  C   -0.035115  -0.041577   0.004051  -0.004265   0.000430  -0.000143
     8  H    0.004083  -0.001810  -0.000080   0.003522   0.000034  -0.000099
     9  C    0.386341   0.397250  -0.035832  -0.045623  -0.001993   0.004390
    10  C   -0.032821  -0.037352   0.400071   0.395899  -0.040130  -0.038476
    11  C   -0.002245   0.004134  -0.035872  -0.045607   0.396709   0.400295
    12  C    0.000613  -0.000363   0.004221  -0.001245  -0.036667  -0.037876
    13  C   -0.006156   0.003879  -0.000385   0.000325  -0.005874   0.004150
    14  H    0.000063  -0.000050   0.000009  -0.000043   0.000007  -0.000059
    15  N    0.006842   0.000079  -0.000032   0.000004   0.006744   0.000039
    16  C    0.002461  -0.000030   0.000002  -0.000001   0.000075   0.000005
    17  H    0.000011  -0.000002  -0.000000   0.000000   0.000000   0.000000
    18  H   -0.000125   0.002785  -0.000000   0.000002   0.000000  -0.000000
    19  H    0.507433  -0.023903  -0.002593   0.003765   0.001646  -0.000071
    20  H   -0.023903   0.549328  -0.002632  -0.002950  -0.000050  -0.000090
    21  H   -0.002593  -0.002632   0.526471  -0.024721  -0.002819  -0.002068
    22  H    0.003765  -0.002950  -0.024721   0.569100   0.004065  -0.003593
    23  H    0.001646  -0.000050  -0.002819   0.004065   0.510118  -0.025015
    24  H   -0.000071  -0.000090  -0.002068  -0.003593  -0.025015   0.541243
    25  H   -0.000027   0.000011  -0.000086  -0.000082  -0.002083  -0.002388
    26  H    0.000023  -0.000035  -0.000073   0.002459   0.003820  -0.002755
    27  H    0.000082   0.000000  -0.000000   0.000000  -0.000021  -0.000000
              25         26         27
     1  O    0.000000   0.000000  -0.000055
     2  N   -0.000000  -0.000000   0.000347
     3  O    0.000000  -0.000000   0.003143
     4  C    0.000020   0.000005  -0.073238
     5  C   -0.000001  -0.000001   0.002155
     6  N   -0.000070  -0.000068   0.000051
     7  C    0.004989  -0.004473  -0.000407
     8  H   -0.000003   0.001565   0.000009
     9  C   -0.000375   0.001053  -0.000057
    10  C    0.004098  -0.002410   0.000005
    11  C   -0.033909  -0.042268   0.000005
    12  C    0.395409   0.394660  -0.000024
    13  C   -0.034498  -0.044743   0.004956
    14  H   -0.002662  -0.000886  -0.000160
    15  N    0.000844   0.004167  -0.038097
    16  C   -0.000055  -0.000053   0.404644
    17  H   -0.000000   0.000000  -0.000062
    18  H    0.000002  -0.000001   0.000002
    19  H   -0.000027   0.000023   0.000082
    20  H    0.000011  -0.000035   0.000000
    21  H   -0.000086  -0.000073  -0.000000
    22  H   -0.000082   0.002459   0.000000
    23  H   -0.002083   0.003820  -0.000021
    24  H   -0.002388  -0.002755  -0.000000
    25  H    0.510221  -0.023115  -0.000011
    26  H   -0.023115   0.560919   0.000001
    27  H   -0.000011   0.000001   0.467106
 Mulliken charges:
               1
     1  O   -0.467282
     2  N    0.474797
     3  O   -0.447676
     4  C    0.004650
     5  C    0.193875
     6  N   -0.793074
     7  C    0.055807
     8  H    0.178253
     9  C   -0.310204
    10  C   -0.321131
    11  C   -0.315743
    12  C   -0.312206
    13  C   -0.025999
    14  H    0.197200
    15  N   -0.502657
    16  C    0.133530
    17  H    0.277996
    18  H    0.395032
    19  H    0.189297
    20  H    0.154899
    21  H    0.172428
    22  H    0.149088
    23  H    0.191005
    24  H    0.162505
    25  H    0.183773
    26  H    0.152209
    27  H    0.229627
 Sum of Mulliken charges =  -0.00000
 Mulliken charges with hydrogens summed into heavy atoms:
               1
     1  O   -0.467282
     2  N    0.474797
     3  O   -0.447676
     4  C    0.004650
     5  C    0.471871
     6  N   -0.398042
     7  C    0.234060
     9  C    0.033992
    10  C    0.000385
    11  C    0.037768
    12  C    0.023776
    13  C    0.171201
    15  N   -0.502657
    16  C    0.363156
 Electronic spatial extent (au):  <R**2>=           3101.2323
 Charge=             -0.0000 electrons
 Dipole moment (field-independent basis, Debye):
    X=              5.1099    Y=              4.4176    Z=              0.3366  Tot=              6.7631
 Quadrupole moment (field-independent basis, Debye-Ang):
   XX=           -103.9011   YY=            -79.3777   ZZ=            -83.4722
   XY=             -1.7517   XZ=             -0.2827   YZ=              2.1617
 Traceless Quadrupole moment (field-independent basis, Debye-Ang):
   XX=            -14.9841   YY=              9.5393   ZZ=              5.4448
   XY=             -1.7517   XZ=             -0.2827   YZ=              2.1617
 Octapole moment (field-independent basis, Debye-Ang**2):
  XXX=             91.4712  YYY=             34.5075  ZZZ=             -3.9496  XYY=             -5.9903
  XXY=             12.6714  XXZ=              6.1541  XZZ=             -4.0986  YZZ=             -3.2690
  YYZ=             -4.1064  XYZ=             -9.8762
 Hexadecapole moment (field-independent basis, Debye-Ang**3):
 XXXX=          -3485.8945 YYYY=           -598.0739 ZZZZ=           -323.4316 XXXY=            -43.0543
 XXXZ=            -28.6575 YYYX=             -9.2659 YYYZ=             42.7686 ZZZX=             -3.6694
 ZZZY=             43.0422 XXYY=           -633.6974 XXZZ=           -557.3703 YYZZ=           -166.6435
 XXYZ=             47.6146 YYXZ=              9.1166 ZZXY=              3.0997
 N-N= 9.188815527025D+02 E-N=-3.383812250059D+03  KE= 6.589108497812D+02
 Calling FoFJK, ICntrl=  10002127 FMM=F ISym2X=0 I1Cent= 0 IOpClX= 0 NMat=1 NMatS=1 NMatT=0.
 -------------------------------------------------------------------
 Center     Atomic                   Forces (Hartrees/Bohr)
 Number     Number              X              Y              Z
 -------------------------------------------------------------------
      1        8          -0.010830619    0.015974503   -0.004127742
      2        7           0.040515939    0.009647903   -0.005411880
      3        8          -0.002275958   -0.019244338    0.007518475
      4        6          -0.000712712    0.011567894    0.007657733
      5        6           0.004643079   -0.019050409   -0.005590244
      6        7           0.016645127   -0.006900040   -0.004573301
      7        6          -0.005493619    0.005680244    0.002050290
      8        1          -0.010368911   -0.002461480   -0.007387316
      9        6          -0.003778070   -0.000028561   -0.002007107
     10        6           0.002800848   -0.000827852    0.000921517
     11        6          -0.000857330   -0.004717881   -0.001896428
     12        6           0.000709752   -0.009222063   -0.002263222
     13        6           0.008568093   -0.000945487    0.003678403
     14        1           0.000791615    0.003216464   -0.010474650
     15        7           0.000257690   -0.001503352    0.002561174
     16        6          -0.018267838    0.010761655    0.006424243
     17        1           0.008649212   -0.005754580   -0.004775952
     18        1          -0.017505750   -0.001566042    0.005466013
     19        1           0.003122094    0.006531967    0.007050241
     20        1          -0.003248102   -0.007160818    0.003301421
     21        1          -0.004251783    0.003245153    0.009394691
     22        1          -0.004040617   -0.004632270   -0.006973654
     23        1           0.004001988    0.006916437    0.008682205
     24        1          -0.009398426    0.002378486   -0.002295095
     25        1          -0.000836881    0.010339106   -0.003382291
     26        1          -0.004830243   -0.005158689   -0.003913829
     27        1           0.005991424    0.002914049    0.000366305
 -------------------------------------------------------------------
 Cartesian Forces:  Max     0.040515939 RMS     0.008565416

 GradGradGradGradGradGradGradGradGradGradGradGradGradGradGradGradGradGrad
 Berny optimization.
 FormGI is forming the generalized inverse of G from B-inverse, IUseBI=4.
 Internal  Forces:  Max     0.032256068 RMS     0.006481827
 Search for a local minimum.
 Step number   1 out of a maximum of   20
 All quantities printed in internal units (Hartrees-Bohrs-Radians)
 Mixed Optimization -- RFO/linear search
 Second derivative matrix not updated -- first step.
 ITU=  0
     Eigenvalues ---    0.00265   0.00770   0.01071   0.01160   0.01214
     Eigenvalues ---    0.01481   0.01535   0.01621   0.01989   0.02035
     Eigenvalues ---    0.02115   0.02682   0.03662   0.04508   0.04696
     Eigenvalues ---    0.04838   0.05075   0.05139   0.05303   0.05880
     Eigenvalues ---    0.06267   0.07213   0.07699   0.07719   0.07862
     Eigenvalues ---    0.07995   0.08044   0.08049   0.10458   0.11736
     Eigenvalues ---    0.12265   0.13396   0.15173   0.15627   0.15990
     Eigenvalues ---    0.16000   0.20095   0.22029   0.23249   0.24972
     Eigenvalues ---    0.25000   0.25000   0.25349   0.26183   0.26652
     Eigenvalues ---    0.27984   0.28081   0.28454   0.31470   0.31520
     Eigenvalues ---    0.31797   0.32048   0.32239   0.32291   0.32381
     Eigenvalues ---    0.32388   0.32404   0.32514   0.32527   0.32585
     Eigenvalues ---    0.33349   0.33584   0.33693   0.35305   0.43883
     Eigenvalues ---    0.44774   0.49420   0.67204   0.90693   0.91457
     Eigenvalues --- 1000.000001000.000001000.000001000.000001000.00000
     Eigenvalues --- 1000.000001000.000001000.000001000.000001000.00000
     Eigenvalues --- 1000.000001000.000001000.000001000.000001000.00000
     Eigenvalues --- 1000.000001000.000001000.000001000.000001000.00000
     Eigenvalues --- 1000.000001000.000001000.000001000.000001000.00000
     Eigenvalues --- 1000.000001000.000001000.000001000.000001000.00000
     Eigenvalues --- 1000.000001000.000001000.000001000.000001000.00000
     Eigenvalues --- 1000.000001000.000001000.000001000.000001000.00000
     Eigenvalues --- 1000.000001000.000001000.000001000.000001000.00000
     Eigenvalues --- 1000.000001000.000001000.000001000.000001000.00000
     Eigenvalues --- 1000.000001000.000001000.000001000.000001000.00000
     Eigenvalues --- 1000.000001000.000001000.000001000.000001000.00000
     Eigenvalues --- 1000.000001000.000001000.000001000.000001000.00000
     Eigenvalues --- 1000.000001000.000001000.000001000.000001000.00000
     Eigenvalues --- 1000.000001000.000001000.000001000.000001000.00000
     Eigenvalues --- 1000.000001000.000001000.000001000.000001000.00000
     Eigenvalues --- 1000.000001000.000001000.000001000.000001000.00000
     Eigenvalues --- 1000.000001000.000001000.000001000.000001000.00000
     Eigenvalues --- 1000.00000
 RFO step:  Lambda=-2.11067684D-02 EMin= 2.65053494D-03
 Linear search not attempted -- first point.
 Iteration  1 RMS(Cart)=  0.05258408 RMS(Int)=  0.00110887
 Iteration  2 RMS(Cart)=  0.00124431 RMS(Int)=  0.00022375
 Iteration  3 RMS(Cart)=  0.00000089 RMS(Int)=  0.00022375
 Iteration  1 RMS(Cart)=  0.00003188 RMS(Int)=  0.00002408
 Iteration  2 RMS(Cart)=  0.00001495 RMS(Int)=  0.00002680
 Iteration  3 RMS(Cart)=  0.00000760 RMS(Int)=  0.00002972
 Iteration  4 RMS(Cart)=  0.00000433 RMS(Int)=  0.00003149
 Iteration  5 RMS(Cart)=  0.00000279 RMS(Int)=  0.00003251
 Iteration  6 RMS(Cart)=  0.00000202 RMS(Int)=  0.00003314
 Iteration  7 RMS(Cart)=  0.00000158 RMS(Int)=  0.00003356
 Iteration  8 RMS(Cart)=  0.00000131 RMS(Int)=  0.00003386
 Iteration  9 RMS(Cart)=  0.00000112 RMS(Int)=  0.00003410
 Iteration 10 RMS(Cart)=  0.00000098 RMS(Int)=  0.00003430
 Variable       Old X    -DE/DX   Delta X   Delta X   Delta X     New X
                                 (Linear)    (Quad)   (Total)
    R1        2.32615   0.01907   0.00000   0.02055   0.02055   2.34670
    R2        2.32269   0.02030   0.00000   0.02169   0.02169   2.34438
    R3        2.85030  -0.02807   0.00000  -0.08348  -0.08348   2.76682
    R4        2.63859  -0.03226   0.00000  -0.06929  -0.06906   2.56953
    R5        2.80092  -0.02073   0.00000  -0.05943  -0.05925   2.74167
    R6        2.58926  -0.02238   0.00000  -0.04322  -0.04310   2.54615
    R7        2.08443  -0.01066   0.00000  -0.03007  -0.03007   2.05436
    R8        2.82524  -0.01988   0.00000  -0.05523  -0.05531   2.76993
    R9        1.93295  -0.00676   0.00000  -0.01470  -0.01470   1.91825
   R10        2.11824  -0.01205   0.00000  -0.03588  -0.03588   2.08236
   R11        2.92749  -0.01281   0.00000  -0.04399  -0.04401   2.88348
   R12        2.90437  -0.00406   0.00000  -0.00780  -0.00786   2.89651
   R13        2.91147  -0.00460   0.00000  -0.01438  -0.01440   2.89707
   R14        2.09914  -0.00989   0.00000  -0.02855  -0.02855   2.07059
   R15        2.09891  -0.00810   0.00000  -0.02339  -0.02339   2.07552
   R16        2.90433  -0.00191   0.00000  -0.00740  -0.00746   2.89687
   R17        2.10139  -0.01056   0.00000  -0.03060  -0.03060   2.07080
   R18        2.10315  -0.00900   0.00000  -0.02617  -0.02617   2.07698
   R19        2.91748  -0.00914   0.00000  -0.02926  -0.02924   2.88824
   R20        2.10408  -0.01164   0.00000  -0.03388  -0.03388   2.07020
   R21        2.10111  -0.00994   0.00000  -0.02879  -0.02879   2.07232
   R22        2.93528  -0.01058   0.00000  -0.03676  -0.03674   2.89854
   R23        2.10153  -0.01075   0.00000  -0.03118  -0.03118   2.07036
   R24        2.09786  -0.00787   0.00000  -0.02269  -0.02269   2.07517
   R25        2.10757  -0.00938   0.00000  -0.02747  -0.02747   2.08009
   R26        2.76988  -0.00589   0.00000  -0.01305  -0.01330   2.75659
   R27        2.44204  -0.00582   0.00000  -0.00820  -0.00823   2.43381
   R28        2.08038  -0.00515   0.00000  -0.01443  -0.01443   2.06595
    A1        2.18013   0.00418   0.00000   0.01471   0.01438   2.19451
    A2        2.05814   0.00156   0.00000   0.00505   0.00472   2.06286
    A3        2.04414  -0.00562   0.00000  -0.02145  -0.02178   2.02236
    A4        2.01713  -0.00360   0.00000  -0.01060  -0.01122   2.00591
    A5        2.02384  -0.00376   0.00000  -0.01117  -0.01183   2.01200
    A6        2.24103   0.00733   0.00000   0.01919   0.01908   2.26011
    A7        2.19467   0.00798   0.00000   0.02714   0.02750   2.22217
    A8        2.06059  -0.00270   0.00000  -0.00619  -0.00642   2.05417
    A9        2.02694  -0.00525   0.00000  -0.02027  -0.02052   2.00642
   A10        2.25305  -0.00656   0.00000  -0.02313  -0.02309   2.22997
   A11        2.11164  -0.01172   0.00000  -0.06989  -0.07017   2.04148
   A12        1.87147   0.01836   0.00000   0.09988   0.10001   1.97148
   A13        1.83803  -0.00185   0.00000  -0.01900  -0.01880   1.81924
   A14        2.00585  -0.00106   0.00000  -0.01316  -0.01311   1.99274
   A15        1.96929   0.00138   0.00000   0.00254   0.00194   1.97123
   A16        1.85244   0.00279   0.00000   0.02480   0.02459   1.87703
   A17        1.84921   0.00090   0.00000   0.01985   0.01976   1.86897
   A18        1.93511  -0.00185   0.00000  -0.01053  -0.01022   1.92489
   A19        1.91007   0.00033   0.00000  -0.00435  -0.00448   1.90558
   A20        1.92222  -0.00075   0.00000  -0.01358  -0.01354   1.90868
   A21        1.92292  -0.00175   0.00000  -0.00729  -0.00730   1.91562
   A22        1.91931  -0.00045   0.00000   0.00578   0.00573   1.92504
   A23        1.90472   0.00301   0.00000   0.02516   0.02518   1.92990
   A24        1.88441  -0.00037   0.00000  -0.00532  -0.00558   1.87882
   A25        1.94059  -0.00086   0.00000   0.00594   0.00579   1.94638
   A26        1.91886  -0.00064   0.00000  -0.00681  -0.00682   1.91205
   A27        1.90494   0.00026   0.00000  -0.00309  -0.00314   1.90180
   A28        1.91609   0.00074   0.00000   0.00726   0.00731   1.92341
   A29        1.89851   0.00175   0.00000   0.01133   0.01138   1.90989
   A30        1.88378  -0.00123   0.00000  -0.01515  -0.01524   1.86854
   A31        1.94460   0.00066   0.00000   0.00518   0.00535   1.94995
   A32        1.90248   0.00062   0.00000   0.00626   0.00619   1.90866
   A33        1.91732   0.00040   0.00000   0.00547   0.00544   1.92276
   A34        1.90685  -0.00121   0.00000  -0.01483  -0.01489   1.89195
   A35        1.91530  -0.00042   0.00000   0.00032   0.00021   1.91550
   A36        1.87594  -0.00006   0.00000  -0.00278  -0.00280   1.87313
   A37        1.94661  -0.00292   0.00000  -0.01870  -0.01875   1.92786
   A38        1.90616   0.00248   0.00000   0.01698   0.01680   1.92296
   A39        1.91116   0.00142   0.00000   0.01393   0.01393   1.92508
   A40        1.90625   0.00020   0.00000  -0.00327  -0.00309   1.90316
   A41        1.91186  -0.00026   0.00000  -0.00486  -0.00480   1.90706
   A42        1.88060  -0.00084   0.00000  -0.00356  -0.00377   1.87683
   A43        1.84594   0.00466   0.00000   0.02451   0.02456   1.87050
   A44        1.93638  -0.00434   0.00000  -0.03061  -0.03106   1.90532
   A45        1.98809   0.00117   0.00000   0.01339   0.01357   2.00166
   A46        1.88138   0.00229   0.00000   0.03132   0.03160   1.91297
   A47        1.89147  -0.00435   0.00000  -0.03077  -0.03084   1.86063
   A48        1.91593   0.00077   0.00000  -0.00541  -0.00518   1.91075
   A49        2.08721  -0.00664   0.00000  -0.01803  -0.01814   2.06908
   A50        2.24850  -0.00294   0.00000  -0.01434  -0.01446   2.23404
   A51        1.97613   0.00506   0.00000   0.02692   0.02635   2.00249
   A52        2.05853  -0.00213   0.00000  -0.01284  -0.01339   2.04514
    D1        0.65015  -0.00520   0.00000  -0.05123  -0.05056   0.59959
    D2       -2.44346  -0.00484   0.00000   0.00000   0.00000  -2.44346
    D3       -2.53148  -0.00182   0.00000  -0.09482  -0.09447  -2.62595
    D4        0.65809  -0.00146   0.00000  -0.04359  -0.04391   0.61419
    D5        3.07885   0.00017   0.00000   0.02487   0.02492   3.10377
    D6       -0.01307  -0.00054   0.00000   0.00851   0.00851  -0.00457
    D7       -0.11780  -0.00067   0.00000  -0.03507  -0.03557  -0.15336
    D8        3.07346  -0.00137   0.00000  -0.05143  -0.05198   3.02149
    D9       -2.77452  -0.00125   0.00000  -0.05175  -0.05237  -2.82689
   D10        0.37280   0.00109   0.00000   0.00335   0.00323   0.37603
   D11        0.42231  -0.00042   0.00000   0.00836   0.00827   0.43058
   D12       -2.71356   0.00192   0.00000   0.06347   0.06387  -2.64969
   D13       -0.06131   0.00015   0.00000   0.02797   0.02815  -0.03316
   D14        2.71218   0.00392   0.00000   0.07246   0.07183   2.78401
   D15        3.03146   0.00090   0.00000   0.04437   0.04449   3.07595
   D16       -0.47823   0.00467   0.00000   0.08886   0.08817  -0.39006
   D17       -2.53795  -0.00070   0.00000  -0.01597  -0.01555  -2.55350
   D18        1.71326  -0.00234   0.00000  -0.02688  -0.02652   1.68675
   D19       -0.52880  -0.00003   0.00000  -0.00227  -0.00219  -0.53099
   D20        0.93251   0.00031   0.00000  -0.03045  -0.03077   0.90174
   D21       -1.09946  -0.00133   0.00000  -0.04135  -0.04173  -1.14120
   D22        2.94166   0.00098   0.00000  -0.01674  -0.01741   2.92425
   D23        2.94294   0.00217   0.00000   0.02665   0.02658   2.96952
   D24       -1.22831   0.00135   0.00000   0.02245   0.02238  -1.20592
   D25        0.84859  -0.00066   0.00000   0.00289   0.00291   0.85150
   D26        0.91921   0.00319   0.00000   0.04095   0.04098   0.96019
   D27        3.03115   0.00237   0.00000   0.03675   0.03678   3.06793
   D28       -1.17514   0.00036   0.00000   0.01718   0.01730  -1.15783
   D29       -1.08122   0.00149   0.00000   0.00907   0.00902  -1.07220
   D30        1.03072   0.00068   0.00000   0.00486   0.00482   1.03554
   D31        3.10762  -0.00133   0.00000  -0.01470  -0.01466   3.09296
   D32       -2.89845  -0.00101   0.00000  -0.01409  -0.01383  -2.91228
   D33       -0.86302   0.00215   0.00000   0.02145   0.02130  -0.84173
   D34        1.30938   0.00061   0.00000   0.00000   0.00001   1.30939
   D35       -0.89603  -0.00198   0.00000  -0.02376  -0.02361  -0.91964
   D36        1.13939   0.00118   0.00000   0.01178   0.01152   1.15091
   D37       -2.97139  -0.00037   0.00000  -0.00967  -0.00977  -2.98116
   D38        1.10642   0.00089   0.00000   0.01122   0.01135   1.11777
   D39       -3.14135   0.00405   0.00000   0.04675   0.04648  -3.09487
   D40       -0.96894   0.00251   0.00000   0.02531   0.02519  -0.94375
   D41        0.95664   0.00074   0.00000   0.00000   0.00001   0.95666
   D42        3.08230   0.00065   0.00000   0.00850   0.00845   3.09075
   D43       -1.13776  -0.00106   0.00000  -0.01578  -0.01574  -1.15350
   D44       -1.15706   0.00173   0.00000   0.01592   0.01600  -1.14106
   D45        0.96860   0.00165   0.00000   0.02441   0.02444   0.99303
   D46        3.03173  -0.00006   0.00000   0.00014   0.00024   3.03197
   D47        3.06211   0.00064   0.00000   0.00390   0.00388   3.06598
   D48       -1.09542   0.00056   0.00000   0.01240   0.01232  -1.08311
   D49        0.96771  -0.00115   0.00000  -0.01187  -0.01188   0.95583
   D50       -0.92192  -0.00069   0.00000   0.00000   0.00001  -0.92191
   D51        1.18375  -0.00138   0.00000  -0.01108  -0.01109   1.17266
   D52       -3.04818  -0.00086   0.00000  -0.00761  -0.00765  -3.05583
   D53       -3.04918   0.00019   0.00000  -0.00029  -0.00026  -3.04945
   D54       -0.94352  -0.00049   0.00000  -0.01137  -0.01137  -0.95489
   D55        1.10774   0.00002   0.00000  -0.00790  -0.00793   1.09981
   D56        1.17629   0.00022   0.00000   0.00718   0.00722   1.18352
   D57       -3.00123  -0.00046   0.00000  -0.00389  -0.00388  -3.00511
   D58       -0.94997   0.00005   0.00000  -0.00043  -0.00044  -0.95041
   D59        0.98932  -0.00088   0.00000  -0.01180  -0.01188   0.97745
   D60        3.09797  -0.00085   0.00000  -0.01656  -0.01674   3.08123
   D61       -1.12973   0.00040   0.00000  -0.00287  -0.00286  -1.13259
   D62       -1.11377  -0.00127   0.00000  -0.01311  -0.01312  -1.12689
   D63        0.99487  -0.00124   0.00000  -0.01787  -0.01798   0.97689
   D64        3.05036   0.00001   0.00000  -0.00418  -0.00410   3.04625
   D65        3.11676  -0.00023   0.00000  -0.00122  -0.00123   3.11553
   D66       -1.05778  -0.00020   0.00000  -0.00598  -0.00609  -1.06387
   D67        0.99771   0.00105   0.00000   0.00771   0.00779   1.00549
   D68       -1.05563  -0.00007   0.00000  -0.00089  -0.00078  -1.05641
   D69       -3.12792   0.00141   0.00000   0.00633   0.00593  -3.12200
   D70        1.08266   0.00162   0.00000   0.01225   0.01210   1.09475
   D71        3.11896  -0.00143   0.00000  -0.00796  -0.00777   3.11119
   D72        1.04667   0.00005   0.00000  -0.00075  -0.00106   1.04561
   D73       -1.02594   0.00026   0.00000   0.00518   0.00511  -1.02083
   D74        1.06301  -0.00037   0.00000   0.00109   0.00132   1.06433
   D75       -1.00928   0.00111   0.00000   0.00830   0.00802  -1.00126
   D76       -3.08188   0.00131   0.00000   0.01422   0.01419  -3.06769
   D77       -1.17215   0.00386   0.00000   0.00000   0.00001  -1.17215
   D78        3.06179   0.00026   0.00000  -0.01804  -0.01784   3.04395
   D79        1.01118  -0.00040   0.00000  -0.03486  -0.03512   0.97605
   D80        0.18640   0.00079   0.00000   0.00923   0.00897   0.19537
   D81       -2.96114  -0.00162   0.00000  -0.04798  -0.04769  -3.00883
         Item               Value     Threshold  Converged?
 Maximum Force            0.031983     0.000450     NO 
 RMS     Force            0.006527     0.000300     NO 
 Maximum Displacement     0.236134     0.001800     NO 
 RMS     Displacement     0.052949     0.001200     NO 
 Predicted change in Energy=-1.185567D-02
 GradGradGradGradGradGradGradGradGradGradGradGradGradGradGradGradGradGrad

                          Input orientation:                          
 ---------------------------------------------------------------------
 Center     Atomic      Atomic             Coordinates (Angstroms)
 Number     Number       Type             X           Y           Z
 ---------------------------------------------------------------------
      1          8           0       -3.832734    0.623243   -0.611426
      2          7           0       -3.119887   -0.239851   -0.073806
      3          8           0       -3.506896   -1.342377    0.343004
      4          6           0       -1.675988   -0.004894   -0.013319
      5          6           0       -1.313158    1.295732    0.146715
      6          7           0       -0.064485    1.785823    0.273293
      7          6           0        1.194846    1.036527    0.307317
      8          1           0        1.835606    1.614513    0.992612
      9          6           0        1.912097    0.958526   -1.037211
     10          6           0        3.314052    0.374857   -0.827118
     11          6           0        3.258086   -0.977454   -0.107334
     12          6           0        2.452024   -0.895579    1.188638
     13          6           0        1.040397   -0.364563    0.909361
     14          1           0        0.479436   -0.292311    1.853674
     15          7           0        0.395151   -1.336314    0.033445
     16          6           0       -0.847781   -1.170228   -0.260262
     17          1           0       -2.105638    2.037162    0.210623
     18          1           0        0.066460    2.771058    0.066940
     19          1           0        1.335216    0.325274   -1.720421
     20          1           0        1.973896    1.960093   -1.483689
     21          1           0        3.815571    0.267653   -1.795521
     22          1           0        3.909623    1.081383   -0.232040
     23          1           0        2.785886   -1.718042   -0.762072
     24          1           0        4.272715   -1.332770    0.109154
     25          1           0        2.376445   -1.886450    1.649906
     26          1           0        2.952645   -0.233328    1.907459
     27          1           0       -1.342577   -1.974685   -0.810921
 ---------------------------------------------------------------------
                    Distance matrix (angstroms):
                    1          2          3          4          5
     1  O    0.000000
     2  N    1.241820   0.000000
     3  O    2.209246   1.240593   0.000000
     4  C    2.324616   1.464140   2.295224   0.000000
     5  C    2.715747   2.381368   3.436660   1.359736   0.000000
     6  N    4.041536   3.682297   4.651955   2.426058   1.347366
     7  C    5.127519   4.515674   5.269425   3.070676   2.526472
     8  H    5.973745   5.397483   6.140645   3.995706   3.275954
     9  C    5.770337   5.261665   6.046870   3.853685   3.452195
    10  C    7.154352   6.506989   7.130456   5.070205   4.817409
    11  C    7.286704   6.420570   6.789768   5.029890   5.111573
    12  C    6.711574   5.750646   6.035185   4.390729   4.479290
    13  C    5.199611   4.276696   4.685590   2.891271   2.979501
    14  H    5.050719   4.083265   4.390399   2.866029   2.940915
    15  N    4.704331   3.683643   3.914312   2.462618   3.139875
    16  C    3.499971   2.462282   2.732117   1.450832   2.542275
    17  H    2.378611   2.508862   3.660920   2.098747   1.087119
    18  H    4.502999   4.386135   5.455770   3.278487   2.021459
    19  H    5.293993   4.783163   5.521307   3.477148   3.382583
    20  H    6.022039   5.724871   6.654487   4.398274   3.728849
    21  H    7.747586   7.163968   7.796411   5.779944   5.579703
    22  H    7.765173   7.154349   7.823685   5.694462   5.240882
    23  H    7.022139   6.126738   6.400111   4.837751   5.168257
    24  H    8.369201   7.475193   7.783131   6.096337   6.173525
    25  H    7.068669   5.991005   6.051257   4.767472   5.098925
    26  H    7.288337   6.387573   6.738188   5.016554   4.861616
    27  H    3.604152   2.590718   2.532911   2.151142   3.407867
                    6          7          8          9         10
     6  N    0.000000
     7  C    1.465782   0.000000
     8  H    2.038900   1.101939   0.000000
     9  C    2.511716   1.525873   2.134561   0.000000
    10  C    3.823119   2.493147   2.652162   1.533064   0.000000
    11  C    4.338209   2.912905   3.154619   2.534635   1.532960
    12  C    3.789537   2.467845   2.592095   2.946800   2.533845
    13  C    2.499902   1.532764   2.134486   2.509894   2.954930
    14  H    2.666851   2.160750   2.493311   3.460394   3.958131
    15  N    3.164891   2.518908   3.420862   2.951901   3.491226
    16  C    3.104266   3.060104   4.065100   3.571017   4.475429
    17  H    2.057524   3.450190   4.040241   4.343125   5.763089
    18  H    1.015094   2.083179   2.307454   2.812614   4.133760
    19  H    2.840292   2.153440   3.045172   1.095707   2.171690
    20  H    2.696730   2.160462   2.504120   1.098316   2.177171
    21  H    4.651846   3.446926   3.675320   2.162303   1.095819
    22  H    4.067571   2.768201   2.466890   2.157199   1.099092
    23  H    4.633969   3.355988   3.884311   2.828997   2.159494
    24  H    5.344518   3.889231   3.925108   3.483778   2.170629
    25  H    4.619393   3.426736   3.602955   3.940826   3.482566
    26  H    3.981274   2.694966   2.345045   3.342804   2.824609
    27  H    4.117094   4.093455   5.122101   4.387235   5.215822
                   11         12         13         14         15
    11  C    0.000000
    12  C    1.528393   0.000000
    13  C    2.515442   1.533840   0.000000
    14  H    3.469275   2.167327   1.100738   0.000000
    15  N    2.888770   2.399885   1.458722   2.100067   0.000000
    16  C    4.113233   3.614340   2.362695   2.645934   1.287916
    17  H    6.161050   5.507246   4.019211   3.848203   4.203056
    18  H    4.926276   4.515900   3.389742   3.570321   4.120639
    19  H    2.827822   3.346695   2.734693   3.726650   2.592421
    20  H    3.488936   3.940152   3.464410   4.294732   3.957326
    21  H    2.170497   3.481031   3.926535   4.975940   4.197273
    22  H    2.163068   2.837482   3.409695   4.243044   4.274021
    23  H    1.095502   2.143171   2.769896   3.767565   2.548368
    24  H    1.096626   2.161328   3.467800   4.302891   3.878305
    25  H    2.165977   1.095585   2.156286   2.486251   2.615554
    26  H    2.169426   1.098135   2.161045   2.474496   3.356975
    27  H    4.759790   4.422862   3.351183   3.640080   2.034741
                   16         17         18         19         20
    16  C    0.000000
    17  H    3.477253   0.000000
    18  H    4.059142   2.297228   0.000000
    19  H    3.022261   4.301042   3.284244   0.000000
    20  H    4.388341   4.418057   2.588519   1.771041   0.000000
    21  H    5.115796   6.497422   4.877667   2.482161   2.520587
    22  H    5.263406   6.106785   4.208836   3.068314   2.466941
    23  H    3.708834   6.242972   5.313620   2.682912   3.835196
    24  H    5.136377   7.214577   5.876714   3.837363   4.320262
    25  H    3.815410   6.128241   5.434537   4.163531   4.977686
    26  H    4.474375   5.798327   4.554548   4.011187   4.155590
    27  H    1.093252   4.209600   5.027733   3.645213   5.189806
                   21         22         23         24         25
    21  H    0.000000
    22  H    1.765070   0.000000
    23  H    2.463991   3.062760   0.000000
    24  H    2.529450   2.465032   1.765823   0.000000
    25  H    4.310709   3.834109   2.452273   2.505258   0.000000
    26  H    3.835059   2.687328   3.059180   2.487018   1.769506
    27  H    5.709992   6.104119   4.136721   5.726264   4.460335
                   26         27
    26  H    0.000000
    27  H    5.373160   0.000000
 Symmetry turned off by external request.
 Stoichiometry    C9H13N3O2
 Framework group  C1[X(C9H13N3O2)]
 Deg. of freedom    75
 Full point group                 C1      NOp   1
 Rotational constants (GHZ):           1.6714885           0.4226247           0.3738251
 Standard basis: 6-31G(d) (6D, 7F)
   236 basis functions,   444 primitive gaussians,   236 cartesian basis functions
    52 alpha electrons       52 beta electrons
       nuclear repulsion energy       931.7465522657 Hartrees.
 NAtoms=   27 NActive=   27 NUniq=   27 SFac= 1.00D+00 NAtFMM=   60 NAOKFM=F Big=F
 Integral buffers will be    131072 words long.
 Raffenetti 1 integral format.
 Two-electron integral symmetry is turned off.
 One-electron integrals computed using PRISM.
 NBasis=   236 RedAO= T EigKep=  1.52D-03  NBF=   236
 NBsUse=   236 1.00D-06 EigRej= -1.00D+00 NBFU=   236
 Initial guess from the checkpoint file:  "/home/alexey/tmp/Gau-1156589.chk"
 B after Tr=     0.049109    0.001465   -0.001380
         Rot=    0.999997   -0.001885    0.001623    0.000301 Ang=  -0.29 deg.
 ExpMin= 1.61D-01 ExpMax= 5.48D+03 ExpMxC= 8.25D+02 IAcc=3 IRadAn=         5 AccDes= 0.00D+00
 Harris functional with IExCor=  205 and IRadAn=       5 diagonalized for initial guess.
 HarFok:  IExCor=  205 AccDes= 0.00D+00 IRadAn=         5 IDoV= 1 UseB2=F ITyADJ=14
 ICtDFT=  3500011 ScaDFX=  1.000000  1.000000  1.000000  1.000000
 FoFCou: FMM=F IPFlag=           0 FMFlag=      100000 FMFlg1=           0
         NFxFlg=           0 DoJE=T BraDBF=F KetDBF=T FulRan=T
         wScrn=  0.000000 ICntrl=       500 IOpCl=  0 I1Cent=   200000004 NGrid=           0
         NMat0=    1 NMatS0=      1 NMatT0=    0 NMatD0=    1 NMtDS0=    0 NMtDT0=    0
 Symmetry not used in FoFCou.
 Keep R1 ints in memory in canonical form, NReq=397720213.
 Requested convergence on RMS density matrix=1.00D-08 within 128 cycles.
 Requested convergence on MAX density matrix=1.00D-06.
 Requested convergence on             energy=1.00D-06.
 No special actions if energy rises.
 SCF Done:  E(RHF) =  -661.293845122     A.U. after   15 cycles
            NFock= 15  Conv=0.40D-08     -V/T= 2.0025
 ExpMin= 1.61D-01 ExpMax= 5.48D+03 ExpMxC= 8.25D+02 IAcc=3 IRadAn=         5 AccDes= 0.00D+00
 HarFok:  IExCor=  205 AccDes= 0.00D+00 IRadAn=         5 IDoV=-2 UseB2=F ITyADJ=14
 ICtDFT= 12500011 ScaDFX=  1.000000  1.000000  1.000000  1.000000
 Range of M.O.s used for correlation:    15   236
 NBasis=   236 NAE=    52 NBE=    52 NFC=    14 NFV=     0
 NROrb=    222 NOA=    38 NOB=    38 NVA=   184 NVB=   184
 Fully direct method using O(ONN) memory.
 JobTyp=1 Pass  1:  I=  15 to  52 NPSUse=  4 ParTrn=T ParDer=T DoDerP=T.
 Spin components of T(2) and E(2):
     alpha-alpha T2 =       0.9134508117D-01 E2=     -0.2724396816D+00
     alpha-beta  T2 =       0.4929643863D+00 E2=     -0.1489813314D+01
     beta-beta   T2 =       0.9134508117D-01 E2=     -0.2724396816D+00
 ANorm=    0.1294470760D+01
 E2 =    -0.2034692677D+01 EUMP2 =    -0.66332853779889D+03
          IDoAtm=111111111111111111111111111
          Differentiating once with respect to electric field.
                with respect to dipole field.
          Differentiating once with respect to nuclear coordinates.
 Keep R1 ints in memory in canonical form, NReq=397723379.
          There are     1 degrees of freedom in the 1st order CPHF.  IDoFFX=0 NUNeed=     1.
 LinEq1:  Iter=  0 NonCon=     1 RMS=4.53D-03 Max=9.93D-02 NDo=     1
 AX will form     1 AO Fock derivatives at one time.
 LinEq1:  Iter=  1 NonCon=     1 RMS=1.52D-03 Max=2.60D-02 NDo=     1
 LinEq1:  Iter=  2 NonCon=     1 RMS=6.40D-04 Max=1.69D-02 NDo=     1
 LinEq1:  Iter=  3 NonCon=     1 RMS=2.79D-04 Max=6.69D-03 NDo=     1
 LinEq1:  Iter=  4 NonCon=     1 RMS=8.66D-05 Max=1.59D-03 NDo=     1
 LinEq1:  Iter=  5 NonCon=     1 RMS=3.53D-05 Max=1.45D-03 NDo=     1
 LinEq1:  Iter=  6 NonCon=     1 RMS=1.39D-05 Max=5.02D-04 NDo=     1
 LinEq1:  Iter=  7 NonCon=     1 RMS=5.43D-06 Max=9.11D-05 NDo=     1
 LinEq1:  Iter=  8 NonCon=     1 RMS=2.19D-06 Max=5.18D-05 NDo=     1
 LinEq1:  Iter=  9 NonCon=     1 RMS=8.13D-07 Max=1.65D-05 NDo=     1
 LinEq1:  Iter= 10 NonCon=     1 RMS=4.20D-07 Max=1.81D-05 NDo=     1
[...]
    27  H    4.733641   4.420503   3.355715   3.645313   2.032083
                   16         17         18         19         20
    16  C    0.000000
    17  H    3.464778   0.000000
    18  H    4.098691   2.240078   0.000000
    19  H    2.994578   4.253388   3.516374   0.000000
    20  H    4.379458   4.400104   2.884046   1.768359   0.000000
    21  H    5.098306   6.475050   5.088460   2.499508   2.520964
    22  H    5.249586   6.088395   4.313173   3.070331   2.461678
    23  H    3.693228   6.222358   5.424847   2.704490   3.843050
    24  H    5.131630   7.201011   5.938250   3.849714   4.317121
    25  H    3.818156   6.120890   5.371575   4.172133   4.984906
    26  H    4.491288   5.812344   4.482017   4.033637   4.179298
    27  H    1.092054   4.206336   5.096407   3.606045   5.168769
                   21         22         23         24         25
    21  H    0.000000
    22  H    1.758873   0.000000
    23  H    2.469765   3.062335   0.000000
    24  H    2.517395   2.459755   1.764544   0.000000
    25  H    4.311945   3.838262   2.445003   2.519061   0.000000
    26  H    3.845254   2.702020   3.060569   2.492706   1.768035
    27  H    5.672431   6.074614   4.101314   5.702856   4.452310
                   26         27
    26  H    0.000000
    27  H    5.378782   0.000000
 Symmetry turned off by external request.
 Stoichiometry    C9H13N3O2
 Framework group  C1[X(C9H13N3O2)]
 Deg. of freedom    75
 Full point group                 C1      NOp   1
 Rotational constants (GHZ):           1.6601043           0.4223602           0.3748279

 **********************************************************************

            Population analysis using the SCF Density.

 **********************************************************************

 Alpha  occ. eigenvalues --  -20.59606 -20.59444 -15.84607 -15.63854 -15.56092
 Alpha  occ. eigenvalues --  -11.34965 -11.29864 -11.29526 -11.28517 -11.27099
 Alpha  occ. eigenvalues --  -11.23633 -11.23139 -11.22641 -11.22037  -1.57187
 Alpha  occ. eigenvalues --   -1.36888  -1.30775  -1.23111  -1.14735  -1.09865
 Alpha  occ. eigenvalues --   -1.02733  -1.01230  -0.94539  -0.89676  -0.85479
 Alpha  occ. eigenvalues --   -0.82549  -0.78513  -0.77583  -0.75173  -0.72014
 Alpha  occ. eigenvalues --   -0.70295  -0.68898  -0.67339  -0.65071  -0.63638
 Alpha  occ. eigenvalues --   -0.62434  -0.60259  -0.57643  -0.56932  -0.55096
 Alpha  occ. eigenvalues --   -0.54581  -0.50731  -0.50371  -0.48746  -0.48090
 Alpha  occ. eigenvalues --   -0.47636  -0.46193  -0.46000  -0.43577  -0.41672
 Alpha  occ. eigenvalues --   -0.39951  -0.33583
 Alpha virt. eigenvalues --    0.07762   0.11469   0.17331   0.21715   0.23917
 Alpha virt. eigenvalues --    0.25336   0.26857   0.28375   0.29075   0.29451
 Alpha virt. eigenvalues --    0.30003   0.31647   0.32022   0.32777   0.33900
 Alpha virt. eigenvalues --    0.34370   0.35794   0.37386   0.38650   0.40364
 Alpha virt. eigenvalues --    0.41595   0.42381   0.44953   0.45980   0.46786
 Alpha virt. eigenvalues --    0.47820   0.48544   0.53640   0.57521   0.58702
 Alpha virt. eigenvalues --    0.63119   0.69503   0.69869   0.72949   0.74239
 Alpha virt. eigenvalues --    0.75082   0.75795   0.76749   0.78733   0.79247
 Alpha virt. eigenvalues --    0.81500   0.84444   0.85414   0.85889   0.88606
 Alpha virt. eigenvalues --    0.89392   0.91032   0.91602   0.92701   0.94279
 Alpha virt. eigenvalues --    0.95381   0.98001   0.99328   1.01824   1.01878
 Alpha virt. eigenvalues --    1.03928   1.05869   1.06632   1.07986   1.08525
 Alpha virt. eigenvalues --    1.10814   1.11190   1.11821   1.12039   1.13876
 Alpha virt. eigenvalues --    1.14511   1.14977   1.15805   1.16394   1.18278
 Alpha virt. eigenvalues --    1.18557   1.20004   1.21189   1.22183   1.23510
 Alpha virt. eigenvalues --    1.24335   1.24898   1.26169   1.28121   1.29424
 Alpha virt. eigenvalues --    1.31698   1.34067   1.36610   1.37350   1.38130
 Alpha virt. eigenvalues --    1.39950   1.43052   1.44417   1.50633   1.52875
 Alpha virt. eigenvalues --    1.55477   1.57245   1.60935   1.63122   1.65778
 Alpha virt. eigenvalues --    1.68359   1.69656   1.73939   1.75179   1.75816
 Alpha virt. eigenvalues --    1.78322   1.82707   1.86540   1.90156   1.92202
 Alpha virt. eigenvalues --    1.92786   1.96101   1.99313   2.01535   2.02686
 Alpha virt. eigenvalues --    2.04898   2.05106   2.07709   2.10227   2.13971
 Alpha virt. eigenvalues --    2.15077   2.15334   2.19644   2.20490   2.21198
 Alpha virt. eigenvalues --    2.22651   2.24955   2.25840   2.28182   2.29723
 Alpha virt. eigenvalues --    2.31859   2.33335   2.33861   2.36999   2.37838
 Alpha virt. eigenvalues --    2.39386   2.40131   2.43189   2.45219   2.47384
 Alpha virt. eigenvalues --    2.50506   2.52654   2.53968   2.55257   2.62448
 Alpha virt. eigenvalues --    2.62663   2.65199   2.67107   2.70494   2.71689
 Alpha virt. eigenvalues --    2.71888   2.72575   2.75397   2.78117   2.84608
 Alpha virt. eigenvalues --    2.87787   2.89411   2.92151   2.95572   2.96866
 Alpha virt. eigenvalues --    3.00166   3.00813   3.02943   3.05197   3.08406
 Alpha virt. eigenvalues --    3.09345   3.15523   3.20293   3.21590   3.26089
 Alpha virt. eigenvalues --    3.32459   3.36728   3.38837   3.49351   3.64638
 Alpha virt. eigenvalues --    4.09872   4.23590   4.26540   4.36804   4.46789
 Alpha virt. eigenvalues --    4.56029   4.62103   4.63405   4.73617   4.78407
 Alpha virt. eigenvalues --    4.99023   5.00942   5.05001   5.11196
          Condensed to atoms (all electrons):
               1          2          3          4          5          6
     1  O    8.329873   0.298063  -0.077450  -0.089163   0.007340   0.000517
     2  N    0.298063   5.781524   0.298501   0.241845  -0.050756   0.001424
     3  O   -0.077450   0.298501   8.305341  -0.084255   0.003913  -0.000024
     4  C   -0.089163   0.241845  -0.084255   5.247069   0.557929  -0.048566
     5  C    0.007340  -0.050756   0.003913   0.557929   4.683112   0.320783
     6  N    0.000517   0.001424  -0.000024  -0.048566   0.320783   7.193190
     7  C   -0.000003  -0.000120   0.000005   0.005039  -0.031351   0.173191
     8  H   -0.000000   0.000002  -0.000000  -0.000269   0.003316  -0.050111
     9  C   -0.000000  -0.000005  -0.000000   0.000861   0.000632  -0.063035
    10  C    0.000000   0.000000   0.000000  -0.000043  -0.000056   0.003795
    11  C   -0.000000  -0.000000  -0.000000  -0.000026   0.000026  -0.000188
    12  C    0.000000   0.000002  -0.000000  -0.000139  -0.000185   0.003820
    13  C   -0.000000  -0.000049  -0.000029  -0.011618  -0.000769  -0.047840
    14  H    0.000001  -0.000093  -0.000009   0.002438   0.005556  -0.006627
    15  N   -0.000034   0.002619   0.000177  -0.066894  -0.005484   0.002062
    16  C    0.001700  -0.024378   0.002272   0.319465  -0.041968  -0.002483
    17  H    0.011845  -0.004922   0.000121  -0.029192   0.381218  -0.033665
    18  H    0.000008  -0.000061   0.000001   0.001709  -0.029891   0.337881
    19  H    0.000000  -0.000005   0.000000  -0.001383   0.001241  -0.000334
    20  H    0.000000  -0.000000   0.000000  -0.000074   0.000134  -0.000240
    21  H   -0.000000   0.000000   0.000000   0.000001   0.000001  -0.000079
    22  H    0.000000   0.000000  -0.000000  -0.000000  -0.000003  -0.000115
    23  H    0.000000  -0.000000  -0.000000   0.000040  -0.000001  -0.000030
    24  H    0.000000   0.000000   0.000000   0.000000  -0.000000   0.000006
    25  H    0.000000  -0.000000   0.000000   0.000023  -0.000000  -0.000089
    26  H    0.000000  -0.000000  -0.000000   0.000007  -0.000003  -0.000059
    27  H    0.000001  -0.000256   0.004496  -0.072754   0.002323   0.000030
               7          8          9         10         11         12
     1  O   -0.000003  -0.000000  -0.000000   0.000000  -0.000000   0.000000
     2  N   -0.000120   0.000002  -0.000005   0.000000  -0.000000   0.000002
     3  O    0.000005  -0.000000  -0.000000   0.000000  -0.000000  -0.000000
     4  C    0.005039  -0.000269   0.000861  -0.000043  -0.000026  -0.000139
     5  C   -0.031351   0.003316   0.000632  -0.000056   0.000026  -0.000185
     6  N    0.173191  -0.050111  -0.063035   0.003795  -0.000188   0.003820
     7  C    5.019223   0.417868   0.351608  -0.054669  -0.008995  -0.060640
     8  H    0.417868   0.538106  -0.054769   0.000664  -0.000303  -0.002368
     9  C    0.351608  -0.054769   5.157431   0.324930  -0.050461  -0.005198
    10  C   -0.054669   0.000664   0.324930   5.119189   0.336981  -0.061180
    11  C   -0.008995  -0.000303  -0.050461   0.336981   5.120127   0.335997
    12  C   -0.060640  -0.002368  -0.005198  -0.061180   0.335997   5.118713
    13  C    0.336151  -0.037579  -0.061342  -0.000066  -0.050912   0.371245
    14  H   -0.046767  -0.000764   0.004425  -0.000402   0.004187  -0.036154
    15  N   -0.057712   0.003808  -0.013995   0.001571  -0.013160  -0.081895
    16  C   -0.002875   0.000049  -0.001311  -0.000035   0.000016   0.002920
    17  H    0.001867  -0.000060  -0.000065   0.000001   0.000000   0.000000
    18  H   -0.021502  -0.004571   0.001396  -0.000084   0.000004  -0.000113
    19  H   -0.037046   0.004347   0.390535  -0.032237  -0.002213   0.000680
    20  H   -0.042498  -0.002039   0.399501  -0.035269   0.003930  -0.000417
    21  H    0.004601  -0.000076  -0.036344   0.402355  -0.034948   0.004368
    22  H   -0.004870   0.003567  -0.046938   0.397742  -0.045395  -0.001059
    23  H    0.000569   0.000035  -0.001952  -0.039027   0.399255  -0.037912
    24  H   -0.000132  -0.000104   0.004388  -0.038432   0.402351  -0.038691
    25  H    0.005136  -0.000021  -0.000428   0.004198  -0.033429   0.398393
    26  H   -0.003952   0.001678   0.000980  -0.002259  -0.041450   0.396717
    27  H   -0.000428   0.000009  -0.000060   0.000007   0.000012  -0.000043
              13         14         15         16         17         18
     1  O   -0.000000   0.000001  -0.000034   0.001700   0.011845   0.000008
     2  N   -0.000049  -0.000093   0.002619  -0.024378  -0.004922  -0.000061
     3  O   -0.000029  -0.000009   0.000177   0.002272   0.000121   0.000001
     4  C   -0.011618   0.002438  -0.066894   0.319465  -0.029192   0.001709
     5  C   -0.000769   0.005556  -0.005484  -0.041968   0.381218  -0.029891
     6  N   -0.047840  -0.006627   0.002062  -0.002483  -0.033665   0.337881
     7  C    0.336151  -0.046767  -0.057712  -0.002875   0.001867  -0.021502
     8  H   -0.037579  -0.000764   0.003808   0.000049  -0.000060  -0.004571
     9  C   -0.061342   0.004425  -0.013995  -0.001311  -0.000065   0.001396
    10  C   -0.000066  -0.000402   0.001571  -0.000035   0.000001  -0.000084
    11  C   -0.050912   0.004187  -0.013160   0.000016   0.000000   0.000004
    12  C    0.371245  -0.036154  -0.081895   0.002920   0.000000  -0.000113
    13  C    5.040466   0.403929   0.249148  -0.072130  -0.000053   0.002918
    14  H    0.403929   0.525627  -0.037876  -0.004529   0.000083  -0.000119
    15  N    0.249148  -0.037876   6.953054   0.593507  -0.000047  -0.000136
    16  C   -0.072130  -0.004529   0.593507   4.698354   0.002082  -0.000189
    17  H   -0.000053   0.000083  -0.000047   0.002082   0.392949  -0.002982
    18  H    0.002918  -0.000119  -0.000136  -0.000189  -0.002982   0.311203
    19  H   -0.007421   0.000106   0.007468   0.003037   0.000016  -0.000152
    20  H    0.004374  -0.000066   0.000123  -0.000035   0.000000   0.000784
    21  H   -0.000446   0.000010  -0.000043   0.000003  -0.000000   0.000001
    22  H    0.000061  -0.000054   0.000019  -0.000002   0.000000   0.000001
    23  H   -0.007510   0.000003   0.008508   0.000102   0.000000   0.000000
    24  H    0.004707  -0.000057   0.000131   0.000007   0.000000  -0.000000
    25  H   -0.035614  -0.002840   0.000402  -0.000016  -0.000000   0.000002
    26  H   -0.047325  -0.001022   0.004872  -0.000069   0.000000  -0.000000
    27  H    0.005303  -0.000167  -0.038459   0.406495  -0.000085   0.000001
              19         20         21         22         23         24
     1  O    0.000000   0.000000  -0.000000   0.000000   0.000000   0.000000
     2  N   -0.000005  -0.000000   0.000000   0.000000  -0.000000   0.000000
     3  O    0.000000   0.000000   0.000000  -0.000000  -0.000000   0.000000
     4  C   -0.001383  -0.000074   0.000001  -0.000000   0.000040   0.000000
     5  C    0.001241   0.000134   0.000001  -0.000003  -0.000001  -0.000000
     6  N   -0.000334  -0.000240  -0.000079  -0.000115  -0.000030   0.000006
     7  C   -0.037046  -0.042498   0.004601  -0.004870   0.000569  -0.000132
     8  H    0.004347  -0.002039  -0.000076   0.003567   0.000035  -0.000104
     9  C    0.390535   0.399501  -0.036344  -0.046938  -0.001952   0.004388
    10  C   -0.032237  -0.035269   0.402355   0.397742  -0.039027  -0.038432
    11  C   -0.002213   0.003930  -0.034948  -0.045395   0.399255   0.402351
    12  C    0.000680  -0.000417   0.004368  -0.001059  -0.037912  -0.038691
    13  C   -0.007421   0.004374  -0.000446   0.000061  -0.007510   0.004707
    14  H    0.000106  -0.000066   0.000010  -0.000054   0.000003  -0.000057
    15  N    0.007468   0.000123  -0.000043   0.000019   0.008508   0.000131
    16  C    0.003037  -0.000035   0.000003  -0.000002   0.000102   0.000007
    17  H    0.000016   0.000000  -0.000000   0.000000   0.000000   0.000000
    18  H   -0.000152   0.000784   0.000001   0.000001   0.000000  -0.000000
    19  H    0.505655  -0.024715  -0.002786   0.003968   0.001515  -0.000067
    20  H   -0.024715   0.540752  -0.002715  -0.002981  -0.000046  -0.000083
    21  H   -0.002786  -0.002715   0.524511  -0.027445  -0.002899  -0.002248
    22  H    0.003968  -0.002981  -0.027445   0.571546   0.004139  -0.003654
    23  H    0.001515  -0.000046  -0.002899   0.004139   0.499327  -0.025499
    24  H   -0.000067  -0.000083  -0.002248  -0.003654  -0.025499   0.538401
    25  H   -0.000029   0.000012  -0.000087  -0.000081  -0.002305  -0.002306
    26  H    0.000020  -0.000030  -0.000080   0.002384   0.004067  -0.003023
    27  H    0.000096   0.000000  -0.000000   0.000000  -0.000035  -0.000000
              25         26         27
     1  O    0.000000   0.000000   0.000001
     2  N   -0.000000  -0.000000  -0.000256
     3  O    0.000000  -0.000000   0.004496
     4  C    0.000023   0.000007  -0.072754
     5  C   -0.000000  -0.000003   0.002323
     6  N   -0.000089  -0.000059   0.000030
     7  C    0.005136  -0.003952  -0.000428
     8  H   -0.000021   0.001678   0.000009
     9  C   -0.000428   0.000980  -0.000060
    10  C    0.004198  -0.002259   0.000007
    11  C   -0.033429  -0.041450   0.000012
    12  C    0.398393   0.396717  -0.000043
    13  C   -0.035614  -0.047325   0.005303
    14  H   -0.002840  -0.001022  -0.000167
    15  N    0.000402   0.004872  -0.038459
    16  C   -0.000016  -0.000069   0.406495
    17  H   -0.000000   0.000000  -0.000085
    18  H    0.000002  -0.000000   0.000001
    19  H   -0.000029   0.000020   0.000096
    20  H    0.000012  -0.000030   0.000000
    21  H   -0.000087  -0.000080  -0.000000
    22  H   -0.000081   0.002384   0.000000
    23  H   -0.002305   0.004067  -0.000035
    24  H   -0.002306  -0.003023  -0.000000
    25  H    0.506110  -0.024093  -0.000013
    26  H   -0.024093   0.562366   0.000001
    27  H   -0.000013   0.000001   0.456033
 Mulliken charges:
               1
     1  O   -0.482698
     2  N    0.456666
     3  O   -0.453060
     4  C    0.027950
     5  C    0.192940
     6  N   -0.783214
     7  C    0.058300
     8  H    0.179586
     9  C   -0.300784
    10  C   -0.327673
    11  C   -0.321406
    12  C   -0.306862
    13  C   -0.037598
    14  H    0.191181
    15  N   -0.511734
    16  C    0.120013
    17  H    0.280889
    18  H    0.403891
    19  H    0.189701
    20  H    0.161595
    21  H    0.174346
    22  H    0.149169
    23  H    0.199655
    24  H    0.164307
    25  H    0.187072
    26  H    0.150276
    27  H    0.237494
 Sum of Mulliken charges =  -0.00000
 Mulliken charges with hydrogens summed into heavy atoms:
               1
     1  O   -0.482698
     2  N    0.456666
     3  O   -0.453060
     4  C    0.027950
     5  C    0.473829
     6  N   -0.379323
     7  C    0.237886
     9  C    0.050511
    10  C   -0.004158
    11  C    0.042555
    12  C    0.030486
    13  C    0.153583
    15  N   -0.511734
    16  C    0.357506
 Electronic spatial extent (au):  <R**2>=           2990.7675
 Charge=              0.0000 electrons
 Dipole moment (field-independent basis, Debye):
    X=              5.1511    Y=              4.8682    Z=              1.1257  Tot=              7.1764
 Quadrupole moment (field-independent basis, Debye-Ang):
   XX=           -104.5395   YY=            -78.4104   ZZ=            -82.8487
   XY=             -2.1356   XZ=             -1.4987   YZ=              3.8994
 Traceless Quadrupole moment (field-independent basis, Debye-Ang):
   XX=            -15.9400   YY=             10.1891   ZZ=              5.7509
   XY=             -2.1356   XZ=             -1.4987   YZ=              3.8994
 Octapole moment (field-independent basis, Debye-Ang**2):
  XXX=             82.3387  YYY=             37.3966  ZZZ=             -0.9163  XYY=             -7.1809
  XXY=             12.6406  XXZ=             11.5452  XZZ=             -6.4108  YZZ=             -2.1384
  YYZ=              3.3304  XYZ=             -7.9995
 Hexadecapole moment (field-independent basis, Debye-Ang**3):
 XXXX=          -3312.3284 YYYY=           -582.1837 ZZZZ=           -326.2540 XXXY=            -37.3055
 XXXZ=            -66.6053 YYYX=             -7.4282 YYYZ=             56.3390 ZZZX=            -23.3061
 ZZZY=             40.5094 XXYY=           -614.0669 XXZZ=           -535.0841 YYZZ=           -162.2185
 XXYZ=             39.0595 YYXZ=             -0.2937 ZZXY=              6.1454
 N-N= 9.314985045819D+02 E-N=-3.409691891384D+03  KE= 6.596205285933D+02
 Unable to Open any file for archive entry.
 1\1\GINC-LOTUS\FOpt\RMP2-FC\6-31G(d)\C9H13N3O2\ALEXEY\30-Jun-2023\0\\#
 MP2/6-31G* SCF=Tight Opt=(ModRedun, MaxCycle=20 ) NoSymm\\MolName:\\0,
 1\O,-3.7938232448,0.6573957733,-0.6874527591\N,-3.1039217214,-0.233647
 1101,-0.1528122612\O,-3.5448451438,-1.3468884301,0.1982549378\C,-1.680
 6521546,-0.0225373039,0.0297846208\C,-1.3002187293,1.286405567,0.16171
 42154\N,-0.0565510184,1.7833114642,0.2631617569\C,1.2027838815,1.05214
 11598,0.293446472\H,1.8578795944,1.6407094299,0.9530592545\C,1.8935237
 913,0.9388982681,-1.06466085\C,3.2941808917,0.3499704893,-0.8608652472
 \C,3.2544347521,-0.9830635332,-0.1091322323\C,2.4733078993,-0.87367573
 52,1.2019354679\C,1.0595009323,-0.3474991422,0.928750133\H,0.490944031
 6,-0.2423971031,1.8661852887\N,0.40674766,-1.3296001512,0.0678641689\C
 ,-0.8438683188,-1.1757832515,-0.2248204397\H,-2.0934620541,2.029461960
 1,0.1870120792\H,0.0040522586,2.7838122639,0.409137203\H,1.2921636477,
 0.2983206849,-1.7187688137\H,1.9541248619,1.9278532645,-1.5356693194\H
 ,3.7880232617,0.2235140206,-1.8311434994\H,3.899817639,1.0716085748,-0
 .294305446\H,2.7703124551,-1.74077796,-0.7331640538\H,4.2758262555,-1.
 3287022505,0.0897802521\H,2.3945881829,-1.8555716548,1.6800689835\H,2.
 9891606373,-0.205857763,1.9056251742\H,-1.3230202486,-1.9944015314,-0.
 7659850861\\Version=ES64L-G16RevC.02\HF=-661.2952805\MP2=-663.331858\R
 MSD=8.477e-09\RMSF=1.182e-03\Dipole=1.8994928,1.7227256,0.4065016\PG=C
 01 [X(C9H13N3O2)]\\@
 The archive entry for this job was punched.


 SIC AS THE CAWSE OF EWERY THING IS, SIC WILBE THE EFFECT.
 -- PROVERBS AND REASONS OF THE YEAR 1585
           AS REPRINTED IN PAISLEY MAGAZINE 1828.
 Job cpu time:       0 days  1 hours 22 minutes 55.3 seconds.
 Elapsed time:       0 days  0 hours 24 minutes 51.0 seconds.
 File lengths (MBytes):  RWF=     36 Int=      0 D2E=      0 Chk=      7 Scr=      1
 Normal termination of Gaussian 16 at Fri Jun 30 14:31:10 2023.
