 Entering Gaussian System, Link 0=g16
 Initial command:
 /home/alexey/programs//g16/l1.exe "/home/alexey/tmp/Gau-1083373.inp" -scrdir="/home/alexey/tmp/"
 Entering Link 1 = /home/alexey/programs//g16/l1.exe PID=   1083375.
  
 Copyright (c) 1988-2021, Gaussian, Inc.  All Rights Reserved.
  
 This is part of the Gaussian(R) 16 program.  It is based on
 the Gaussian(R) 09 system (copyright 2009, Gaussian, Inc.),
 the Gaussian(R) 03 system (copyright 2003, Gaussian, Inc.),
 the Gaussian(R) 98 system (copyright 1998, Gaussian, Inc.),
 the Gaussian(R) 94 system (copyright 1995, Gaussian, Inc.),
 the Gaussian 92(TM) system (copyright 1992, Gaussian, Inc.),
 the Gaussian 90(TM) system (copyright 1990, Gaussian, Inc.),
 the Gaussian 88(TM) system (copyright 1988, Gaussian, Inc.),
 the Gaussian 86(TM) system (copyright 1986, Carnegie Mellon
 University), and the Gaussian 82(TM) system (copyright 1983,
 Carnegie Mellon University). Gaussian is a federally registered
 trademark of Gaussian, Inc.
  
 This software contains proprietary and confidential information,
 including trade secrets, belonging to Gaussian, Inc.
  
 This software is provided under written license and may be
 used, copied, transmitted, or stored only in accord with that
 written license.
  
 The following legend is applicable only to US Government
 contracts under FAR:
  
                    RESTRICTED RIGHTS LEGEND
  
 Use, reproduction and disclosure by the US Government is
 subject to restrictions as set forth in subparagraphs (a)
 and (c) of the Commercial Computer Software - Restricted
 Rights clause in FAR 52.227-19.
  
 Gaussian, Inc.
 340 Quinnipiac St., Bldg. 40, Wallingford CT 06492
  
  
 ---------------------------------------------------------------
 Warning -- This program may not be used in any manner that
 competes with the business of Gaussian, Inc. or will provide
 assistance to any competitor of Gaussian, Inc.  The licensee
 of this program is prohibited from giving any competitor of
 Gaussian, Inc. access to this program.  By using this program,
 the user acknowledges that Gaussian, Inc. is engaged in the
 business of creating and licensing software in the field of
 computational chemistry and represents and warrants to the
 licensee that it is not a competitor of Gaussian, Inc. and that
 it will not use this program in any manner prohibited above.
 ---------------------------------------------------------------
  

 Cite this work as:
 Gaussian 16, Revision C.02,
 M. J. Frisch, G. W. Trucks, H. B. Schlegel, G. E. Scuseria, 
 M. A. Robb, J. R. Cheeseman, G. Scalmani, V. Barone, 
 G. A. Petersson, H. Nakatsuji, X. Li, M. Caricato, A. V. Marenich, 
 J. Bloino, B. G. Janesko, R. Gomperts, B. Mennucci, H. P. Hratchian, 
 J. V. Ortiz, A. F. Izmaylov, J. L. Sonnenberg, D. Williams-Young, 
 F. Ding, F. Lipparini, F. Egidi, J. Goings, B. Peng, A. Petrone, 
 T. Henderson, D. Ranasinghe, V. G. Zakrzewski, J. Gao, N. Rega, 
 G. Zheng, W. Liang, M. Hada, M. Ehara, K. Toyota, R. Fukuda, 
 J. Hasegawa, M. Ishida, T. Nakajima, Y. Honda, O. Kitao, H. Nakai, 
 T. Vreven, K. Throssell, J. A. Montgomery, Jr., J. E. Peralta, 
 F. Ogliaro, M. J. Bearpark, J. J. Heyd, E. N. Brothers, K. N. Kudin, 
 V. N. Staroverov, T. A. Keith, R. Kobayashi, J. Normand, 
 K. Raghavachari, A. P. Rendell, J. C. Burant, S. S. Iyengar, 
 J. Tomasi, M. Cossi, J. M. Millam, M. Klene, C. Adamo, R. Cammi, 
 J. W. Ochterski, R. L. Martin, K. Morokuma, O. Farkas, 
 J. B. Foresman, and D. J. Fox, Gaussian, Inc., Wallingford CT, 2019.
 
 ******************************************
 Gaussian 16:  ES64L-G16RevC.02  7-Dec-2021
                30-Jun-2023 
 ******************************************
 %mem=8GB
 %NPROCS=4
 Will use up to    4 processors via shared memory.
 %NoSave
 ---------------------------------------------------------
 #MP2/6-31G* SCF=Tight Opt=(ModRedun, MaxCycle=20 ) NoSymm
 ---------------------------------------------------------
 1/6=20,18=120,19=15,38=1/1,3;
 2/9=110,12=2,15=1,17=6,18=5,40=1/2;
 3/5=1,6=6,7=1,11=9,25=1,30=1,71=1/1,2,3;
 4//1;
 5/5=2,32=2,38=5/2;
 8/6=4,10=2/1;
 9/15=2,16=-3/6;
 10/5=1,31=1/2;
 6/7=2,8=2,9=2,10=2/1;
 7/12=2,30=1/1,2,3,16;
 1/6=20,18=20,19=15/3(2);
 2/9=110,15=1/2;
 99//99;
 2/9=110,15=1/2;
 3/5=1,6=6,7=1,11=9,25=1,30=1,71=1/1,2,3;
 4/5=5,16=3,69=1/1;
 5/5=2,32=2,38=5/2;
 8/6=4,10=2/1;
 9/15=2,16=-3/6;
 10/5=1,31=1/2;
 7/12=2,30=1/1,2,3,16;
 1/6=20,18=20,19=15/3(-8);
 2/9=110,15=1/2;
 6/7=2,8=2,9=2,10=2/1;
 99/9=10/99;
 --------
 MolName:
 --------
 Symbolic Z-matrix:
 Charge =  0 Multiplicity = 1
 8                    0    -3.85596   0.01828   0.92491 
 7                    0    -3.21456  -0.24507  -0.09093 
 8                    0    -3.67468  -0.72856  -1.12278 
 6                    0    -1.7402    0.00917  -0.05746 
 6                    0    -1.37541   1.29343   0.34455 
 7                    0    -0.09021   1.73471   0.52096 
 6                    0     1.18945   0.96517   0.43296 
 1                    0     1.85553   1.40874   1.21776 
 6                    0     1.9482    1.1128   -0.90951 
 6                    0     3.36213   0.51748  -0.76787 
 6                    0     3.30574  -0.93706  -0.27475 
 6                    0     2.46325  -1.06365   1.01274 
 6                    0     1.02381  -0.51692   0.80841 
 1                    0     0.4785   -0.62432   1.77538 
 7                    0     0.36595  -1.32248  -0.22547 
 6                    0    -0.87755  -1.10767  -0.50394 
 1                    0    -2.17824   2.009     0.58998 
 1                    0     0.14409   2.72756   0.4465 
 1                    0     1.39623   0.59062  -1.71985 
 1                    0     2.03086   2.1851   -1.18697 
 1                    0     3.89258   0.56361  -1.74412 
 1                    0     3.94097   1.1222   -0.03445 
 1                    0     2.85698  -1.57271  -1.07119 
 1                    0     4.33547  -1.31268  -0.08815 
 1                    0     2.4096   -2.13355   1.31132 
 1                    0     2.95844  -0.50703   1.83579 
 1                    0    -1.39196  -1.82418  -1.16282 
 
 The following ModRedundant input section has been read:
 D       1       2       4      16 F                                           
 D       7      13      15      16 F                                           
 D       7       9      10      11 F                                           
 D       9      10      11      12 F                                           
 D       6       7      13      15 F                                           
 

 GradGradGradGradGradGradGradGradGradGradGradGradGradGradGradGradGradGrad
 Berny optimization.
 Initialization pass.
                           ----------------------------
                           !    Initial Parameters    !
                           ! (Angstroms and Degrees)  !
 --------------------------                            --------------------------
 ! Name  Definition              Value          Derivative Info.                !
 --------------------------------------------------------------------------------
 ! R1    R(1,2)                  1.2299         estimate D2E/DX2                !
 ! R2    R(2,3)                  1.2289         estimate D2E/DX2                !
 ! R3    R(2,4)                  1.4965         estimate D2E/DX2                !
 ! R4    R(4,5)                  1.3943         estimate D2E/DX2                !
 ! R5    R(4,16)                 1.4801         estimate D2E/DX2                !
 ! R6    R(5,6)                  1.3703         estimate D2E/DX2                !
 ! R7    R(5,17)                 1.1031         estimate D2E/DX2                !
 ! R8    R(6,7)                  1.4958         estimate D2E/DX2                !
 ! R9    R(6,18)                 1.0228         estimate D2E/DX2                !
 ! R10   R(7,8)                  1.1209         estimate D2E/DX2                !
 ! R11   R(7,9)                  1.5491         estimate D2E/DX2                !
 ! R12   R(7,13)                 1.5379         estimate D2E/DX2                !
 ! R13   R(9,10)                 1.5407         estimate D2E/DX2                !
 ! R14   R(9,19)                 1.1109         estimate D2E/DX2                !
 ! R15   R(9,20)                 1.1107         estimate D2E/DX2                !
 ! R16   R(10,11)                1.5369         estimate D2E/DX2                !
 ! R17   R(10,21)                1.112          estimate D2E/DX2                !
 ! R18   R(10,22)                1.1129         estimate D2E/DX2                !
 ! R19   R(11,12)                1.5438         estimate D2E/DX2                !
 ! R20   R(11,23)                1.1134         estimate D2E/DX2                !
 ! R21   R(11,24)                1.1119         estimate D2E/DX2                !
 ! R22   R(12,13)                1.5533         estimate D2E/DX2                !
 ! R23   R(12,25)                1.1121         estimate D2E/DX2                !
 ! R24   R(12,26)                1.1102         estimate D2E/DX2                !
 ! R25   R(13,14)                1.1153         estimate D2E/DX2                !
 ! R26   R(13,15)                1.4665         estimate D2E/DX2                !
 ! R27   R(15,16)                1.2923         estimate D2E/DX2                !
 ! R28   R(16,27)                1.101          estimate D2E/DX2                !
 ! A1    A(1,2,3)              125.6262         estimate D2E/DX2                !
 ! A2    A(1,2,4)              117.3186         estimate D2E/DX2                !
 ! A3    A(3,2,4)              117.0327         estimate D2E/DX2                !
 ! A4    A(2,4,5)              114.8786         estimate D2E/DX2                !
 ! A5    A(2,4,16)             116.0564         estimate D2E/DX2                !
 ! A6    A(5,4,16)             129.013          estimate D2E/DX2                !
 ! A7    A(4,5,6)              125.3905         estimate D2E/DX2                !
 ! A8    A(4,5,17)             118.115          estimate D2E/DX2                !
 ! A9    A(6,5,17)             116.428          estimate D2E/DX2                !
 ! A10   A(5,6,7)              128.9867         estimate D2E/DX2                !
 ! A11   A(5,6,18)             121.2036         estimate D2E/DX2                !
 ! A12   A(7,6,18)             107.4054         estimate D2E/DX2                !
 ! A13   A(6,7,8)              105.2837         estimate D2E/DX2                !
 ! A14   A(6,7,9)              114.8962         estimate D2E/DX2                !
 ! A15   A(6,7,13)             112.911          estimate D2E/DX2                !
 ! A16   A(8,7,9)              106.1408         estimate D2E/DX2                !
 ! A17   A(8,7,13)             105.9297         estimate D2E/DX2                !
 ! A18   A(9,7,13)             110.8654         estimate D2E/DX2                !
 ! A19   A(7,9,10)             109.4517         estimate D2E/DX2                !
 ! A20   A(7,9,19)             110.1206         estimate D2E/DX2                !
 ! A21   A(7,9,20)             110.1783         estimate D2E/DX2                !
 ! A22   A(10,9,19)            109.9646         estimate D2E/DX2                !
 ! A23   A(10,9,20)            109.13           estimate D2E/DX2                !
 ! A24   A(19,9,20)            107.9732         estimate D2E/DX2                !
 ! A25   A(9,10,11)            111.1938         estimate D2E/DX2                !
 ! A26   A(9,10,21)            109.9401         estimate D2E/DX2                !
 ! A27   A(9,10,22)            109.144          estimate D2E/DX2                !
 ! A28   A(11,10,21)           109.7822         estimate D2E/DX2                !
 ! A29   A(11,10,22)           108.7766         estimate D2E/DX2                !
 ! A30   A(21,10,22)           107.9327         estimate D2E/DX2                !
 ! A31   A(10,11,12)           111.4201         estimate D2E/DX2                !
 ! A32   A(10,11,23)           109.0007         estimate D2E/DX2                !
 ! A33   A(10,11,24)           109.8521         estimate D2E/DX2                !
 ! A34   A(12,11,23)           109.2548         estimate D2E/DX2                !
 ! A35   A(12,11,24)           109.739          estimate D2E/DX2                !
 ! A36   A(23,11,24)           107.4845         estimate D2E/DX2                !
 ! A37   A(11,12,13)           111.54           estimate D2E/DX2                !
 ! A38   A(11,12,25)           109.2154         estimate D2E/DX2                !
 ! A39   A(11,12,26)           109.4964         estimate D2E/DX2                !
 ! A40   A(13,12,25)           109.2232         estimate D2E/DX2                !
 ! A41   A(13,12,26)           109.5367         estimate D2E/DX2                !
 ! A42   A(25,12,26)           107.7485         estimate D2E/DX2                !
 ! A43   A(7,13,12)            105.755          estimate D2E/DX2                !
 ! A44   A(7,13,14)            110.9242         estimate D2E/DX2                !
 ! A45   A(7,13,15)            113.9281         estimate D2E/DX2                !
 ! A46   A(12,13,14)           107.7673         estimate D2E/DX2                !
 ! A47   A(12,13,15)           108.3674         estimate D2E/DX2                !
 ! A48   A(14,13,15)           109.8162         estimate D2E/DX2                !
 ! A49   A(13,15,16)           119.4899         estimate D2E/DX2                !
 ! A50   A(4,16,15)            128.4066         estimate D2E/DX2                !
 ! A51   A(4,16,27)            113.5325         estimate D2E/DX2                !
 ! A52   A(15,16,27)           118.0589         estimate D2E/DX2                !
 ! D1    D(1,2,4,5)            -52.3809         estimate D2E/DX2                !
 ! D2    D(1,2,4,16)           130.0002         Frozen                          !
 ! D3    D(3,2,4,5)            129.2463         estimate D2E/DX2                !
 ! D4    D(3,2,4,16)           -48.3726         estimate D2E/DX2                !
 ! D5    D(2,4,5,6)            176.2684         estimate D2E/DX2                !
 ! D6    D(2,4,5,17)            -0.6528         estimate D2E/DX2                !
 ! D7    D(16,4,5,6)            -6.4849         estimate D2E/DX2                !
 ! D8    D(16,4,5,17)          176.5939         estimate D2E/DX2                !
 ! D9    D(2,4,16,15)         -157.7845         estimate D2E/DX2                !
 ! D10   D(2,4,16,27)           22.7345         estimate D2E/DX2                !
 ! D11   D(5,4,16,15)           24.9959         estimate D2E/DX2                !
 ! D12   D(5,4,16,27)         -154.4851         estimate D2E/DX2                !
 ! D13   D(4,5,6,7)             -4.8811         estimate D2E/DX2                !
 ! D14   D(4,5,6,18)           155.2016         estimate D2E/DX2                !
 ! D15   D(17,5,6,7)           172.0865         estimate D2E/DX2                !
 ! D16   D(17,5,6,18)          -27.8307         estimate D2E/DX2                !
 ! D17   D(5,6,7,8)           -144.3287         estimate D2E/DX2                !
 ! D18   D(5,6,7,9)             99.2774         estimate D2E/DX2                !
 ! D19   D(5,6,7,13)           -29.2173         estimate D2E/DX2                !
 ! D20   D(18,6,7,8)            53.4511         estimate D2E/DX2                !
 ! D21   D(18,6,7,9)           -62.9427         estimate D2E/DX2                !
 ! D22   D(18,6,7,13)          168.5626         estimate D2E/DX2                !
 ! D23   D(6,7,9,10)           168.5607         estimate D2E/DX2                !
 ! D24   D(6,7,9,19)           -70.4399         estimate D2E/DX2                !
 ! D25   D(6,7,9,20)            48.5564         estimate D2E/DX2                !
 ! D26   D(8,7,9,10)            52.6581         estimate D2E/DX2                !
 ! D27   D(8,7,9,19)           173.6575         estimate D2E/DX2                !
 ! D28   D(8,7,9,20)           -67.3462         estimate D2E/DX2                !
 ! D29   D(13,7,9,10)          -61.9297         estimate D2E/DX2                !
 ! D30   D(13,7,9,19)           59.0697         estimate D2E/DX2                !
 ! D31   D(13,7,9,20)          178.066          estimate D2E/DX2                !
 ! D32   D(6,7,13,12)         -166.0709         estimate D2E/DX2                !
 ! D33   D(6,7,13,14)          -49.4992         estimate D2E/DX2                !
 ! D34   D(6,7,13,15)           75.0226         Frozen                          !
 ! D35   D(8,7,13,12)          -51.3479         estimate D2E/DX2                !
 ! D36   D(8,7,13,14)           65.2238         estimate D2E/DX2                !
 ! D37   D(8,7,13,15)         -170.2544         estimate D2E/DX2                !
 ! D38   D(9,7,13,12)           63.372          estimate D2E/DX2                !
 ! D39   D(9,7,13,14)          179.9438         estimate D2E/DX2                !
 ! D40   D(9,7,13,15)          -55.5344         estimate D2E/DX2                !
 ! D41   D(7,9,10,11)           54.8124         Frozen                          !
 ! D42   D(7,9,10,21)          176.6031         estimate D2E/DX2                !
 ! D43   D(7,9,10,22)          -65.1905         estimate D2E/DX2                !
 ! D44   D(19,9,10,11)         -66.2816         estimate D2E/DX2                !
 ! D45   D(19,9,10,21)          55.5092         estimate D2E/DX2                !
 ! D46   D(19,9,10,22)         173.7155         estimate D2E/DX2                !
 ! D47   D(20,9,10,11)         175.4568         estimate D2E/DX2                !
 ! D48   D(20,9,10,21)         -62.7524         estimate D2E/DX2                !
 ! D49   D(20,9,10,22)          55.4539         estimate D2E/DX2                !
 ! D50   D(9,10,11,12)         -52.8227         Frozen                          !
 ! D51   D(9,10,11,23)          67.8236         estimate D2E/DX2                !
 ! D52   D(9,10,11,24)        -174.6498         estimate D2E/DX2                !
 ! D53   D(21,10,11,12)       -174.7053         estimate D2E/DX2                !
 ! D54   D(21,10,11,23)        -54.0591         estimate D2E/DX2                !
 ! D55   D(21,10,11,24)         63.4676         estimate D2E/DX2                !
 ! D56   D(22,10,11,12)         67.3978         estimate D2E/DX2                !
 ! D57   D(22,10,11,23)       -171.956          estimate D2E/DX2                !
 ! D58   D(22,10,11,24)        -54.4293         estimate D2E/DX2                !
 ! D59   D(10,11,12,13)         56.6991         estimate D2E/DX2                !
 ! D60   D(10,11,12,25)        177.5248         estimate D2E/DX2                !
 ! D61   D(10,11,12,26)        -64.7093         estimate D2E/DX2                !
 ! D62   D(23,11,12,13)        -63.7979         estimate D2E/DX2                !
 ! D63   D(23,11,12,25)         57.0278         estimate D2E/DX2                !
 ! D64   D(23,11,12,26)        174.7936         estimate D2E/DX2                !
 ! D65   D(24,11,12,13)        178.5917         estimate D2E/DX2                !
 ! D66   D(24,11,12,25)        -60.5826         estimate D2E/DX2                !
 ! D67   D(24,11,12,26)         57.1833         estimate D2E/DX2                !
 ! D68   D(11,12,13,7)         -60.4804         estimate D2E/DX2                !
 ! D69   D(11,12,13,14)       -179.1698         estimate D2E/DX2                !
 ! D70   D(11,12,13,15)         62.0479         estimate D2E/DX2                !
 ! D71   D(25,12,13,7)         178.6985         estimate D2E/DX2                !
 ! D72   D(25,12,13,14)         60.0091         estimate D2E/DX2                !
 ! D73   D(25,12,13,15)        -58.7732         estimate D2E/DX2                !
 ! D74   D(26,12,13,7)          60.9047         estimate D2E/DX2                !
 ! D75   D(26,12,13,14)        -57.7847         estimate D2E/DX2                !
 ! D76   D(26,12,13,15)       -176.567          estimate D2E/DX2                !
 ! D77   D(7,13,15,16)         -67.1606         Frozen                          !
 ! D78   D(12,13,15,16)        175.4311         estimate D2E/DX2                !
 ! D79   D(14,13,15,16)         57.9528         estimate D2E/DX2                !
 ! D80   D(13,15,16,4)          10.1083         estimate D2E/DX2                !
 ! D81   D(13,15,16,27)       -170.4309         estimate D2E/DX2                !
 --------------------------------------------------------------------------------
 Trust Radius=3.00D-01 FncErr=1.00D-07 GrdErr=1.00D-07 EigMax=2.50D+02 EigMin=1.00D-04
 Number of steps in this run=     20 maximum allowed number of steps=    162.
 GradGradGradGradGradGradGradGradGradGradGradGradGradGradGradGradGradGrad

                          Input orientation:                          
 ---------------------------------------------------------------------
 Center     Atomic      Atomic             Coordinates (Angstroms)
 Number     Number       Type             X           Y           Z
 ---------------------------------------------------------------------
      1          8           0       -3.855960    0.018280    0.924910
      2          7           0       -3.214560   -0.245070   -0.090930
      3          8           0       -3.674680   -0.728560   -1.122780
      4          6           0       -1.740200    0.009170   -0.057460
      5          6           0       -1.375410    1.293430    0.344550
      6          7           0       -0.090210    1.734710    0.520960
      7          6           0        1.189450    0.965170    0.432960
      8          1           0        1.855530    1.408740    1.217760
      9          6           0        1.948200    1.112800   -0.909510
     10          6           0        3.362130    0.517480   -0.767870
     11          6           0        3.305740   -0.937060   -0.274750
     12          6           0        2.463250   -1.063650    1.012740
     13          6           0        1.023810   -0.516920    0.808410
     14          1           0        0.478500   -0.624320    1.775380
     15          7           0        0.365950   -1.322480   -0.225470
     16          6           0       -0.877550   -1.107670   -0.503940
     17          1           0       -2.178240    2.009000    0.589980
     18          1           0        0.144090    2.727560    0.446500
     19          1           0        1.396230    0.590620   -1.719850
     20          1           0        2.030860    2.185100   -1.186970
     21          1           0        3.892580    0.563610   -1.744120
     22          1           0        3.940970    1.122200   -0.034450
     23          1           0        2.856980   -1.572710   -1.071190
     24          1           0        4.335470   -1.312680   -0.088150
     25          1           0        2.409600   -2.133550    1.311320
     26          1           0        2.958440   -0.507030    1.835790
     27          1           0       -1.391960   -1.824180   -1.162820
 ---------------------------------------------------------------------
                    Distance matrix (angstroms):
                    1          2          3          4          5
     1  O    0.000000
     2  N    1.229910   0.000000
     3  O    2.187160   1.228897   0.000000
     4  C    2.332718   1.496494   2.328383   0.000000
     5  C    2.848851   2.437026   3.395312   1.394277   0.000000
     6  N    4.158146   3.749067   4.649517   2.456527   1.370251
     7  C    5.157012   4.597222   5.380410   3.120464   2.587292
     8  H    5.885598   5.491227   6.374120   4.063774   3.348845
     9  C    6.184767   5.400738   5.920546   3.943131   3.556920
    10  C    7.430715   6.655267   7.155087   5.176566   4.927866
    11  C    7.324057   6.559493   7.034834   5.138490   5.222239
    12  C    6.411763   5.841720   6.507451   4.468251   4.553857
    13  C    4.910414   4.341255   5.084299   2.943850   3.041182
    14  H    4.463606   4.155194   5.065481   2.946734   3.026883
    15  N    4.576629   3.741519   4.181459   2.497476   3.193782
    16  C    3.490029   2.525128   2.889745   1.480149   2.594818
    17  H    2.624860   2.572631   3.559089   2.147179   1.103092
    18  H    4.854840   4.517288   5.384274   3.345769   2.091890
    19  H    5.908285   4.960962   5.273600   3.597057   3.526709
    20  H    6.618897   5.884000   6.406772   4.497928   3.839701
    21  H    8.213463   7.341556   7.701895   5.905966   5.713746
    22  H    7.932914   7.285206   7.912515   5.789219   5.332622
    23  H    7.181868   6.291831   6.586185   4.966292   5.303980
    24  H    8.360459   7.625139   8.097787   6.217877   6.292312
    25  H    6.636032   6.096215   6.702037   4.866790   5.196647
    26  H    6.895049   6.472001   7.266395   5.091962   4.924196
    27  H    3.718141   2.639016   2.532350   2.168932   3.462937
                    6          7          8          9         10
     6  N    0.000000
     7  C    1.495816   0.000000
     8  H    2.092293   1.120860   0.000000
     9  C    2.566736   1.549104   2.149755   0.000000
    10  C    3.880900   2.522490   2.647058   1.540671   0.000000
    11  C    4.393630   2.932237   3.135837   2.539244   1.536891
    12  C    3.820056   2.464715   2.554226   2.949111   2.545296
    13  C    2.528538   1.537852   2.137169   2.541994   3.003728
    14  H    2.731670   2.198640   2.518032   3.519409   4.010879
    15  N    3.179882   2.518933   3.429479   2.983624   3.557632
    16  C    3.122411   3.073587   4.094667   3.616606   4.548149
    17  H    2.107099   3.529245   4.126223   4.480977   5.896108
    18  H    1.022835   2.049141   2.294157   2.775072   4.088390
    19  H    2.922272   2.194912   3.083801   1.110853   2.185493
    20  H    2.760220   2.195535   2.533022   1.110695   2.174599
    21  H    4.729131   3.493972   3.692770   2.186046   1.112011
    22  H    4.115102   2.795352   2.449325   2.176454   1.112945
    23  H    4.707430   3.388799   3.889889   2.839716   2.171652
    24  H    5.407795   3.918877   3.906614   3.500949   2.181489
    25  H    4.673024   3.444176   3.586581   3.960273   3.501186
    26  H    4.006051   2.695298   2.295331   3.343816   2.826947
    27  H    4.146730   4.121973   5.163828   4.454962   5.314201
                   11         12         13         14         15
    11  C    0.000000
    12  C    1.543841   0.000000
    13  C    2.560656   1.553271   0.000000
    14  H    3.506298   2.171143   1.115316   0.000000
    15  N    2.965357   2.449250   1.466497   2.122144   0.000000
    16  C    4.193036   3.669223   2.384621   2.695885   1.292277
    17  H    6.284987   5.582413   4.084251   3.924005   4.270436
    18  H    4.893432   4.480224   3.381056   3.621167   4.111398
    19  H    2.840484   3.367817   2.785218   3.812472   2.637158
    20  H    3.493615   3.947159   3.506651   4.367858   3.999941
    21  H    2.180697   3.505886   3.989085   5.045196   4.277938
    22  H    2.168366   2.838698   3.450645   4.279546   4.335172
    23  H    1.113442   2.181039   2.829859   3.828782   2.642553
    24  H    1.111870   2.186134   3.521952   4.338525   3.971907
    25  H    2.179512   1.112077   2.187881   2.494449   2.682548
    26  H    2.181725   1.110158   2.190525   2.483447   3.410976
    27  H    4.862513   4.491560   3.380920   3.683925   2.054404
                   16         17         18         19         20
    16  C    0.000000
    17  H    3.549942   0.000000
    18  H    4.081185   2.435186   0.000000
    19  H    3.087507   4.485973   3.290507   0.000000
    20  H    4.446090   4.572208   2.553897   1.796965   0.000000
    21  H    5.204360   6.662734   4.851049   2.496614   2.530938
    22  H    5.330185   6.214584   4.150276   3.098201   2.471149
    23  H    3.805883   6.398560   5.306173   2.689711   3.849288
    24  H    5.233592   7.343149   5.846115   3.863176   4.330485
    25  H    3.892680   6.223289   5.432388   4.199525   5.003562
    26  H    4.533202   5.853882   4.507024   4.035828   4.152716
    27  H    1.100966   4.287635   5.066330   3.730355   5.271680
                   21         22         23         24         25
    21  H    0.000000
    22  H    1.799260   0.000000
    23  H    2.467623   3.084219   0.000000
    24  H    2.541427   2.467216   1.794412   0.000000
    25  H    4.337005   3.841367   2.488181   2.518198   0.000000
    26  H    3.851577   2.667874   3.097822   2.499366   1.794954
    27  H    5.828020   6.196331   4.257361   5.849787   4.546310
                   26         27
    26  H    0.000000
    27  H    5.445413   0.000000
 Symmetry turned off by external request.
 Stoichiometry    C9H13N3O2
 Framework group  C1[X(C9H13N3O2)]
 Deg. of freedom    75
 Full point group                 C1      NOp   1
 Rotational constants (GHZ):           1.6636630           0.3976883           0.3684444
 Standard basis: 6-31G(d) (6D, 7F)
   236 basis functions,   444 primitive gaussians,   236 cartesian basis functions
    52 alpha electrons       52 beta electrons
       nuclear repulsion energy       919.7141949254 Hartrees.
 NAtoms=   27 NActive=   27 NUniq=   27 SFac= 1.00D+00 NAtFMM=   60 NAOKFM=F Big=F
 Integral buffers will be    131072 words long.
 Raffenetti 1 integral format.
 Two-electron integral symmetry is turned off.
 One-electron integrals computed using PRISM.
 NBasis=   236 RedAO= T EigKep=  1.71D-03  NBF=   236
 NBsUse=   236 1.00D-06 EigRej= -1.00D+00 NBFU=   236
 ExpMin= 1.61D-01 ExpMax= 5.48D+03 ExpMxC= 8.25D+02 IAcc=3 IRadAn=         5 AccDes= 0.00D+00
 Harris functional with IExCor=  205 and IRadAn=       5 diagonalized for initial guess.
 HarFok:  IExCor=  205 AccDes= 0.00D+00 IRadAn=         5 IDoV= 1 UseB2=F ITyADJ=14
 ICtDFT=  3500011 ScaDFX=  1.000000  1.000000  1.000000  1.000000
 FoFCou: FMM=F IPFlag=           0 FMFlag=      100000 FMFlg1=           0
         NFxFlg=           0 DoJE=T BraDBF=F KetDBF=T FulRan=T
         wScrn=  0.000000 ICntrl=       500 IOpCl=  0 I1Cent=   200000004 NGrid=           0
         NMat0=    1 NMatS0=      1 NMatT0=    0 NMatD0=    1 NMtDS0=    0 NMtDT0=    0
 Symmetry not used in FoFCou.
 Keep R1 ints in memory in canonical form, NReq=397720213.
 Requested convergence on RMS density matrix=1.00D-08 within 128 cycles.
 Requested convergence on MAX density matrix=1.00D-06.
 Requested convergence on             energy=1.00D-06.
 No special actions if energy rises.
 SCF Done:  E(RHF) =  -661.276550911     A.U. after   17 cycles
            NFock= 17  Conv=0.50D-08     -V/T= 2.0035
 ExpMin= 1.61D-01 ExpMax= 5.48D+03 ExpMxC= 8.25D+02 IAcc=3 IRadAn=         5 AccDes= 0.00D+00
 HarFok:  IExCor=  205 AccDes= 0.00D+00 IRadAn=         5 IDoV=-2 UseB2=F ITyADJ=14
 ICtDFT= 12500011 ScaDFX=  1.000000  1.000000  1.000000  1.000000
 Range of M.O.s used for correlation:    15   236
 NBasis=   236 NAE=    52 NBE=    52 NFC=    14 NFV=     0
 NROrb=    222 NOA=    38 NOB=    38 NVA=   184 NVB=   184
 Fully direct method using O(ONN) memory.
 JobTyp=1 Pass  1:  I=  15 to  52 NPSUse=  4 ParTrn=T ParDer=T DoDerP=T.
 Spin components of T(2) and E(2):
     alpha-alpha T2 =       0.9193961001D-01 E2=     -0.2719331356D+00
     alpha-beta  T2 =       0.5006485849D+00 E2=     -0.1495109914D+01
     beta-beta   T2 =       0.9193961001D-01 E2=     -0.2719331356D+00
 ANorm=    0.1297893603D+01
 E2 =    -0.2038976185D+01 EUMP2 =    -0.66331552709627D+03
          IDoAtm=111111111111111111111111111
          Differentiating once with respect to electric field.
                with respect to dipole field.
          Differentiating once with respect to nuclear coordinates.
 Keep R1 ints in memory in canonical form, NReq=397723379.
          There are     1 degrees of freedom in the 1st order CPHF.  IDoFFX=0 NUNeed=     1.
 LinEq1:  Iter=  0 NonCon=     1 RMS=4.55D-03 Max=1.23D-01 NDo=     1
 AX will form     1 AO Fock derivatives at one time.
 LinEq1:  Iter=  1 NonCon=     1 RMS=1.53D-03 Max=3.62D-02 NDo=     1
 LinEq1:  Iter=  2 NonCon=     1 RMS=6.22D-04 Max=2.02D-02 NDo=     1
 LinEq1:  Iter=  3 NonCon=     1 RMS=2.83D-04 Max=6.15D-03 NDo=     1
 LinEq1:  Iter=  4 NonCon=     1 RMS=8.57D-05 Max=1.60D-03 NDo=     1
 LinEq1:  Iter=  5 NonCon=     1 RMS=3.47D-05 Max=1.44D-03 NDo=     1
 LinEq1:  Iter=  6 NonCon=     1 RMS=1.48D-05 Max=6.64D-04 NDo=     1
 LinEq1:  Iter=  7 NonCon=     1 RMS=5.90D-06 Max=1.28D-04 NDo=     1
 LinEq1:  Iter=  8 NonCon=     1 RMS=2.43D-06 Max=6.23D-05 NDo=     1
 LinEq1:  Iter=  9 NonCon=     1 RMS=9.71D-07 Max=2.97D-05 NDo=     1
 LinEq1:  Iter= 10 NonCon=     1 RMS=4.43D-07 Max=1.11D-05 NDo=     1
 LinEq1:  Iter= 11 NonCon=     1 RMS=1.61D-07 Max=5.43D-06 NDo=     1
 LinEq1:  Iter= 12 NonCon=     1 RMS=5.98D-08 Max=1.29D-06 NDo=     1
 LinEq1:  Iter= 13 NonCon=     1 RMS=1.95D-08 Max=3.47D-07 NDo=     1
 LinEq1:  Iter= 14 NonCon=     1 RMS=6.79D-09 Max=1.30D-07 NDo=     1
 LinEq1:  Iter= 15 NonCon=     1 RMS=2.55D-09 Max=5.81D-08 NDo=     1
 LinEq1:  Iter= 16 NonCon=     1 RMS=9.07D-10 Max=1.70D-08 NDo=     1
 LinEq1:  Iter= 17 NonCon=     1 RMS=2.85D-10 Max=4.23D-09 NDo=     1
 LinEq1:  Iter= 18 NonCon=     1 RMS=1.01D-10 Max=2.02D-09 NDo=     1
 LinEq1:  Iter= 19 NonCon=     0 RMS=3.02D-11 Max=4.88D-10 NDo=     1
 Linear equations converged to 1.000D-10 1.000D-09 after    19 iterations.
 End of Minotr F.D. properties file   721 does not exist.
 End of Minotr F.D. properties file   722 does not exist.
 End of Minotr F.D. properties file   788 does not exist.

 **********************************************************************

            Population analysis using the SCF Density.

 **********************************************************************

 Alpha  occ. eigenvalues --  -20.60244 -20.60134 -15.85135 -15.62818 -15.56761
 Alpha  occ. eigenvalues --  -11.35501 -11.30646 -11.29915 -11.29593 -11.27631
 Alpha  occ. eigenvalues --  -11.24457 -11.23763 -11.23313 -11.22771  -1.59007
 Alpha  occ. eigenvalues --   -1.38692  -1.28277  -1.22666  -1.13454  -1.08818
 Alpha  occ. eigenvalues --   -1.01711  -1.00669  -0.93693  -0.89020  -0.84772
 Alpha  occ. eigenvalues --   -0.81738  -0.78238  -0.77139  -0.74133  -0.71381
 Alpha  occ. eigenvalues --   -0.71066  -0.69159  -0.67203  -0.64310  -0.63104
 Alpha  occ. eigenvalues --   -0.61654  -0.60379  -0.57354  -0.56313  -0.54720
 Alpha  occ. eigenvalues --   -0.53556  -0.50911  -0.50003  -0.48736  -0.47896
 Alpha  occ. eigenvalues --   -0.47739  -0.46247  -0.45498  -0.44141  -0.42043
 Alpha  occ. eigenvalues --   -0.39894  -0.33144
 Alpha virt. eigenvalues --    0.08135   0.11486   0.18195   0.21044   0.22628
 Alpha virt. eigenvalues --    0.24070   0.25443   0.27659   0.28705   0.28812
 Alpha virt. eigenvalues --    0.29815   0.31089   0.31874   0.32381   0.33439
 Alpha virt. eigenvalues --    0.33893   0.34899   0.36069   0.37690   0.38545
 Alpha virt. eigenvalues --    0.40564   0.42070   0.44839   0.45177   0.45745
 Alpha virt. eigenvalues --    0.47138   0.48979   0.53832   0.57481   0.58675
 Alpha virt. eigenvalues --    0.62360   0.68910   0.69396   0.72177   0.73725
 Alpha virt. eigenvalues --    0.74597   0.75837   0.76189   0.77792   0.78767
 Alpha virt. eigenvalues --    0.79581   0.83321   0.84952   0.85787   0.88232
 Alpha virt. eigenvalues --    0.89224   0.89625   0.90830   0.92101   0.93408
 Alpha virt. eigenvalues --    0.94966   0.96992   0.99295   1.00449   1.01366
 Alpha virt. eigenvalues --    1.03875   1.05122   1.06357   1.07061   1.08132
 Alpha virt. eigenvalues --    1.09137   1.10541   1.11321   1.12183   1.12404
 Alpha virt. eigenvalues --    1.13264   1.13545   1.15445   1.16050   1.16137
 Alpha virt. eigenvalues --    1.17039   1.18219   1.18622   1.20881   1.21983
 Alpha virt. eigenvalues --    1.23427   1.24088   1.25988   1.26522   1.29029
 Alpha virt. eigenvalues --    1.31921   1.32950   1.33633   1.35611   1.36216
 Alpha virt. eigenvalues --    1.39460   1.41602   1.43892   1.45280   1.48334
 Alpha virt. eigenvalues --    1.53430   1.54871   1.59821   1.63493   1.67747
 Alpha virt. eigenvalues --    1.68139   1.71414   1.72586   1.73215   1.74447
 Alpha virt. eigenvalues --    1.79046   1.79360   1.85318   1.88854   1.90063
 Alpha virt. eigenvalues --    1.92510   1.96990   1.98116   1.99029   2.00319
 Alpha virt. eigenvalues --    2.02301   2.04574   2.07216   2.08834   2.12461
 Alpha virt. eigenvalues --    2.13073   2.15434   2.17629   2.19477   2.20518
 Alpha virt. eigenvalues --    2.21967   2.23383   2.25019   2.25946   2.26841
 Alpha virt. eigenvalues --    2.29776   2.31888   2.33478   2.34744   2.36506
 Alpha virt. eigenvalues --    2.37824   2.38645   2.40450   2.42941   2.45039
 Alpha virt. eigenvalues --    2.47674   2.49867   2.50793   2.56957   2.58555
 Alpha virt. eigenvalues --    2.60732   2.63298   2.66431   2.68511   2.69356
 Alpha virt. eigenvalues --    2.69846   2.70376   2.73249   2.75109   2.82721
 Alpha virt. eigenvalues --    2.85083   2.87186   2.90466   2.93854   2.94344
 Alpha virt. eigenvalues --    2.97572   2.98861   3.03032   3.04912   3.05942
 Alpha virt. eigenvalues --    3.08148   3.13193   3.18639   3.19747   3.24318
 Alpha virt. eigenvalues --    3.30159   3.33838   3.38781   3.40421   3.59413
 Alpha virt. eigenvalues --    4.10924   4.21409   4.22922   4.32889   4.43738
 Alpha virt. eigenvalues --    4.53216   4.59710   4.61844   4.71113   4.76979
 Alpha virt. eigenvalues --    4.97340   4.99347   5.03433   5.09905
          Condensed to atoms (all electrons):
               1          2          3          4          5          6
     1  O    8.302859   0.305457  -0.080023  -0.087160   0.007144   0.000166
     2  N    0.305457   5.746647   0.299778   0.240432  -0.044509   0.001334
     3  O   -0.080023   0.299778   8.303701  -0.082342   0.001463  -0.000022
     4  C   -0.087160   0.240432  -0.082342   5.252889   0.576350  -0.052309
     5  C    0.007144  -0.044509   0.001463   0.576350   4.640781   0.321434
     6  N    0.000166   0.001334  -0.000022  -0.052309   0.321434   7.171969
     7  C    0.000010  -0.000098  -0.000002   0.003339  -0.032018   0.206570
     8  H   -0.000000   0.000002  -0.000000  -0.000185   0.002569  -0.049404
     9  C    0.000000  -0.000004   0.000000   0.000524   0.001607  -0.057554
    10  C   -0.000000   0.000000  -0.000000  -0.000018  -0.000064   0.003375
    11  C    0.000000  -0.000000  -0.000000  -0.000020   0.000015  -0.000153
    12  C   -0.000000   0.000002   0.000000  -0.000065  -0.000119   0.003556
    13  C   -0.000015  -0.000045   0.000001  -0.010237   0.001078  -0.045575
    14  H   -0.000005  -0.000067   0.000001   0.002731   0.004942  -0.005538
    15  N   -0.000019   0.001795   0.000307  -0.065275  -0.005075   0.003072
    16  C    0.001736  -0.026293   0.003949   0.318433  -0.034218  -0.002255
    17  H    0.005493  -0.002385   0.000117  -0.037395   0.386333  -0.032278
    18  H    0.000001  -0.000050   0.000001   0.001251  -0.022578   0.327345
    19  H   -0.000000   0.000000   0.000000  -0.000799   0.000729   0.000657
    20  H    0.000000  -0.000000   0.000000  -0.000032   0.000047  -0.001511
    21  H    0.000000  -0.000000  -0.000000   0.000000   0.000001  -0.000060
    22  H   -0.000000   0.000000   0.000000  -0.000000  -0.000002  -0.000097
    23  H    0.000000  -0.000000   0.000000   0.000025   0.000000  -0.000024
    24  H   -0.000000   0.000000   0.000000   0.000000  -0.000000   0.000004
    25  H    0.000000  -0.000000   0.000000   0.000019  -0.000000  -0.000070
    26  H    0.000000  -0.000000   0.000000   0.000005  -0.000001  -0.000066
    27  H    0.000035   0.000608   0.005751  -0.068687   0.001852   0.000033
               7          8          9         10         11         12
     1  O    0.000010  -0.000000   0.000000  -0.000000   0.000000  -0.000000
     2  N   -0.000098   0.000002  -0.000004   0.000000  -0.000000   0.000002
     3  O   -0.000002  -0.000000   0.000000  -0.000000  -0.000000   0.000000
     4  C    0.003339  -0.000185   0.000524  -0.000018  -0.000020  -0.000065
     5  C   -0.032018   0.002569   0.001607  -0.000064   0.000015  -0.000119
     6  N    0.206570  -0.049404  -0.057554   0.003375  -0.000153   0.003556
     7  C    5.004767   0.415815   0.341495  -0.049433  -0.007652  -0.064570
     8  H    0.415815   0.548104  -0.060696   0.001337  -0.000291  -0.002909
     9  C    0.341495  -0.060696   5.181367   0.317825  -0.053094  -0.006062
    10  C   -0.049433   0.001337   0.317825   5.127273   0.332772  -0.060194
    11  C   -0.007652  -0.000291  -0.053094   0.332772   5.124374   0.330495
    12  C   -0.064570  -0.002909  -0.006062  -0.060194   0.330495   5.138104
    13  C    0.330514  -0.039626  -0.051348  -0.001572  -0.047977   0.367422
    14  H   -0.039963  -0.000936   0.003820  -0.000386   0.003944  -0.040546
    15  N   -0.060429   0.004058  -0.012714   0.001523  -0.007761  -0.074096
    16  C   -0.001208  -0.000066  -0.000469  -0.000050   0.000034   0.002431
    17  H    0.001587  -0.000027  -0.000072   0.000001   0.000000   0.000001
    18  H   -0.029056  -0.002752   0.000730  -0.000115   0.000011  -0.000134
    19  H   -0.035059   0.004091   0.386284  -0.032812  -0.002254   0.000631
    20  H   -0.041583  -0.001798   0.397185  -0.037382   0.004137  -0.000360
    21  H    0.004045  -0.000082  -0.035806   0.400047  -0.035893   0.004218
    22  H   -0.004247   0.003535  -0.045633   0.395878  -0.045611  -0.001256
    23  H    0.000436   0.000033  -0.001992  -0.040145   0.396689  -0.036730
    24  H   -0.000146  -0.000098   0.004387  -0.038487   0.400241  -0.037880
    25  H    0.005000  -0.000004  -0.000375   0.004105  -0.033962   0.395330
    26  H   -0.004449   0.001551   0.001048  -0.002406  -0.042269   0.394642
    27  H   -0.000377   0.000008  -0.000052   0.000004   0.000005  -0.000019
              13         14         15         16         17         18
     1  O   -0.000015  -0.000005  -0.000019   0.001736   0.005493   0.000001
     2  N   -0.000045  -0.000067   0.001795  -0.026293  -0.002385  -0.000050
     3  O    0.000001   0.000001   0.000307   0.003949   0.000117   0.000001
     4  C   -0.010237   0.002731  -0.065275   0.318433  -0.037395   0.001251
     5  C    0.001078   0.004942  -0.005075  -0.034218   0.386333  -0.022578
     6  N   -0.045575  -0.005538   0.003072  -0.002255  -0.032278   0.327345
     7  C    0.330514  -0.039963  -0.060429  -0.001208   0.001587  -0.029056
     8  H   -0.039626  -0.000936   0.004058  -0.000066  -0.000027  -0.002752
     9  C   -0.051348   0.003820  -0.012714  -0.000469  -0.000072   0.000730
    10  C   -0.001572  -0.000386   0.001523  -0.000050   0.000001  -0.000115
    11  C   -0.047977   0.003944  -0.007761   0.000034   0.000000   0.000011
    12  C    0.367422  -0.040546  -0.074096   0.002431   0.000001  -0.000134
    13  C    5.021500   0.403181   0.244996  -0.069622  -0.000056   0.003713
    14  H    0.403181   0.514871  -0.035177  -0.005702   0.000061   0.000008
    15  N    0.244996  -0.035177   6.936608   0.587340  -0.000044  -0.000112
    16  C   -0.069622  -0.005702   0.587340   4.702829   0.001417  -0.000207
    17  H   -0.000056   0.000061  -0.000044   0.001417   0.409099  -0.001967
    18  H    0.003713   0.000008  -0.000112  -0.000207  -0.001967   0.328314
    19  H   -0.006175   0.000062   0.006849   0.002177   0.000012  -0.000116
    20  H    0.003870  -0.000050   0.000081  -0.000036  -0.000001   0.002771
    21  H   -0.000383   0.000009  -0.000032   0.000002  -0.000000  -0.000000
    22  H    0.000324  -0.000043   0.000005  -0.000001   0.000000   0.000003
    23  H   -0.005861   0.000007   0.006761   0.000063   0.000000   0.000000
    24  H    0.004146  -0.000058   0.000037   0.000005   0.000000  -0.000000
    25  H   -0.034556  -0.002658   0.000877  -0.000063  -0.000000   0.000002
    26  H   -0.044621  -0.000915   0.004163  -0.000055   0.000000  -0.000001
    27  H    0.004746  -0.000179  -0.037568   0.402140  -0.000068   0.000002
              19         20         21         22         23         24
     1  O   -0.000000   0.000000   0.000000  -0.000000   0.000000  -0.000000
     2  N    0.000000  -0.000000  -0.000000   0.000000  -0.000000   0.000000
     3  O    0.000000   0.000000  -0.000000   0.000000   0.000000   0.000000
     4  C   -0.000799  -0.000032   0.000000  -0.000000   0.000025   0.000000
     5  C    0.000729   0.000047   0.000001  -0.000002   0.000000  -0.000000
     6  N    0.000657  -0.001511  -0.000060  -0.000097  -0.000024   0.000004
     7  C   -0.035059  -0.041583   0.004045  -0.004247   0.000436  -0.000146
     8  H    0.004091  -0.001798  -0.000082   0.003535   0.000033  -0.000098
     9  C    0.386284   0.397185  -0.035806  -0.045633  -0.001992   0.004387
    10  C   -0.032812  -0.037382   0.400047   0.395878  -0.040145  -0.038487
    11  C   -0.002254   0.004137  -0.035893  -0.045611   0.396689   0.400241
    12  C    0.000631  -0.000360   0.004218  -0.001256  -0.036730  -0.037880
    13  C   -0.006175   0.003870  -0.000383   0.000324  -0.005861   0.004146
    14  H    0.000062  -0.000050   0.000009  -0.000043   0.000007  -0.000058
    15  N    0.006849   0.000081  -0.000032   0.000005   0.006761   0.000037
    16  C    0.002177  -0.000036   0.000002  -0.000001   0.000063   0.000005
    17  H    0.000012  -0.000001  -0.000000   0.000000   0.000000   0.000000
    18  H   -0.000116   0.002771  -0.000000   0.000003   0.000000  -0.000000
    19  H    0.507055  -0.023891  -0.002597   0.003767   0.001652  -0.000070
    20  H   -0.023891   0.549978  -0.002636  -0.002953  -0.000050  -0.000090
    21  H   -0.002597  -0.002636   0.526756  -0.024758  -0.002823  -0.002071
    22  H    0.003767  -0.002953  -0.024758   0.569248   0.004067  -0.003589
    23  H    0.001652  -0.000050  -0.002823   0.004067   0.510373  -0.025026
    24  H   -0.000070  -0.000090  -0.002071  -0.003589  -0.025026   0.541584
    25  H   -0.000027   0.000011  -0.000086  -0.000082  -0.002084  -0.002395
    26  H    0.000023  -0.000035  -0.000073   0.002459   0.003820  -0.002756
    27  H    0.000072   0.000000  -0.000000   0.000000  -0.000021  -0.000000
              25         26         27
     1  O    0.000000   0.000000   0.000035
     2  N   -0.000000  -0.000000   0.000608
     3  O    0.000000   0.000000   0.005751
     4  C    0.000019   0.000005  -0.068687
     5  C   -0.000000  -0.000001   0.001852
     6  N   -0.000070  -0.000066   0.000033
     7  C    0.005000  -0.004449  -0.000377
     8  H   -0.000004   0.001551   0.000008
     9  C   -0.000375   0.001048  -0.000052
    10  C    0.004105  -0.002406   0.000004
    11  C   -0.033962  -0.042269   0.000005
    12  C    0.395330   0.394642  -0.000019
    13  C   -0.034556  -0.044621   0.004746
    14  H   -0.002658  -0.000915  -0.000179
    15  N    0.000877   0.004163  -0.037568
    16  C   -0.000063  -0.000055   0.402140
    17  H   -0.000000   0.000000  -0.000068
    18  H    0.000002  -0.000001   0.000002
    19  H   -0.000027   0.000023   0.000072
    20  H    0.000011  -0.000035   0.000000
    21  H   -0.000086  -0.000073  -0.000000
    22  H   -0.000082   0.002459   0.000000
    23  H   -0.002084   0.003820  -0.000021
    24  H   -0.002395  -0.002756  -0.000000
    25  H    0.511329  -0.023166  -0.000010
    26  H   -0.023166   0.560723   0.000001
    27  H   -0.000010   0.000001   0.449273
 Mulliken charges:
               1
     1  O   -0.455677
     2  N    0.477398
     3  O   -0.452680
     4  C    0.008525
     5  C    0.192239
     6  N   -0.792602
     7  C    0.056713
     8  H    0.177769
     9  C   -0.310400
    10  C   -0.321075
    11  C   -0.315780
    12  C   -0.311890
    13  C   -0.027820
    14  H    0.198587
    15  N   -0.500168
    16  C    0.117689
    17  H    0.270175
    18  H    0.392936
    19  H    0.189738
    20  H    0.154332
    21  H    0.172222
    22  H    0.148985
    23  H    0.190828
    24  H    0.162260
    25  H    0.182866
    26  H    0.152377
    27  H    0.242451
 Sum of Mulliken charges =  -0.00000
 Mulliken charges with hydrogens summed into heavy atoms:
               1
     1  O   -0.455677
     2  N    0.477398
     3  O   -0.452680
     4  C    0.008525
     5  C    0.462415
     6  N   -0.399666
     7  C    0.234482
     9  C    0.033670
    10  C    0.000132
    11  C    0.037308
    12  C    0.023353
    13  C    0.170767
    15  N   -0.500168
    16  C    0.360141
 Electronic spatial extent (au):  <R**2>=           3086.0944
 Charge=             -0.0000 electrons
 Dipole moment (field-independent basis, Debye):
    X=              4.8953    Y=              4.3018    Z=              0.8330  Tot=              6.5699
 Quadrupole moment (field-independent basis, Debye-Ang):
   XX=           -102.8404   YY=            -76.4461   ZZ=            -86.6562
   XY=             -2.4264   XZ=              0.7996   YZ=             -0.5292
 Traceless Quadrupole moment (field-independent basis, Debye-Ang):
   XX=            -14.1928   YY=             12.2015   ZZ=              1.9913
   XY=             -2.4264   XZ=              0.7996   YZ=             -0.5292
 Octapole moment (field-independent basis, Debye-Ang**2):
  XXX=             84.6649  YYY=             30.3091  ZZZ=             -2.0600  XYY=            -17.1144
  XXY=             16.6310  XXZ=              1.1143  XZZ=              6.8038  YZZ=             -1.0164
  YYZ=              4.5811  XYZ=              1.8996
 Hexadecapole moment (field-independent basis, Debye-Ang**3):
 XXXX=          -3437.9916 YYYY=           -556.3923 ZZZZ=           -368.3559 XXXY=            -71.0735
 XXXZ=             18.5776 YYYX=             -4.8976 YYYZ=             -1.0079 ZZZX=             10.8342
 ZZZY=            -11.8008 XXYY=           -584.3697 XXZZ=           -602.6872 YYZZ=           -165.6966
 XXYZ=            -16.2709 YYXZ=              6.1465 ZZXY=             -2.8778
 N-N= 9.197141949254D+02 E-N=-3.385505143632D+03  KE= 6.589467654536D+02
 Calling FoFJK, ICntrl=  10002127 FMM=F ISym2X=0 I1Cent= 0 IOpClX= 0 NMat=1 NMatS=1 NMatT=0.
 -------------------------------------------------------------------
 Center     Atomic                   Forces (Hartrees/Bohr)
 Number     Number              X              Y              Z
 -------------------------------------------------------------------
      1        8          -0.012404223    0.009024378    0.014971320
      2        7           0.040221885    0.004797969    0.002225800
      3        8          -0.007247732   -0.010101195   -0.017314396
      4        6           0.001491114    0.009491116    0.007249887
      5        6           0.006611245   -0.019749152   -0.002738493
      6        7           0.016796169   -0.004683426   -0.006042792
      7        6          -0.005699892    0.005615693    0.003454457
      8        1          -0.010186836   -0.001061533   -0.007712954
      9        6          -0.003865669    0.000114065   -0.001982603
     10        6           0.002796579   -0.000936799    0.000782258
     11        6          -0.000854130   -0.004350086   -0.002597374
     12        6           0.000774089   -0.008580206   -0.003679049
     13        6           0.008885537   -0.000858848    0.002553070
     14        1           0.000737404    0.004782261   -0.009973481
     15        7           0.000678660   -0.003060528    0.005414758
     16        6          -0.016440878    0.013077484    0.000182758
     17        1           0.008905019   -0.004715763   -0.003579061
     18        1          -0.016935749   -0.002657728    0.004044462
     19        1           0.003115209    0.005310069    0.007971870
     20        1          -0.003252527   -0.007602163    0.002136172
     21        1          -0.004269985    0.001704161    0.009780096
     22        1          -0.004020056   -0.003476121   -0.007622283
     23        1           0.003956033    0.005428335    0.009655319
     24        1          -0.009395952    0.002695744   -0.001931300
     25        1          -0.000856071    0.010751308   -0.001708506
     26        1          -0.004791328   -0.004495022   -0.004708091
     27        1           0.005252086    0.003535988    0.001168157
 -------------------------------------------------------------------
 Cartesian Forces:  Max     0.040221885 RMS     0.008479664

 GradGradGradGradGradGradGradGradGradGradGradGradGradGradGradGradGradGrad
 Berny optimization.
 FormGI is forming the generalized inverse of G from B-inverse, IUseBI=4.
 Internal  Forces:  Max     0.029454237 RMS     0.006212594
 Search for a local minimum.
 Step number   1 out of a maximum of   20
 All quantities printed in internal units (Hartrees-Bohrs-Radians)
 Mixed Optimization -- RFO/linear search
 Second derivative matrix not updated -- first step.
 ITU=  0
     Eigenvalues ---    0.00418   0.00769   0.01085   0.01173   0.01246
     Eigenvalues ---    0.01491   0.01537   0.01633   0.01995   0.02047
     Eigenvalues ---    0.02129   0.02676   0.03657   0.04507   0.04696
     Eigenvalues ---    0.04837   0.05073   0.05138   0.05302   0.05876
     Eigenvalues ---    0.06269   0.07215   0.07701   0.07719   0.07864
     Eigenvalues ---    0.07996   0.08045   0.08050   0.10460   0.11739
     Eigenvalues ---    0.12271   0.13446   0.15223   0.15691   0.15989
     Eigenvalues ---    0.16000   0.20096   0.21997   0.23239   0.24979
     Eigenvalues ---    0.25000   0.25000   0.25332   0.26152   0.26655
     Eigenvalues ---    0.27987   0.28082   0.28437   0.31477   0.31745
     Eigenvalues ---    0.32044   0.32238   0.32290   0.32381   0.32388
     Eigenvalues ---    0.32403   0.32510   0.32527   0.32583   0.32748
     Eigenvalues ---    0.33342   0.33575   0.33827   0.35241   0.43889
     Eigenvalues ---    0.45073   0.49391   0.67182   0.91124   0.91548
     Eigenvalues --- 1000.000001000.000001000.000001000.000001000.00000
     Eigenvalues --- 1000.000001000.000001000.000001000.000001000.00000
     Eigenvalues --- 1000.000001000.000001000.000001000.000001000.00000
     Eigenvalues --- 1000.000001000.000001000.000001000.000001000.00000
     Eigenvalues --- 1000.000001000.000001000.000001000.000001000.00000
     Eigenvalues --- 1000.000001000.000001000.000001000.000001000.00000
     Eigenvalues --- 1000.000001000.000001000.000001000.000001000.00000
     Eigenvalues --- 1000.000001000.000001000.000001000.000001000.00000
     Eigenvalues --- 1000.000001000.000001000.000001000.000001000.00000
     Eigenvalues --- 1000.000001000.000001000.000001000.000001000.00000
     Eigenvalues --- 1000.000001000.000001000.000001000.000001000.00000
     Eigenvalues --- 1000.000001000.000001000.000001000.000001000.00000
     Eigenvalues --- 1000.000001000.000001000.000001000.000001000.00000
     Eigenvalues --- 1000.000001000.000001000.000001000.000001000.00000
     Eigenvalues --- 1000.000001000.000001000.000001000.000001000.00000
     Eigenvalues --- 1000.000001000.000001000.000001000.000001000.00000
     Eigenvalues --- 1000.000001000.000001000.000001000.000001000.00000
     Eigenvalues --- 1000.000001000.000001000.000001000.000001000.00000
     Eigenvalues --- 1000.00000
 RFO step:  Lambda=-1.88581377D-02 EMin= 4.18475901D-03
 Linear search not attempted -- first point.
 Iteration  1 RMS(Cart)=  0.04873084 RMS(Int)=  0.00117229
 Iteration  2 RMS(Cart)=  0.00146800 RMS(Int)=  0.00030710
 Iteration  3 RMS(Cart)=  0.00000109 RMS(Int)=  0.00030709
 Iteration  4 RMS(Cart)=  0.00000000 RMS(Int)=  0.00030709
 Iteration  1 RMS(Cart)=  0.00001846 RMS(Int)=  0.00001403
 Iteration  2 RMS(Cart)=  0.00001072 RMS(Int)=  0.00001522
 Iteration  3 RMS(Cart)=  0.00000712 RMS(Int)=  0.00001715
 Iteration  4 RMS(Cart)=  0.00000532 RMS(Int)=  0.00001897
 Iteration  5 RMS(Cart)=  0.00000429 RMS(Int)=  0.00002057
 Iteration  6 RMS(Cart)=  0.00000358 RMS(Int)=  0.00002196
 Iteration  7 RMS(Cart)=  0.00000302 RMS(Int)=  0.00002316
 Iteration  8 RMS(Cart)=  0.00000256 RMS(Int)=  0.00002420
 Iteration  9 RMS(Cart)=  0.00000218 RMS(Int)=  0.00002510
 Iteration 10 RMS(Cart)=  0.00000185 RMS(Int)=  0.00002587
 Iteration 11 RMS(Cart)=  0.00000157 RMS(Int)=  0.00002653
 Iteration 12 RMS(Cart)=  0.00000133 RMS(Int)=  0.00002709
 Iteration 13 RMS(Cart)=  0.00000113 RMS(Int)=  0.00002757
 Iteration 14 RMS(Cart)=  0.00000096 RMS(Int)=  0.00002798
 Variable       Old X    -DE/DX   Delta X   Delta X   Delta X     New X
                                 (Linear)    (Quad)   (Total)
    R1        2.32419   0.02077   0.00000   0.02233   0.02233   2.34652
    R2        2.32228   0.02123   0.00000   0.02272   0.02272   2.34500
    R3        2.82796  -0.02090   0.00000  -0.06033  -0.06033   2.76763
    R4        2.63480  -0.02945   0.00000  -0.06319  -0.06301   2.57179
    R5        2.79708  -0.02049   0.00000  -0.05936  -0.05920   2.73787
    R6        2.58940  -0.02156   0.00000  -0.04134  -0.04125   2.54815
    R7        2.08454  -0.01034   0.00000  -0.02934  -0.02934   2.05520
    R8        2.82668  -0.02048   0.00000  -0.05677  -0.05682   2.76986
    R9        1.93288  -0.00675   0.00000  -0.01475  -0.01475   1.91812
   R10        2.11812  -0.01187   0.00000  -0.03559  -0.03559   2.08253
   R11        2.92738  -0.01287   0.00000  -0.04454  -0.04453   2.88285
   R12        2.90612  -0.00434   0.00000  -0.00960  -0.00955   2.89657
   R13        2.91145  -0.00462   0.00000  -0.01457  -0.01462   2.89683
   R14        2.09921  -0.00986   0.00000  -0.02866  -0.02866   2.07054
   R15        2.09891  -0.00812   0.00000  -0.02358  -0.02358   2.07533
   R16        2.90430  -0.00190   0.00000  -0.00739  -0.00747   2.89684
   R17        2.10140  -0.01055   0.00000  -0.03079  -0.03079   2.07061
   R18        2.10316  -0.00900   0.00000  -0.02634  -0.02634   2.07682
   R19        2.91744  -0.00914   0.00000  -0.02946  -0.02946   2.88798
   R20        2.10410  -0.01160   0.00000  -0.03399  -0.03399   2.07011
   R21        2.10113  -0.00994   0.00000  -0.02898  -0.02898   2.07215
   R22        2.93526  -0.01058   0.00000  -0.03700  -0.03696   2.89830
   R23        2.10152  -0.01076   0.00000  -0.03140  -0.03140   2.07012
   R24        2.09789  -0.00788   0.00000  -0.02287  -0.02287   2.07503
   R25        2.10764  -0.00947   0.00000  -0.02790  -0.02790   2.07974
   R26        2.77128  -0.00621   0.00000  -0.01383  -0.01411   2.75716
   R27        2.44205  -0.00440   0.00000  -0.00651  -0.00658   2.43547
   R28        2.08053  -0.00545   0.00000  -0.01538  -0.01538   2.06514
    A1        2.19259  -0.00033   0.00000  -0.00216  -0.00338   2.18921
    A2        2.04760   0.00182   0.00000   0.00584   0.00463   2.05223
    A3        2.04261  -0.00139   0.00000  -0.00607  -0.00728   2.03533
    A4        2.00501  -0.00270   0.00000  -0.00633  -0.00652   1.99849
    A5        2.02557  -0.00210   0.00000  -0.00417  -0.00435   2.02121
    A6        2.25170   0.00474   0.00000   0.01036   0.01072   2.26242
    A7        2.18848   0.00926   0.00000   0.03411   0.03439   2.22287
    A8        2.06150  -0.00255   0.00000  -0.00493  -0.00520   2.05630
    A9        2.03205  -0.00665   0.00000  -0.02807  -0.02835   2.00370
   A10        2.25124  -0.00637   0.00000  -0.02023  -0.02019   2.23106
   A11        2.11540  -0.01155   0.00000  -0.06916  -0.06977   2.04563
   A12        1.87458   0.01800   0.00000   0.09937   0.09944   1.97401
   A13        1.83755  -0.00185   0.00000  -0.01744  -0.01720   1.82035
   A14        2.00532  -0.00068   0.00000  -0.01118  -0.01148   1.99384
   A15        1.97067   0.00091   0.00000  -0.00518  -0.00554   1.96513
   A16        1.85251   0.00269   0.00000   0.02574   0.02562   1.87813
   A17        1.84882   0.00107   0.00000   0.02426   0.02392   1.87275
   A18        1.93497  -0.00181   0.00000  -0.01063  -0.01034   1.92463
   A19        1.91029   0.00034   0.00000  -0.00542  -0.00554   1.90475
   A20        1.92197  -0.00071   0.00000  -0.01367  -0.01365   1.90831
   A21        1.92297  -0.00179   0.00000  -0.00713  -0.00713   1.91585
   A22        1.91924  -0.00050   0.00000   0.00566   0.00560   1.92485
   A23        1.90468   0.00304   0.00000   0.02628   0.02628   1.93095
   A24        1.88449  -0.00036   0.00000  -0.00528  -0.00555   1.87894
   A25        1.94070  -0.00095   0.00000   0.00569   0.00559   1.94629
   A26        1.91882  -0.00062   0.00000  -0.00673  -0.00675   1.91207
   A27        1.90492   0.00030   0.00000  -0.00303  -0.00311   1.90181
   A28        1.91606   0.00075   0.00000   0.00754   0.00758   1.92364
   A29        1.89851   0.00178   0.00000   0.01162   0.01164   1.91015
   A30        1.88378  -0.00124   0.00000  -0.01560  -0.01569   1.86810
   A31        1.94465   0.00066   0.00000   0.00555   0.00565   1.95030
   A32        1.90242   0.00061   0.00000   0.00635   0.00634   1.90876
   A33        1.91728   0.00041   0.00000   0.00559   0.00554   1.92282
   A34        1.90686  -0.00121   0.00000  -0.01534  -0.01539   1.89147
   A35        1.91531  -0.00042   0.00000   0.00045   0.00037   1.91567
   A36        1.87596  -0.00007   0.00000  -0.00300  -0.00304   1.87291
   A37        1.94674  -0.00292   0.00000  -0.01983  -0.01983   1.92691
   A38        1.90617   0.00248   0.00000   0.01698   0.01681   1.92298
   A39        1.91107   0.00141   0.00000   0.01480   0.01475   1.92583
   A40        1.90630   0.00019   0.00000  -0.00373  -0.00359   1.90271
   A41        1.91178  -0.00024   0.00000  -0.00420  -0.00410   1.90768
   A42        1.88057  -0.00084   0.00000  -0.00348  -0.00368   1.87688
   A43        1.84577   0.00464   0.00000   0.02383   0.02383   1.86961
   A44        1.93599  -0.00433   0.00000  -0.03085  -0.03141   1.90458
   A45        1.98842   0.00108   0.00000   0.01385   0.01437   2.00279
   A46        1.88089   0.00233   0.00000   0.03326   0.03358   1.91447
   A47        1.89137  -0.00428   0.00000  -0.03151  -0.03167   1.85970
   A48        1.91665   0.00077   0.00000  -0.00602  -0.00591   1.91074
   A49        2.08549  -0.00564   0.00000  -0.01070  -0.01117   2.07432
   A50        2.24112  -0.00267   0.00000  -0.01285  -0.01313   2.22799
   A51        1.98152   0.00386   0.00000   0.02035   0.01976   2.00128
   A52        2.06052  -0.00120   0.00000  -0.00793  -0.00848   2.05203
    D1       -0.91422   0.00477   0.00000  -0.00297  -0.00304  -0.91725
    D2        2.26893   0.00604   0.00000   0.00000  -0.00000   2.26893
    D3        2.25577   0.00132   0.00000   0.08351   0.08341   2.33919
    D4       -0.84426   0.00259   0.00000   0.08648   0.08645  -0.75781
    D5        3.07646   0.00212   0.00000   0.02344   0.02364   3.10010
    D6       -0.01139   0.00104   0.00000  -0.00123  -0.00146  -0.01286
    D7       -0.11318   0.00042   0.00000   0.01951   0.01956  -0.09362
    D8        3.08215  -0.00067   0.00000  -0.00517  -0.00554   3.07660
    D9       -2.75386  -0.00137   0.00000  -0.02805  -0.02809  -2.78195
   D10        0.39679   0.00010   0.00000   0.03081   0.03097   0.42776
   D11        0.43626   0.00036   0.00000  -0.02403  -0.02393   0.41233
   D12       -2.69627   0.00184   0.00000   0.03483   0.03514  -2.66114
   D13       -0.08519  -0.00091   0.00000  -0.01200  -0.01162  -0.09681
   D14        2.70878   0.00258   0.00000   0.04559   0.04433   2.75311
   D15        3.00348   0.00027   0.00000   0.01290   0.01341   3.01689
   D16       -0.48574   0.00376   0.00000   0.07049   0.06936  -0.41638
   D17       -2.51901  -0.00071   0.00000  -0.00774  -0.00744  -2.52645
   D18        1.73272  -0.00244   0.00000  -0.02190  -0.02153   1.71118
   D19       -0.50994  -0.00008   0.00000   0.00828   0.00816  -0.50178
   D20        0.93290   0.00026   0.00000  -0.03528  -0.03600   0.89689
   D21       -1.09856  -0.00147   0.00000  -0.04944  -0.05010  -1.14865
   D22        2.94197   0.00089   0.00000  -0.01926  -0.02040   2.92157
   D23        2.94194   0.00236   0.00000   0.03390   0.03370   2.97564
   D24       -1.22941   0.00151   0.00000   0.02880   0.02864  -1.20077
   D25        0.84747  -0.00050   0.00000   0.00932   0.00924   0.85670
   D26        0.91906   0.00324   0.00000   0.04459   0.04455   0.96361
   D27        3.03089   0.00238   0.00000   0.03949   0.03948   3.07038
   D28       -1.17541   0.00038   0.00000   0.02001   0.02008  -1.15533
   D29       -1.08088   0.00139   0.00000   0.00705   0.00710  -1.07378
   D30        1.03096   0.00053   0.00000   0.00195   0.00203   1.03299
   D31        3.10784  -0.00147   0.00000  -0.01753  -0.01737   3.09047
   D32       -2.89848  -0.00083   0.00000  -0.01518  -0.01491  -2.91339
   D33       -0.86392   0.00237   0.00000   0.02212   0.02196  -0.84196
   D34        1.30939   0.00076   0.00000   0.00000  -0.00001   1.30938
   D35       -0.89619  -0.00195   0.00000  -0.02426  -0.02418  -0.92037
   D36        1.13837   0.00125   0.00000   0.01305   0.01269   1.15106
   D37       -2.97150  -0.00036   0.00000  -0.00908  -0.00928  -2.98078
   D38        1.10605   0.00092   0.00000   0.01419   0.01430   1.12036
   D39        3.14061   0.00412   0.00000   0.05150   0.05118  -3.09140
   D40       -0.96926   0.00251   0.00000   0.02937   0.02920  -0.94005
   D41        0.95666   0.00077   0.00000   0.00000   0.00001   0.95666
   D42        3.08231   0.00066   0.00000   0.00874   0.00870   3.09100
   D43       -1.13779  -0.00103   0.00000  -0.01601  -0.01597  -1.15376
   D44       -1.15683   0.00175   0.00000   0.01680   0.01687  -1.13996
   D45        0.96882   0.00164   0.00000   0.02553   0.02556   0.99438
   D46        3.03191  -0.00005   0.00000   0.00079   0.00089   3.03280
   D47        3.06230   0.00067   0.00000   0.00415   0.00410   3.06640
   D48       -1.09524   0.00055   0.00000   0.01288   0.01279  -1.08244
   D49        0.96785  -0.00114   0.00000  -0.01186  -0.01188   0.95598
   D50       -0.92193  -0.00071   0.00000   0.00000   0.00001  -0.92192
   D51        1.18374  -0.00140   0.00000  -0.01142  -0.01143   1.17232
   D52       -3.04821  -0.00089   0.00000  -0.00811  -0.00813  -3.05635
   D53       -3.04918   0.00020   0.00000  -0.00042  -0.00041  -3.04959
   D54       -0.94351  -0.00049   0.00000  -0.01184  -0.01184  -0.95535
   D55        1.10772   0.00002   0.00000  -0.00853  -0.00855   1.09917
   D56        1.17631   0.00022   0.00000   0.00728   0.00731   1.18362
   D57       -3.00120  -0.00047   0.00000  -0.00415  -0.00412  -3.00532
   D58       -0.94997   0.00004   0.00000  -0.00083  -0.00083  -0.95080
   D59        0.98959  -0.00088   0.00000  -0.01157  -0.01157   0.97802
   D60        3.09839  -0.00087   0.00000  -0.01762  -0.01776   3.08064
   D61       -1.12939   0.00038   0.00000  -0.00333  -0.00326  -1.13266
   D62       -1.11348  -0.00126   0.00000  -0.01289  -0.01286  -1.12634
   D63        0.99532  -0.00125   0.00000  -0.01894  -0.01904   0.97628
   D64        3.05072  -0.00000   0.00000  -0.00465  -0.00455   3.04617
   D65        3.11701  -0.00022   0.00000  -0.00050  -0.00048   3.11653
   D66       -1.05737  -0.00020   0.00000  -0.00655  -0.00667  -1.06404
   D67        0.99804   0.00104   0.00000   0.00774   0.00782   1.00586
   D68       -1.05558  -0.00005   0.00000  -0.00225  -0.00224  -1.05782
   D69       -3.12710   0.00142   0.00000   0.00468   0.00427  -3.12283
   D70        1.08294   0.00156   0.00000   0.01065   0.01071   1.09365
   D71        3.11888  -0.00140   0.00000  -0.00830  -0.00822   3.11065
   D72        1.04736   0.00007   0.00000  -0.00137  -0.00172   1.04564
   D73       -1.02579   0.00020   0.00000   0.00460   0.00473  -1.02106
   D74        1.06299  -0.00035   0.00000   0.00053   0.00065   1.06364
   D75       -1.00853   0.00112   0.00000   0.00746   0.00716  -1.00138
   D76       -3.08168   0.00125   0.00000   0.01343   0.01360  -3.06807
   D77       -1.17217   0.00412   0.00000   0.00000  -0.00001  -1.17218
   D78        3.06185   0.00055   0.00000  -0.01697  -0.01684   3.04501
   D79        1.01147  -0.00021   0.00000  -0.03533  -0.03560   0.97586
   D80        0.17642  -0.00105   0.00000   0.00928   0.00916   0.18558
   D81       -2.97458  -0.00256   0.00000  -0.05175  -0.05127  -3.02585
         Item               Value     Threshold  Converged?
 Maximum Force            0.029147     0.000450     NO 
 RMS     Force            0.006229     0.000300     NO 
 Maximum Displacement     0.218817     0.001800     NO 
 RMS     Displacement     0.048697     0.001200     NO 
 Predicted change in Energy=-1.044509D-02
 GradGradGradGradGradGradGradGradGradGradGradGradGradGradGradGradGradGrad

                          Input orientation:                          
 ---------------------------------------------------------------------
 Center     Atomic      Atomic             Coordinates (Angstroms)
 Number     Number       Type             X           Y           Z
 ---------------------------------------------------------------------
      1          8           0       -3.782557    0.049489    0.904482
      2          7           0       -3.120972   -0.220136   -0.111140
      3          8           0       -3.558887   -0.783408   -1.126440
      4          6           0       -1.674919    0.005920   -0.058322
      5          6           0       -1.313146    1.255327    0.341979
      6          7           0       -0.062817    1.726342    0.523809
      7          6           0        1.198169    0.983396    0.444018
      8          1           0        1.835077    1.444524    1.216139
      9          6           0        1.921483    1.118972   -0.892285
     10          6           0        3.320183    0.503433   -0.771277
     11          6           0        3.255575   -0.946311   -0.277341
     12          6           0        2.442699   -1.069817    1.010887
     13          6           0        1.034539   -0.495626    0.811709
     14          1           0        0.466269   -0.572916    1.751020
     15          7           0        0.393636   -1.312612   -0.213251
     16          6           0       -0.847161   -1.101769   -0.490667
     17          1           0       -2.105513    1.964417    0.570333
     18          1           0        0.064497    2.732537    0.483275
     19          1           0        1.346122    0.604693   -1.670104
     20          1           0        1.987923    2.178655   -1.172884
     21          1           0        3.826812    0.550606   -1.741690
     22          1           0        3.914811    1.103318   -0.068163
     23          1           0        2.784273   -1.570644   -1.044219
     24          1           0        4.267661   -1.336182   -0.115879
     25          1           0        2.360855   -2.121397    1.306707
     26          1           0        2.940869   -0.533634    1.829463
     27          1           0       -1.336468   -1.795186   -1.179160
 ---------------------------------------------------------------------
                    Distance matrix (angstroms):
                    1          2          3          4          5
     1  O    0.000000
     2  N    1.241725   0.000000
     3  O    2.206443   1.240919   0.000000
     4  C    2.317548   1.464568   2.305048   0.000000
     5  C    2.805075   2.377087   3.369873   1.360933   0.000000
     6  N    4.097952   3.680251   4.609194   2.428498   1.348421
     7  C    5.088403   4.517928   5.312016   3.076108   2.528055
     8  H    5.796643   5.393995   6.288577   4.001738   3.272807
     9  C    6.075215   5.275391   5.805888   3.855968   3.464798
    10  C    7.311850   6.515199   7.007404   5.070195   4.824150
    11  C    7.205805   6.419915   6.869090   5.026379   5.109205
    12  C    6.325977   5.738932   6.377244   4.388075   4.467674
    13  C    4.848729   4.265656   4.993876   2.889579   2.966161
    14  H    4.376818   4.057141   4.952369   2.862422   2.914479
    15  N    4.532685   3.681902   4.091016   2.457936   3.133001
    16  C    3.447954   2.468104   2.803394   1.448820   2.542900
    17  H    2.567310   2.503564   3.541451   2.101506   1.087565
    18  H    4.709139   4.383927   5.299242   3.279228   2.024850
    19  H    5.765423   4.802671   5.126550   3.476070   3.397574
    20  H    6.492090   5.743022   6.288328   4.402208   3.747586
    21  H    8.071917   7.178053   7.530384   5.779227   5.590839
    22  H    7.829819   7.159303   7.780479   5.696443   5.246224
    23  H    7.038858   6.129145   6.392353   4.831350   5.166865
    24  H    8.232085   7.472448   7.910856   6.092521   6.170167
    25  H    6.528096   5.972898   6.538636   4.761960   5.082445
    26  H    6.811760   6.372608   7.144688   5.016010   4.848673
    27  H    3.705097   2.608813   2.442462   2.148211   3.408817
                    6          7          8          9         10
     6  N    0.000000
     7  C    1.465749   0.000000
     8  H    2.039791   1.102026   0.000000
     9  C    2.512303   1.525539   2.135159   0.000000
    10  C    3.823276   2.492038   2.653491   1.532936   0.000000
    11  C    4.335509   2.911537   3.156642   2.534433   1.532940
    12  C    3.785942   2.466958   2.594849   2.946952   2.534009
    13  C    2.494838   1.532801   2.137430   2.509421   2.954342
    14  H    2.659429   2.160101   2.495956   3.459363   3.957945
    15  N    3.160197   2.520105   3.423844   2.950932   3.489139
    16  C    3.105248   3.066745   4.073229   3.571887   4.474614
    17  H    2.057049   3.448575   4.026860   4.367004   5.776899
    18  H    1.015028   2.084766   2.308901   2.818538   4.140326
    19  H    2.838390   2.152863   3.045454   1.095684   2.171419
    20  H    2.699794   2.160261   2.503946   1.098216   2.177745
    21  H    4.652317   3.445924   3.676255   2.162131   1.095719
    22  H    4.069412   2.767102   2.468025   2.157031   1.099006
    23  H    4.629767   3.354652   3.886055   2.828696   2.159512
    24  H    5.342405   3.887893   3.927348   3.483552   2.170586
    25  H    4.614348   3.425757   3.605612   3.940635   3.482537
    26  H    3.979240   2.694038   2.347775   3.343377   2.825462
    27  H    4.113812   4.096292   5.127561   4.380509   5.209071
                   11         12         13         14         15
    11  C    0.000000
    12  C    1.528251   0.000000
    13  C    2.514388   1.533715   0.000000
    14  H    3.468990   2.168175   1.100549   0.000000
    15  N    2.885997   2.399192   1.459029   2.100187   0.000000
    16  C    4.111218   3.616472   2.367359   2.651404   1.288795
    17  H    6.158908   5.485152   3.996248   3.800808   4.195076
    18  H    4.929040   4.515763   3.386723   3.562951   4.117853
    19  H    2.826909   3.345770   2.732615   3.723573   2.589539
    20  H    3.489177   3.940590   3.464005   4.293692   3.956209
    21  H    2.170574   3.481123   3.925716   4.975397   4.194569
    22  H    2.163175   2.837953   3.409804   4.244011   4.272756
    23  H    1.095454   2.142653   2.767978   3.765894   2.544058
    24  H    1.096534   2.161258   3.466992   4.303308   3.875320
    25  H    2.165770   1.095459   2.155752   2.486898   2.614260
    26  H    2.169785   1.098058   2.161333   2.476154   3.356767
    27  H    4.756125   4.427706   3.357691   3.650994   2.039392
                   16         17         18         19         20
    16  C    0.000000
    17  H    3.480038   0.000000
    18  H    4.059752   2.303590   0.000000
    19  H    3.018870   4.333842   3.287449   0.000000
    20  H    4.389111   4.454314   2.597925   1.771014   0.000000
    21  H    5.112869   6.522024   4.885316   2.482312   2.521031
    22  H    5.264722   6.115020   4.217032   3.068062   2.467724
    23  H    3.703184   6.246073   5.314864   2.681809   3.835097
    24  H    5.133889   7.209867   5.880480   3.836405   4.320711
    25  H    3.815962   6.097914   5.432493   4.162049   4.977741
    26  H    4.478276   5.769890   4.555613   4.010733   4.156767
    27  H    1.092827   4.217436   5.022616   3.632732   5.181026
                   21         22         23         24         25
    21  H    0.000000
    22  H    1.764632   0.000000
    23  H    2.464357   3.062821   0.000000
    24  H    2.529343   2.465348   1.765567   0.000000
    25  H    4.310610   3.834558   2.451421   2.505239   0.000000
    26  H    3.835832   2.688710   3.059078   2.487734   1.769374
    27  H    5.699004   6.100129   4.129060   5.722544   4.467230
                   26         27
    26  H    0.000000
    27  H    5.379493   0.000000
 Symmetry turned off by external request.
 Stoichiometry    C9H13N3O2
 Framework group  C1[X(C9H13N3O2)]
 Deg. of freedom    75
 Full point group                 C1      NOp   1
 Rotational constants (GHZ):           1.6730704           0.4133843           0.3814560
 Standard basis: 6-31G(d) (6D, 7F)
   236 basis functions,   444 primitive gaussians,   236 cartesian basis functions
    52 alpha electrons       52 beta electrons
       nuclear repulsion energy       931.2692187214 Hartrees.
 NAtoms=   27 NActive=   27 NUniq=   27 SFac= 1.00D+00 NAtFMM=   60 NAOKFM=F Big=F
 Integral buffers will be    131072 words long.
 Raffenetti 1 integral format.
 Two-electron integral symmetry is turned off.
 One-electron integrals computed using PRISM.
 NBasis=   236 RedAO= T EigKep=  1.51D-03  NBF=   236
 NBsUse=   236 1.00D-06 EigRej= -1.00D+00 NBFU=   236
 Initial guess from the checkpoint file:  "/home/alexey/tmp/Gau-1083375.chk"
 B after Tr=     0.043740   -0.001876   -0.000510
         Rot=    0.999998    0.001704    0.000955   -0.000341 Ang=   0.23 deg.
 ExpMin= 1.61D-01 ExpMax= 5.48D+03 ExpMxC= 8.25D+02 IAcc=3 IRadAn=         5 AccDes= 0.00D+00
 Harris functional with IExCor=  205 and IRadAn=       5 diagonalized for initial guess.
 HarFok:  IExCor=  205 AccDes= 0.00D+00 IRadAn=         5 IDoV= 1 UseB2=F ITyADJ=14
 ICtDFT=  3500011 ScaDFX=  1.000000  1.000000  1.000000  1.000000
 FoFCou: FMM=F IPFlag=           0 FMFlag=      100000 FMFlg1=           0
         NFxFlg=           0 DoJE=T BraDBF=F KetDBF=T FulRan=T
         wScrn=  0.000000 ICntrl=       500 IOpCl=  0 I1Cent=   200000004 NGrid=           0
         NMat0=    1 NMatS0=      1 NMatT0=    0 NMatD0=    1 NMtDS0=    0 NMtDT0=    0
 Symmetry not used in FoFCou.
 Keep R1 ints in memory in canonical form, NReq=397720213.
 Requested convergence on RMS density matrix=1.00D-08 within 128 cycles.
 Requested convergence on MAX density matrix=1.00D-06.
 Requested convergence on             energy=1.00D-06.
 No special actions if energy rises.
 SCF Done:  E(RHF) =  -661.289022266     A.U. after   15 cycles
            NFock= 15  Conv=0.49D-08     -V/T= 2.0025
 ExpMin= 1.61D-01 ExpMax= 5.48D+03 ExpMxC= 8.25D+02 IAcc=3 IRadAn=         5 AccDes= 0.00D+00
 HarFok:  IExCor=  205 AccDes= 0.00D+00 IRadAn=         5 IDoV=-2 UseB2=F ITyADJ=14
 ICtDFT= 12500011 ScaDFX=  1.000000  1.000000  1.000000  1.000000
 Range of M.O.s used for correlation:    15   236
 NBasis=   236 NAE=    52 NBE=    52 NFC=    14 NFV=     0
 NROrb=    222 NOA=    38 NOB=    38 NVA=   184 NVB=   184
 Fully direct method using O(ONN) memory.
 JobTyp=1 Pass  1:  I=  15 to  52 NPSUse=  4 ParTrn=T ParDer=T DoDerP=T.
 Spin components of T(2) and E(2):
     alpha-alpha T2 =       0.9150072581D-01 E2=     -0.2726462372D+00
     alpha-beta  T2 =       0.4943578077D+00 E2=     -0.1491361340D+01
     beta-beta   T2 =       0.9150072581D-01 E2=     -0.2726462372D+00
 ANorm=    0.1295129051D+01
 E2 =    -0.2036653815D+01 EUMP2 =    -0.66332567608055D+03
          IDoAtm=111111111111111111111111111
          Differentiating once with respect to electric field.
                with respect to dipole field.
          Differentiating once with respect to nuclear coordinates.
 Keep R1 ints in memory in canonical form, NReq=397723379.
          There are     1 degrees of freedom in the 1st order CPHF.  IDoFFX=0 NUNeed=     1.
 LinEq1:  Iter=  0 NonCon=     1 RMS=4.53D-03 Max=1.21D-01 NDo=     1
 AX will form     1 AO Fock derivatives at one time.
 LinEq1:  Iter=  1 NonCon=     1 RMS=1.52D-03 Max=3.17D-02 NDo=     1
 LinEq1:  Iter=  2 NonCon=     1 RMS=6.38D-04 Max=1.76D-02 NDo=     1
 LinEq1:  Iter=  3 NonCon=     1 RMS=2.79D-04 Max=5.07D-03 NDo=     1
 LinEq1:  Iter=  4 NonCon=     1 RMS=8.59D-05 Max=1.35D-03 NDo=     1
 LinEq1:  Iter=  5 NonCon=     1 RMS=3.51D-05 Max=1.20D-03 NDo=     1
[...]
                   16         17         18         19         20
    16  C    0.000000
    17  H    3.472505   0.000000
    18  H    4.105500   2.233378   0.000000
    19  H    3.000696   4.351841   3.550589   0.000000
    20  H    4.390605   4.506860   2.936681   1.768226   0.000000
    21  H    5.100658   6.547370   5.122727   2.499545   2.521982
    22  H    5.256565   6.113094   4.334005   3.070389   2.462845
    23  H    3.686884   6.234901   5.431384   2.703760   3.843165
    24  H    5.129122   7.190282   5.941816   3.849250   4.317959
    25  H    3.816918   6.038146   5.346835   4.172926   4.985842
    26  H    4.495471   5.730566   4.456682   4.032364   4.178411
    27  H    1.092039   4.240443   5.110184   3.616567   5.182763
                   21         22         23         24         25
    21  H    0.000000
    22  H    1.758835   0.000000
    23  H    2.469887   3.062415   0.000000
    24  H    2.517070   2.460109   1.764384   0.000000
    25  H    4.312102   3.838105   2.445473   2.518682   0.000000
    26  H    3.844680   2.701275   3.060514   2.493983   1.768157
    27  H    5.675773   6.081587   4.095226   5.698729   4.449743
                   26         27
    26  H    0.000000
    27  H    5.381714   0.000000
 Symmetry turned off by external request.
 Stoichiometry    C9H13N3O2
 Framework group  C1[X(C9H13N3O2)]
 Deg. of freedom    75
 Full point group                 C1      NOp   1
 Rotational constants (GHZ):           1.6694379           0.4125290           0.3820896

 **********************************************************************

            Population analysis using the SCF Density.

 **********************************************************************

 Alpha  occ. eigenvalues --  -20.60114 -20.60007 -15.84892 -15.63279 -15.56250
 Alpha  occ. eigenvalues --  -11.34765 -11.29915 -11.29360 -11.28697 -11.27063
 Alpha  occ. eigenvalues --  -11.23440 -11.23029 -11.22580 -11.21979  -1.57575
 Alpha  occ. eigenvalues --   -1.37303  -1.30350  -1.23085  -1.14712  -1.09821
 Alpha  occ. eigenvalues --   -1.02607  -1.01107  -0.94482  -0.89819  -0.85295
 Alpha  occ. eigenvalues --   -0.82591  -0.78343  -0.77777  -0.75002  -0.71983
 Alpha  occ. eigenvalues --   -0.70660  -0.68752  -0.67555  -0.65024  -0.63579
 Alpha  occ. eigenvalues --   -0.62137  -0.60407  -0.57568  -0.56789  -0.54946
 Alpha  occ. eigenvalues --   -0.54332  -0.50964  -0.50182  -0.49101  -0.48147
 Alpha  occ. eigenvalues --   -0.47867  -0.46305  -0.45828  -0.43784  -0.41717
 Alpha  occ. eigenvalues --   -0.39789  -0.33384
 Alpha virt. eigenvalues --    0.08080   0.11138   0.17449   0.21434   0.23362
 Alpha virt. eigenvalues --    0.24785   0.26659   0.28327   0.29204   0.29490
 Alpha virt. eigenvalues --    0.30182   0.31812   0.31998   0.32831   0.34108
 Alpha virt. eigenvalues --    0.34471   0.35819   0.37443   0.38739   0.39850
 Alpha virt. eigenvalues --    0.41091   0.42603   0.45155   0.45943   0.46964
 Alpha virt. eigenvalues --    0.48174   0.48973   0.53854   0.58055   0.59437
 Alpha virt. eigenvalues --    0.61895   0.69888   0.70026   0.72742   0.74473
 Alpha virt. eigenvalues --    0.74582   0.75852   0.76383   0.78569   0.79323
 Alpha virt. eigenvalues --    0.80047   0.84187   0.85604   0.86130   0.88845
 Alpha virt. eigenvalues --    0.89525   0.91190   0.91338   0.92997   0.93680
 Alpha virt. eigenvalues --    0.95491   0.97614   1.00153   1.01414   1.02563
 Alpha virt. eigenvalues --    1.03997   1.06226   1.06421   1.07983   1.08610
 Alpha virt. eigenvalues --    1.09261   1.10714   1.11926   1.12845   1.13544
 Alpha virt. eigenvalues --    1.14182   1.14464   1.15547   1.16136   1.16899
 Alpha virt. eigenvalues --    1.18546   1.19024   1.20185   1.22053   1.23559
 Alpha virt. eigenvalues --    1.24625   1.25172   1.27749   1.28357   1.30078
 Alpha virt. eigenvalues --    1.33038   1.33994   1.34236   1.36610   1.37173
 Alpha virt. eigenvalues --    1.40123   1.42645   1.43886   1.48080   1.51740
 Alpha virt. eigenvalues --    1.54492   1.56578   1.60135   1.62814   1.67080
 Alpha virt. eigenvalues --    1.68232   1.69718   1.71938   1.73894   1.75758
 Alpha virt. eigenvalues --    1.78699   1.84200   1.85779   1.90074   1.91242
 Alpha virt. eigenvalues --    1.92812   1.95901   1.99667   2.01189   2.02312
 Alpha virt. eigenvalues --    2.04919   2.06414   2.08158   2.09033   2.13838
 Alpha virt. eigenvalues --    2.13955   2.15963   2.19390   2.19827   2.22464
 Alpha virt. eigenvalues --    2.24615   2.25154   2.25475   2.28282   2.29893
 Alpha virt. eigenvalues --    2.31916   2.33677   2.33993   2.36269   2.37782
 Alpha virt. eigenvalues --    2.39103   2.41014   2.42621   2.45502   2.46742
 Alpha virt. eigenvalues --    2.49972   2.52129   2.53905   2.55566   2.60758
 Alpha virt. eigenvalues --    2.62521   2.65514   2.69326   2.69769   2.70195
 Alpha virt. eigenvalues --    2.70826   2.73169   2.74747   2.77673   2.83753
 Alpha virt. eigenvalues --    2.89117   2.89996   2.93445   2.94890   2.97030
 Alpha virt. eigenvalues --    3.00326   3.00913   3.02800   3.05486   3.09261
 Alpha virt. eigenvalues --    3.09506   3.14844   3.18888   3.21290   3.24487
 Alpha virt. eigenvalues --    3.31590   3.37718   3.38185   3.45719   3.64794
 Alpha virt. eigenvalues --    4.10042   4.20466   4.25636   4.36429   4.46412
 Alpha virt. eigenvalues --    4.55964   4.62042   4.63500   4.73953   4.78173
 Alpha virt. eigenvalues --    4.99396   5.01072   5.05628   5.10617
          Condensed to atoms (all electrons):
               1          2          3          4          5          6
     1  O    8.310047   0.300361  -0.076690  -0.088092   0.008308   0.000334
     2  N    0.300361   5.793711   0.294066   0.229537  -0.049573   0.001459
     3  O   -0.076690   0.294066   8.305047  -0.080518   0.002339  -0.000025
     4  C   -0.088092   0.229537  -0.080518   5.234485   0.568002  -0.052467
     5  C    0.008308  -0.049573   0.002339   0.568002   4.675484   0.330412
     6  N    0.000334   0.001459  -0.000025  -0.052467   0.330412   7.180919
     7  C    0.000012  -0.000143  -0.000002   0.002222  -0.035165   0.180023
     8  H   -0.000000   0.000003  -0.000000  -0.000173   0.002954  -0.050139
     9  C    0.000000  -0.000005   0.000000   0.000930   0.001034  -0.062002
    10  C   -0.000000   0.000000   0.000000  -0.000033  -0.000067   0.003715
    11  C    0.000000  -0.000000  -0.000000  -0.000044   0.000024  -0.000198
    12  C   -0.000000   0.000002   0.000000  -0.000081  -0.000116   0.003951
    13  C   -0.000018  -0.000051   0.000000  -0.011556   0.000311  -0.050152
    14  H   -0.000009  -0.000082   0.000001   0.002805   0.007366  -0.007211
    15  N   -0.000019   0.002420   0.000374  -0.066189  -0.008278   0.002665
    16  C    0.001872  -0.026725   0.002420   0.329030  -0.044205  -0.002011
    17  H    0.007248  -0.003371   0.000116  -0.035600   0.387682  -0.033474
    18  H    0.000006  -0.000068   0.000001   0.002237  -0.029412   0.337549
    19  H   -0.000000  -0.000001   0.000001  -0.001011   0.001019  -0.000197
    20  H    0.000000  -0.000000   0.000000  -0.000100   0.000180  -0.000269
    21  H    0.000000   0.000000  -0.000000   0.000001   0.000001  -0.000074
    22  H   -0.000000   0.000000   0.000000  -0.000000  -0.000003  -0.000115
    23  H    0.000000  -0.000000   0.000000   0.000041   0.000001  -0.000031
    24  H   -0.000000   0.000000   0.000000   0.000000  -0.000000   0.000005
    25  H    0.000000  -0.000000   0.000000   0.000027  -0.000000  -0.000094
    26  H    0.000000  -0.000000   0.000000   0.000005  -0.000004  -0.000053
    27  H    0.000050  -0.000055   0.006131  -0.066906   0.002153  -0.000005
               7          8          9         10         11         12
     1  O    0.000012  -0.000000   0.000000  -0.000000   0.000000  -0.000000
     2  N   -0.000143   0.000003  -0.000005   0.000000  -0.000000   0.000002
     3  O   -0.000002  -0.000000   0.000000   0.000000  -0.000000   0.000000
     4  C    0.002222  -0.000173   0.000930  -0.000033  -0.000044  -0.000081
     5  C   -0.035165   0.002954   0.001034  -0.000067   0.000024  -0.000116
     6  N    0.180023  -0.050139  -0.062002   0.003715  -0.000198   0.003951
     7  C    5.013427   0.417762   0.350295  -0.054818  -0.008815  -0.061957
     8  H    0.417762   0.539769  -0.054971   0.000626  -0.000289  -0.002274
     9  C    0.350295  -0.054971   5.156849   0.324576  -0.050435  -0.005075
    10  C   -0.054818   0.000626   0.324576   5.120721   0.336780  -0.061075
    11  C   -0.008815  -0.000289  -0.050435   0.336780   5.120944   0.335969
    12  C   -0.061957  -0.002274  -0.005075  -0.061075   0.335969   5.120777
    13  C    0.339901  -0.037549  -0.061512  -0.000135  -0.050941   0.371049
    14  H   -0.046326  -0.000646   0.004380  -0.000393   0.004162  -0.036027
    15  N   -0.059954   0.003898  -0.014068   0.001707  -0.013386  -0.083072
    16  C   -0.000350  -0.000121  -0.000704  -0.000055   0.000076   0.002589
    17  H    0.002038  -0.000071  -0.000079   0.000001   0.000000   0.000000
    18  H   -0.021977  -0.004620   0.001549  -0.000086   0.000003  -0.000119
    19  H   -0.036799   0.004376   0.390743  -0.032645  -0.002230   0.000698
    20  H   -0.041644  -0.001949   0.399096  -0.035318   0.003924  -0.000412
    21  H    0.004583  -0.000078  -0.036265   0.402388  -0.034990   0.004355
    22  H   -0.004847   0.003585  -0.046782   0.397489  -0.045446  -0.001082
    23  H    0.000603   0.000037  -0.001963  -0.039091   0.399244  -0.038148
    24  H   -0.000135  -0.000100   0.004358  -0.038337   0.402241  -0.038619
    25  H    0.005126  -0.000018  -0.000440   0.004207  -0.033476   0.398104
    26  H   -0.003917   0.001645   0.000967  -0.002262  -0.041366   0.396541
    27  H   -0.000365   0.000008  -0.000047   0.000005   0.000013  -0.000031
              13         14         15         16         17         18
     1  O   -0.000018  -0.000009  -0.000019   0.001872   0.007248   0.000006
     2  N   -0.000051  -0.000082   0.002420  -0.026725  -0.003371  -0.000068
     3  O    0.000000   0.000001   0.000374   0.002420   0.000116   0.000001
     4  C   -0.011556   0.002805  -0.066189   0.329030  -0.035600   0.002237
     5  C    0.000311   0.007366  -0.008278  -0.044205   0.387682  -0.029412
     6  N   -0.050152  -0.007211   0.002665  -0.002011  -0.033474   0.337549
     7  C    0.339901  -0.046326  -0.059954  -0.000350   0.002038  -0.021977
     8  H   -0.037549  -0.000646   0.003898  -0.000121  -0.000071  -0.004620
     9  C   -0.061512   0.004380  -0.014068  -0.000704  -0.000079   0.001549
    10  C   -0.000135  -0.000393   0.001707  -0.000055   0.000001  -0.000086
    11  C   -0.050941   0.004162  -0.013386   0.000076   0.000000   0.000003
    12  C    0.371049  -0.036027  -0.083072   0.002589   0.000000  -0.000119
    13  C    5.041593   0.403347   0.250042  -0.070169  -0.000017   0.002904
    14  H    0.403347   0.524504  -0.037005  -0.006589   0.000092  -0.000090
    15  N    0.250042  -0.037005   6.957382   0.587586  -0.000064  -0.000125
    16  C   -0.070169  -0.006589   0.587586   4.707078   0.001694  -0.000129
    17  H   -0.000017   0.000092  -0.000064   0.001694   0.408189  -0.003337
    18  H    0.002904  -0.000090  -0.000125  -0.000129  -0.003337   0.314727
    19  H   -0.007647   0.000109   0.007559   0.002346   0.000013  -0.000141
    20  H    0.004360  -0.000068   0.000133  -0.000042   0.000003   0.000612
    21  H   -0.000432   0.000010  -0.000043   0.000003  -0.000000   0.000002
    22  H    0.000044  -0.000054   0.000023  -0.000002   0.000000   0.000000
    23  H   -0.007632   0.000002   0.008615   0.000120   0.000000   0.000000
    24  H    0.004700  -0.000057   0.000127   0.000007   0.000000  -0.000000
    25  H   -0.035622  -0.002796   0.000522  -0.000025  -0.000000   0.000002
    26  H   -0.047182  -0.001036   0.004917  -0.000062   0.000000   0.000000
    27  H    0.004974  -0.000197  -0.038431   0.403571  -0.000085   0.000001
              19         20         21         22         23         24
     1  O   -0.000000   0.000000   0.000000  -0.000000   0.000000  -0.000000
     2  N   -0.000001  -0.000000   0.000000   0.000000  -0.000000   0.000000
     3  O    0.000001   0.000000  -0.000000   0.000000   0.000000   0.000000
     4  C   -0.001011  -0.000100   0.000001  -0.000000   0.000041   0.000000
     5  C    0.001019   0.000180   0.000001  -0.000003   0.000001  -0.000000
     6  N   -0.000197  -0.000269  -0.000074  -0.000115  -0.000031   0.000005
     7  C   -0.036799  -0.041644   0.004583  -0.004847   0.000603  -0.000135
     8  H    0.004376  -0.001949  -0.000078   0.003585   0.000037  -0.000100
     9  C    0.390743   0.399096  -0.036265  -0.046782  -0.001963   0.004358
    10  C   -0.032645  -0.035318   0.402388   0.397489  -0.039091  -0.038337
    11  C   -0.002230   0.003924  -0.034990  -0.045446   0.399244   0.402241
    12  C    0.000698  -0.000412   0.004355  -0.001082  -0.038148  -0.038619
    13  C   -0.007647   0.004360  -0.000432   0.000044  -0.007632   0.004700
    14  H    0.000109  -0.000068   0.000010  -0.000054   0.000002  -0.000057
    15  N    0.007559   0.000133  -0.000043   0.000023   0.008615   0.000127
    16  C    0.002346  -0.000042   0.000003  -0.000002   0.000120   0.000007
    17  H    0.000013   0.000003  -0.000000   0.000000   0.000000   0.000000
    18  H   -0.000141   0.000612   0.000002   0.000000   0.000000  -0.000000
    19  H    0.506038  -0.024445  -0.002779   0.003977   0.001537  -0.000067
    20  H   -0.024445   0.539421  -0.002695  -0.002969  -0.000046  -0.000082
    21  H   -0.002779  -0.002695   0.524859  -0.027500  -0.002911  -0.002249
    22  H    0.003977  -0.002969  -0.027500   0.572032   0.004149  -0.003641
    23  H    0.001537  -0.000046  -0.002911   0.004149   0.500213  -0.025530
    24  H   -0.000067  -0.000082  -0.002249  -0.003641  -0.025530   0.538635
    25  H   -0.000028   0.000013  -0.000088  -0.000081  -0.002295  -0.002313
    26  H    0.000020  -0.000030  -0.000080   0.002384   0.004076  -0.003005
    27  H    0.000072   0.000000  -0.000000   0.000000  -0.000034  -0.000000
              25         26         27
     1  O    0.000000   0.000000   0.000050
     2  N   -0.000000  -0.000000  -0.000055
     3  O    0.000000   0.000000   0.006131
     4  C    0.000027   0.000005  -0.066906
     5  C   -0.000000  -0.000004   0.002153
     6  N   -0.000094  -0.000053  -0.000005
     7  C    0.005126  -0.003917  -0.000365
     8  H   -0.000018   0.001645   0.000008
     9  C   -0.000440   0.000967  -0.000047
    10  C    0.004207  -0.002262   0.000005
    11  C   -0.033476  -0.041366   0.000013
    12  C    0.398104   0.396541  -0.000031
    13  C   -0.035622  -0.047182   0.004974
    14  H   -0.002796  -0.001036  -0.000197
    15  N    0.000522   0.004917  -0.038431
    16  C   -0.000025  -0.000062   0.403571
    17  H   -0.000000   0.000000  -0.000085
    18  H    0.000002   0.000000   0.000001
    19  H   -0.000028   0.000020   0.000072
    20  H    0.000013  -0.000030   0.000000
    21  H   -0.000088  -0.000080  -0.000000
    22  H   -0.000081   0.002384   0.000000
    23  H   -0.002295   0.004076  -0.000034
    24  H   -0.002313  -0.003005  -0.000000
    25  H    0.507452  -0.024143  -0.000013
    26  H   -0.024143   0.562263   0.000001
    27  H   -0.000013   0.000001   0.443267
 Mulliken charges:
               1
     1  O   -0.463410
     2  N    0.458515
     3  O   -0.453261
     4  C    0.033449
     5  C    0.179554
     6  N   -0.782514
     7  C    0.061223
     8  H    0.178337
     9  C   -0.300430
    10  C   -0.327903
    11  C   -0.321766
    12  C   -0.305948
    13  C   -0.042608
    14  H    0.191806
    15  N   -0.507336
    16  C    0.112799
    17  H    0.269021
    18  H    0.400511
    19  H    0.189483
    20  H    0.162328
    21  H    0.173983
    22  H    0.148838
    23  H    0.199042
    24  H    0.164064
    25  H    0.185976
    26  H    0.150322
    27  H    0.245925
 Sum of Mulliken charges =  -0.00000
 Mulliken charges with hydrogens summed into heavy atoms:
               1
     1  O   -0.463410
     2  N    0.458515
     3  O   -0.453261
     4  C    0.033449
     5  C    0.448575
     6  N   -0.382003
     7  C    0.239560
     9  C    0.051381
    10  C   -0.005082
    11  C    0.041340
    12  C    0.030349
    13  C    0.149198
    15  N   -0.507336
    16  C    0.358723
 Electronic spatial extent (au):  <R**2>=           2991.6360
 Charge=             -0.0000 electrons
 Dipole moment (field-independent basis, Debye):
    X=              4.8613    Y=              4.4800    Z=              1.6680  Tot=              6.8180
 Quadrupole moment (field-independent basis, Debye-Ang):
   XX=           -103.6141   YY=            -76.3540   ZZ=            -85.1770
   XY=             -2.4797   XZ=              0.2064   YZ=              1.8644
 Traceless Quadrupole moment (field-independent basis, Debye-Ang):
   XX=            -15.2324   YY=             12.0277   ZZ=              3.2047
   XY=             -2.4797   XZ=              0.2064   YZ=              1.8644
 Octapole moment (field-independent basis, Debye-Ang**2):
  XXX=             78.1890  YYY=             28.2406  ZZZ=              4.0954  XYY=            -18.5921
  XXY=             14.8685  XXZ=              3.3368  XZZ=              3.9976  YZZ=              2.4371
  YYZ=             11.7127  XYZ=              2.2293
 Hexadecapole moment (field-independent basis, Debye-Ang**3):
 XXXX=          -3305.9714 YYYY=           -549.4775 ZZZZ=           -370.4865 XXXY=            -58.1777
 XXXZ=              4.1047 YYYX=             -3.8233 YYYZ=             13.7756 ZZZX=             -1.2525
 ZZZY=            -10.0830 XXYY=           -566.0223 XXZZ=           -581.0913 YYZZ=           -155.0941
 XXYZ=            -19.0483 YYXZ=              2.0902 ZZXY=             -2.5464
 N-N= 9.308742600440D+02 E-N=-3.408414478239D+03  KE= 6.596068968508D+02
 Unable to Open any file for archive entry.
 1\1\GINC-LOTUS\FOpt\RMP2-FC\6-31G(d)\C9H13N3O2\ALEXEY\30-Jun-2023\0\\#
 MP2/6-31G* SCF=Tight Opt=(ModRedun, MaxCycle=20 ) NoSymm\\MolName:\\0,
 1\O,-3.7916995851,0.0704498844,0.8522643416\N,-3.1096489593,-0.2161250
 184,-0.151602824\O,-3.5614921288,-0.7430454105,-1.1868292842\C,-1.6731
 209441,0.000173187,-0.0925987403\C,-1.3008143634,1.2337542443,0.365071
 7457\N,-0.0560099681,1.7383687396,0.4756714749\C,1.2060911063,1.010851
 6863,0.4110462324\H,1.8505844433,1.4847406477,1.1667399914\C,1.9223722
 74,1.1068771483,-0.9344659415\C,3.3151746372,0.4803531615,-0.800129934
 6\C,3.2524204745,-0.9541857904,-0.2689793012\C,2.4462264848,-1.0460917
 79,1.0282388886\C,1.04116853,-0.4712018452,0.8124746992\H,0.4511906864
 ,-0.509551452,1.7417750742\N,0.403066789,-1.3052071091,-0.2006897443\C
 ,-0.8417759462,-1.1083542273,-0.497902378\H,-2.0966737091,1.927455387,
 0.6278778126\H,-0.0052714898,2.6816755801,0.8404045872\H,1.3304671698,
 0.5823735087,-1.6924621937\H,1.9973313193,2.1569932969,-1.2424745463\H
 ,3.8276076983,0.5036529704,-1.7687310788\H,3.9140630177,1.0978374001,-
 0.1155611795\H,2.7756662071,-1.5995647129,-1.0135912068\H,4.2674701966
 ,-1.3367457986,-0.1088830011\H,2.3535020154,-2.0901730957,1.3446752428
 \H,2.9511286167,-0.5007125046,1.8374581088\H,-1.3100145727,-1.83260809
 86,-1.167796845\\Version=ES64L-G16RevC.02\HF=-661.2899267\MP2=-663.328
 5456\RMSD=8.862e-09\RMSF=1.772e-03\Dipole=1.7839372,1.5872399,0.603344
 \PG=C01 [X(C9H13N3O2)]\\@
 The archive entry for this job was punched.


 LAW OF COMPENSATION:
      NO CALCULATION IS EVER A COMPLETE FAILURE; IT 
      CAN ALWAYS SERVE AS A BAD EXAMPLE.

                                           -- ANON
 Job cpu time:       0 days  1 hours 19 minutes 53.7 seconds.
 Elapsed time:       0 days  0 hours 23 minutes 59.9 seconds.
 File lengths (MBytes):  RWF=     36 Int=      0 D2E=      0 Chk=      7 Scr=      1
 Normal termination of Gaussian 16 at Fri Jun 30 05:57:19 2023.
