 Entering Gaussian System, Link 0=g16
 Initial command:
 /home/alexey/programs//g16/l1.exe "/home/alexey/tmp/Gau-1090824.inp" -scrdir="/home/alexey/tmp/"
 Entering Link 1 = /home/alexey/programs//g16/l1.exe PID=   1090826.
  
 Copyright (c) 1988-2021, Gaussian, Inc.  All Rights Reserved.
  
 This is part of the Gaussian(R) 16 program.  It is based on
 the Gaussian(R) 09 system (copyright 2009, Gaussian, Inc.),
 the Gaussian(R) 03 system (copyright 2003, Gaussian, Inc.),
 the Gaussian(R) 98 system (copyright 1998, Gaussian, Inc.),
 the Gaussian(R) 94 system (copyright 1995, Gaussian, Inc.),
 the Gaussian 92(TM) system (copyright 1992, Gaussian, Inc.),
 the Gaussian 90(TM) system (copyright 1990, Gaussian, Inc.),
 the Gaussian 88(TM) system (copyright 1988, Gaussian, Inc.),
 the Gaussian 86(TM) system (copyright 1986, Carnegie Mellon
 University), and the Gaussian 82(TM) system (copyright 1983,
 Carnegie Mellon University). Gaussian is a federally registered
 trademark of Gaussian, Inc.
  
 This software contains proprietary and confidential information,
 including trade secrets, belonging to Gaussian, Inc.
  
 This software is provided under written license and may be
 used, copied, transmitted, or stored only in accord with that
 written license.
  
 The following legend is applicable only to US Government
 contracts under FAR:
  
                    RESTRICTED RIGHTS LEGEND
  
 Use, reproduction and disclosure by the US Government is
 subject to restrictions as set forth in subparagraphs (a)
 and (c) of the Commercial Computer Software - Restricted
 Rights clause in FAR 52.227-19.
  
 Gaussian, Inc.
 340 Quinnipiac St., Bldg. 40, Wallingford CT 06492
  
  
 ---------------------------------------------------------------
 Warning -- This program may not be used in any manner that
 competes with the business of Gaussian, Inc. or will provide
 assistance to any competitor of Gaussian, Inc.  The licensee
 of this program is prohibited from giving any competitor of
 Gaussian, Inc. access to this program.  By using this program,
 the user acknowledges that Gaussian, Inc. is engaged in the
 business of creating and licensing software in the field of
 computational chemistry and represents and warrants to the
 licensee that it is not a competitor of Gaussian, Inc. and that
 it will not use this program in any manner prohibited above.
 ---------------------------------------------------------------
  

 Cite this work as:
 Gaussian 16, Revision C.02,
 M. J. Frisch, G. W. Trucks, H. B. Schlegel, G. E. Scuseria, 
 M. A. Robb, J. R. Cheeseman, G. Scalmani, V. Barone, 
 G. A. Petersson, H. Nakatsuji, X. Li, M. Caricato, A. V. Marenich, 
 J. Bloino, B. G. Janesko, R. Gomperts, B. Mennucci, H. P. Hratchian, 
 J. V. Ortiz, A. F. Izmaylov, J. L. Sonnenberg, D. Williams-Young, 
 F. Ding, F. Lipparini, F. Egidi, J. Goings, B. Peng, A. Petrone, 
 T. Henderson, D. Ranasinghe, V. G. Zakrzewski, J. Gao, N. Rega, 
 G. Zheng, W. Liang, M. Hada, M. Ehara, K. Toyota, R. Fukuda, 
 J. Hasegawa, M. Ishida, T. Nakajima, Y. Honda, O. Kitao, H. Nakai, 
 T. Vreven, K. Throssell, J. A. Montgomery, Jr., J. E. Peralta, 
 F. Ogliaro, M. J. Bearpark, J. J. Heyd, E. N. Brothers, K. N. Kudin, 
 V. N. Staroverov, T. A. Keith, R. Kobayashi, J. Normand, 
 K. Raghavachari, A. P. Rendell, J. C. Burant, S. S. Iyengar, 
 J. Tomasi, M. Cossi, J. M. Millam, M. Klene, C. Adamo, R. Cammi, 
 J. W. Ochterski, R. L. Martin, K. Morokuma, O. Farkas, 
 J. B. Foresman, and D. J. Fox, Gaussian, Inc., Wallingford CT, 2019.
 
 ******************************************
 Gaussian 16:  ES64L-G16RevC.02  7-Dec-2021
                30-Jun-2023 
 ******************************************
 %mem=8GB
 %NPROCS=4
 Will use up to    4 processors via shared memory.
 %NoSave
 ---------------------------------------------------------
 #MP2/6-31G* SCF=Tight Opt=(ModRedun, MaxCycle=20 ) NoSymm
 ---------------------------------------------------------
 1/6=20,18=120,19=15,38=1/1,3;
 2/9=110,12=2,15=1,17=6,18=5,40=1/2;
 3/5=1,6=6,7=1,11=9,25=1,30=1,71=1/1,2,3;
 4//1;
 5/5=2,32=2,38=5/2;
 8/6=4,10=2/1;
 9/15=2,16=-3/6;
 10/5=1,31=1/2;
 6/7=2,8=2,9=2,10=2/1;
 7/12=2,30=1/1,2,3,16;
 1/6=20,18=20,19=15/3(2);
 2/9=110,15=1/2;
 99//99;
 2/9=110,15=1/2;
 3/5=1,6=6,7=1,11=9,25=1,30=1,71=1/1,2,3;
 4/5=5,16=3,69=1/1;
 5/5=2,32=2,38=5/2;
 8/6=4,10=2/1;
 9/15=2,16=-3/6;
 10/5=1,31=1/2;
 7/12=2,30=1/1,2,3,16;
 1/6=20,18=20,19=15/3(-8);
 2/9=110,15=1/2;
 6/7=2,8=2,9=2,10=2/1;
 99/9=10/99;
 --------
 MolName:
 --------
 Symbolic Z-matrix:
 Charge =  0 Multiplicity = 1
 8                    0    -3.93992   0.29476   0.77211 
 7                    0    -3.2389   -0.26485  -0.07112 
 8                    0    -3.66629  -1.01116  -0.9497 
 6                    0    -1.74984   0.00644  -0.05154 
 6                    0    -1.37325   1.28679   0.36227 
 7                    0    -0.08669   1.73044   0.52521 
 6                    0     1.19303   0.96239   0.43556 
 1                    0     1.85575   1.39837   1.22755 
 6                    0     1.95842   1.12211  -0.90173 
 6                    0     3.37086   0.52357  -0.75902 
 6                    0     3.30997  -0.93561  -0.28036 
 6                    0     2.46093  -1.07352   1.00175 
 6                    0     1.02345  -0.52173   0.79706 
 1                    0     0.47399  -0.63832   1.7606 
 7                    0     0.36911  -1.31297  -0.24881 
 6                    0    -0.87254  -1.09066  -0.53062 
 1                    0    -2.16974   2.00168   0.62893 
 1                    0     0.14566   2.72361   0.44885 
 1                    0     1.40988   0.60886  -1.72003 
 1                    0     2.04393   2.197    -1.16811 
 1                    0     3.90618   0.57846  -1.73215 
 1                    0     3.94689   1.1203   -0.01689 
 1                    0     2.86404  -1.56274  -1.0851 
 1                    0     4.33819  -1.31467  -0.09247 
 1                    0     2.4038   -2.1463    1.2891 
 1                    0     2.95352  -0.52635   1.83268 
 1                    0    -1.37541  -1.79189  -1.21401 
 
 The following ModRedundant input section has been read:
 D       1       2       4      16 F                                           
 D       7      13      15      16 F                                           
 D       7       9      10      11 F                                           
 D       9      10      11      12 F                                           
 D       6       7      13      15 F                                           
 

 GradGradGradGradGradGradGradGradGradGradGradGradGradGradGradGradGradGrad
 Berny optimization.
 Initialization pass.
                           ----------------------------
                           !    Initial Parameters    !
                           ! (Angstroms and Degrees)  !
 --------------------------                            --------------------------
 ! Name  Definition              Value          Derivative Info.                !
 --------------------------------------------------------------------------------
 ! R1    R(1,2)                  1.2311         estimate D2E/DX2                !
 ! R2    R(2,3)                  1.2294         estimate D2E/DX2                !
 ! R3    R(2,4)                  1.5137         estimate D2E/DX2                !
 ! R4    R(4,5)                  1.3973         estimate D2E/DX2                !
 ! R5    R(4,16)                 1.4842         estimate D2E/DX2                !
 ! R6    R(5,6)                  1.3706         estimate D2E/DX2                !
 ! R7    R(5,17)                 1.103          estimate D2E/DX2                !
 ! R8    R(6,7)                  1.4952         estimate D2E/DX2                !
 ! R9    R(6,18)                 1.0228         estimate D2E/DX2                !
 ! R10   R(7,8)                  1.1209         estimate D2E/DX2                !
 ! R11   R(7,9)                  1.5491         estimate D2E/DX2                !
 ! R12   R(7,13)                 1.5369         estimate D2E/DX2                !
 ! R13   R(9,10)                 1.5407         estimate D2E/DX2                !
 ! R14   R(9,19)                 1.1108         estimate D2E/DX2                !
 ! R15   R(9,20)                 1.1107         estimate D2E/DX2                !
 ! R16   R(10,11)                1.5369         estimate D2E/DX2                !
 ! R17   R(10,21)                1.112          estimate D2E/DX2                !
 ! R18   R(10,22)                1.1129         estimate D2E/DX2                !
 ! R19   R(11,12)                1.5439         estimate D2E/DX2                !
 ! R20   R(11,23)                1.1134         estimate D2E/DX2                !
 ! R21   R(11,24)                1.1119         estimate D2E/DX2                !
 ! R22   R(12,13)                1.5533         estimate D2E/DX2                !
 ! R23   R(12,25)                1.1121         estimate D2E/DX2                !
 ! R24   R(12,26)                1.1102         estimate D2E/DX2                !
 ! R25   R(13,14)                1.1153         estimate D2E/DX2                !
 ! R26   R(13,15)                1.4656         estimate D2E/DX2                !
 ! R27   R(15,16)                1.2925         estimate D2E/DX2                !
 ! R28   R(16,27)                1.1007         estimate D2E/DX2                !
 ! A1    A(1,2,3)              124.5724         estimate D2E/DX2                !
 ! A2    A(1,2,4)              118.023          estimate D2E/DX2                !
 ! A3    A(3,2,4)              117.3875         estimate D2E/DX2                !
 ! A4    A(2,4,5)              115.6702         estimate D2E/DX2                !
 ! A5    A(2,4,16)             116.412          estimate D2E/DX2                !
 ! A6    A(5,4,16)             127.8521         estimate D2E/DX2                !
 ! A7    A(4,5,6)              125.7886         estimate D2E/DX2                !
 ! A8    A(4,5,17)             118.0916         estimate D2E/DX2                !
 ! A9    A(6,5,17)             116.0592         estimate D2E/DX2                !
 ! A10   A(5,6,7)              129.0497         estimate D2E/DX2                !
 ! A11   A(5,6,18)             121.2417         estimate D2E/DX2                !
 ! A12   A(7,6,18)             107.4501         estimate D2E/DX2                !
 ! A13   A(6,7,8)              105.2992         estimate D2E/DX2                !
 ! A14   A(6,7,9)              114.9409         estimate D2E/DX2                !
 ! A15   A(6,7,13)             112.7988         estimate D2E/DX2                !
 ! A16   A(8,7,9)              106.1242         estimate D2E/DX2                !
 ! A17   A(8,7,13)             105.9399         estimate D2E/DX2                !
 ! A18   A(9,7,13)             110.9245         estimate D2E/DX2                !
 ! A19   A(7,9,10)             109.448          estimate D2E/DX2                !
 ! A20   A(7,9,19)             110.1398         estimate D2E/DX2                !
 ! A21   A(7,9,20)             110.1732         estimate D2E/DX2                !
 ! A22   A(10,9,19)            109.9653         estimate D2E/DX2                !
 ! A23   A(10,9,20)            109.1236         estimate D2E/DX2                !
 ! A24   A(19,9,20)            107.9683         estimate D2E/DX2                !
 ! A25   A(9,10,11)            111.1851         estimate D2E/DX2                !
 ! A26   A(9,10,21)            109.9439         estimate D2E/DX2                !
 ! A27   A(9,10,22)            109.1453         estimate D2E/DX2                !
 ! A28   A(11,10,21)           109.7848         estimate D2E/DX2                !
 ! A29   A(11,10,22)           108.7772         estimate D2E/DX2                !
 ! A30   A(21,10,22)           107.9334         estimate D2E/DX2                !
 ! A31   A(10,11,12)           111.4217         estimate D2E/DX2                !
 ! A32   A(10,11,23)           108.9974         estimate D2E/DX2                !
 ! A33   A(10,11,24)           109.8573         estimate D2E/DX2                !
 ! A34   A(12,11,23)           109.2467         estimate D2E/DX2                !
 ! A35   A(12,11,24)           109.7413         estimate D2E/DX2                !
 ! A36   A(23,11,24)           107.4867         estimate D2E/DX2                !
 ! A37   A(11,12,13)           111.5775         estimate D2E/DX2                !
 ! A38   A(11,12,25)           109.2078         estimate D2E/DX2                !
 ! A39   A(11,12,26)           109.4824         estimate D2E/DX2                !
 ! A40   A(13,12,25)           109.2201         estimate D2E/DX2                !
 ! A41   A(13,12,26)           109.522          estimate D2E/DX2                !
 ! A42   A(25,12,26)           107.7493         estimate D2E/DX2                !
 ! A43   A(7,13,12)            105.7788         estimate D2E/DX2                !
 ! A44   A(7,13,14)            111.0089         estimate D2E/DX2                !
 ! A45   A(7,13,15)            113.7495         estimate D2E/DX2                !
 ! A46   A(12,13,14)           107.7546         estimate D2E/DX2                !
 ! A47   A(12,13,15)           108.3865         estimate D2E/DX2                !
 ! A48   A(14,13,15)           109.8836         estimate D2E/DX2                !
 ! A49   A(13,15,16)           119.4477         estimate D2E/DX2                !
 ! A50   A(4,16,15)            128.6536         estimate D2E/DX2                !
 ! A51   A(4,16,27)            113.6575         estimate D2E/DX2                !
 ! A52   A(15,16,27)           117.6889         estimate D2E/DX2                !
 ! D1    D(1,2,4,5)            -32.7146         estimate D2E/DX2                !
 ! D2    D(1,2,4,16)           149.9999         Frozen                          !
 ! D3    D(3,2,4,5)            145.8507         estimate D2E/DX2                !
 ! D4    D(3,2,4,16)           -31.4348         estimate D2E/DX2                !
 ! D5    D(2,4,5,6)            176.3188         estimate D2E/DX2                !
 ! D6    D(2,4,5,17)            -0.727          estimate D2E/DX2                !
 ! D7    D(16,4,5,6)            -6.7605         estimate D2E/DX2                !
 ! D8    D(16,4,5,17)          176.1937         estimate D2E/DX2                !
 ! D9    D(2,4,16,15)         -156.0459         estimate D2E/DX2                !
 ! D10   D(2,4,16,27)           23.8826         estimate D2E/DX2                !
 ! D11   D(5,4,16,15)           27.0529         estimate D2E/DX2                !
 ! D12   D(5,4,16,27)         -153.0186         estimate D2E/DX2                !
 ! D13   D(4,5,6,7)             -6.271          estimate D2E/DX2                !
 ! D14   D(4,5,6,18)           154.4171         estimate D2E/DX2                !
 ! D15   D(17,5,6,7)           170.8279         estimate D2E/DX2                !
 ! D16   D(17,5,6,18)          -28.484          estimate D2E/DX2                !
 ! D17   D(5,6,7,8)           -143.047          estimate D2E/DX2                !
 ! D18   D(5,6,7,9)            100.5455         estimate D2E/DX2                !
 ! D19   D(5,6,7,13)           -27.97           estimate D2E/DX2                !
 ! D20   D(18,6,7,8)            54.1942         estimate D2E/DX2                !
 ! D21   D(18,6,7,9)           -62.2133         estimate D2E/DX2                !
 ! D22   D(18,6,7,13)          169.2711         estimate D2E/DX2                !
 ! D23   D(6,7,9,10)           168.644          estimate D2E/DX2                !
 ! D24   D(6,7,9,19)           -70.3459         estimate D2E/DX2                !
 ! D25   D(6,7,9,20)            48.653          estimate D2E/DX2                !
 ! D26   D(8,7,9,10)            52.7087         estimate D2E/DX2                !
 ! D27   D(8,7,9,19)           173.7188         estimate D2E/DX2                !
 ! D28   D(8,7,9,20)           -67.2823         estimate D2E/DX2                !
 ! D29   D(13,7,9,10)          -61.9111         estimate D2E/DX2                !
 ! D30   D(13,7,9,19)           59.099          estimate D2E/DX2                !
 ! D31   D(13,7,9,20)          178.0979         estimate D2E/DX2                !
 ! D32   D(6,7,13,12)         -166.1332         estimate D2E/DX2                !
 ! D33   D(6,7,13,14)          -49.52           estimate D2E/DX2                !
 ! D34   D(6,7,13,15)           75.0224         Frozen                          !
 ! D35   D(8,7,13,12)          -51.4424         estimate D2E/DX2                !
 ! D36   D(8,7,13,14)           65.1707         estimate D2E/DX2                !
 ! D37   D(8,7,13,15)         -170.2869         estimate D2E/DX2                !
 ! D38   D(9,7,13,12)           63.2926         estimate D2E/DX2                !
 ! D39   D(9,7,13,14)          179.9057         estimate D2E/DX2                !
 ! D40   D(9,7,13,15)          -55.5519         estimate D2E/DX2                !
 ! D41   D(7,9,10,11)           54.8123         Frozen                          !
 ! D42   D(7,9,10,21)          176.6031         estimate D2E/DX2                !
 ! D43   D(7,9,10,22)          -65.1867         estimate D2E/DX2                !
 ! D44   D(19,9,10,11)         -66.3035         estimate D2E/DX2                !
 ! D45   D(19,9,10,21)          55.4873         estimate D2E/DX2                !
 ! D46   D(19,9,10,22)         173.6975         estimate D2E/DX2                !
 ! D47   D(20,9,10,11)         175.4443         estimate D2E/DX2                !
 ! D48   D(20,9,10,21)         -62.7649         estimate D2E/DX2                !
 ! D49   D(20,9,10,22)          55.4454         estimate D2E/DX2                !
 ! D50   D(9,10,11,12)         -52.8225         Frozen                          !
 ! D51   D(9,10,11,23)          67.8124         estimate D2E/DX2                !
 ! D52   D(9,10,11,24)        -174.657          estimate D2E/DX2                !
 ! D53   D(21,10,11,12)       -174.7059         estimate D2E/DX2                !
 ! D54   D(21,10,11,23)        -54.0709         estimate D2E/DX2                !
 ! D55   D(21,10,11,24)         63.4596         estimate D2E/DX2                !
 ! D56   D(22,10,11,12)         67.3946         estimate D2E/DX2                !
 ! D57   D(22,10,11,23)       -171.9705         estimate D2E/DX2                !
 ! D58   D(22,10,11,24)        -54.4399         estimate D2E/DX2                !
 ! D59   D(10,11,12,13)         56.6452         estimate D2E/DX2                !
 ! D60   D(10,11,12,25)        177.4859         estimate D2E/DX2                !
 ! D61   D(10,11,12,26)        -64.7598         estimate D2E/DX2                !
 ! D62   D(23,11,12,13)        -63.8434         estimate D2E/DX2                !
 ! D63   D(23,11,12,25)         56.9974         estimate D2E/DX2                !
 ! D64   D(23,11,12,26)        174.7517         estimate D2E/DX2                !
 ! D65   D(24,11,12,13)        178.547          estimate D2E/DX2                !
 ! D66   D(24,11,12,25)        -60.6123         estimate D2E/DX2                !
 ! D67   D(24,11,12,26)         57.142          estimate D2E/DX2                !
 ! D68   D(11,12,13,7)         -60.3819         estimate D2E/DX2                !
 ! D69   D(11,12,13,14)       -179.1757         estimate D2E/DX2                !
 ! D70   D(11,12,13,15)         61.9585         estimate D2E/DX2                !
 ! D71   D(25,12,13,7)         178.7845         estimate D2E/DX2                !
 ! D72   D(25,12,13,14)         59.9907         estimate D2E/DX2                !
 ! D73   D(25,12,13,15)        -58.8751         estimate D2E/DX2                !
 ! D74   D(26,12,13,7)          61.0001         estimate D2E/DX2                !
 ! D75   D(26,12,13,14)        -57.7937         estimate D2E/DX2                !
 ! D76   D(26,12,13,15)       -176.6595         estimate D2E/DX2                !
 ! D77   D(7,13,15,16)         -67.1606         Frozen                          !
 ! D78   D(12,13,15,16)        175.4963         estimate D2E/DX2                !
 ! D79   D(14,13,15,16)         57.9844         estimate D2E/DX2                !
 ! D80   D(13,15,16,4)           8.4949         estimate D2E/DX2                !
 ! D81   D(13,15,16,27)       -171.4311         estimate D2E/DX2                !
 --------------------------------------------------------------------------------
 Trust Radius=3.00D-01 FncErr=1.00D-07 GrdErr=1.00D-07 EigMax=2.50D+02 EigMin=1.00D-04
 Number of steps in this run=     20 maximum allowed number of steps=    162.
 GradGradGradGradGradGradGradGradGradGradGradGradGradGradGradGradGradGrad

                          Input orientation:                          
 ---------------------------------------------------------------------
 Center     Atomic      Atomic             Coordinates (Angstroms)
 Number     Number       Type             X           Y           Z
 ---------------------------------------------------------------------
      1          8           0       -3.939920    0.294760    0.772110
      2          7           0       -3.238900   -0.264850   -0.071120
      3          8           0       -3.666290   -1.011160   -0.949700
      4          6           0       -1.749840    0.006440   -0.051540
      5          6           0       -1.373250    1.286790    0.362270
      6          7           0       -0.086690    1.730440    0.525210
      7          6           0        1.193030    0.962390    0.435560
      8          1           0        1.855750    1.398370    1.227550
      9          6           0        1.958420    1.122110   -0.901730
     10          6           0        3.370860    0.523570   -0.759020
     11          6           0        3.309970   -0.935610   -0.280360
     12          6           0        2.460930   -1.073520    1.001750
     13          6           0        1.023450   -0.521730    0.797060
     14          1           0        0.473990   -0.638320    1.760600
     15          7           0        0.369110   -1.312970   -0.248810
     16          6           0       -0.872540   -1.090660   -0.530620
     17          1           0       -2.169740    2.001680    0.628930
     18          1           0        0.145660    2.723610    0.448850
     19          1           0        1.409880    0.608860   -1.720030
     20          1           0        2.043930    2.197000   -1.168110
     21          1           0        3.906180    0.578460   -1.732150
     22          1           0        3.946890    1.120300   -0.016890
     23          1           0        2.864040   -1.562740   -1.085100
     24          1           0        4.338190   -1.314670   -0.092470
     25          1           0        2.403800   -2.146300    1.289100
     26          1           0        2.953520   -0.526350    1.832680
     27          1           0       -1.375410   -1.791890   -1.214010
 ---------------------------------------------------------------------
                    Distance matrix (angstroms):
                    1          2          3          4          5
     1  O    0.000000
     2  N    1.231109   0.000000
     3  O    2.178286   1.229449   0.000000
     4  C    2.357536   1.513698   2.348400   0.000000
     5  C    2.782065   2.464967   3.501410   1.397267   0.000000
     6  N    4.119407   3.777991   4.743972   2.463916   1.370624
     7  C    5.187116   4.626537   5.424651   3.132346   2.587740
     8  H    5.917362   5.514372   6.406183   4.071096   3.344787
     9  C    6.186814   5.442950   6.015854   3.964686   3.567189
    10  C    7.472899   6.692065   7.205084   5.195144   4.934205
    11  C    7.428486   6.586456   7.008704   5.151844   5.223465
    12  C    6.549489   5.856028   6.430775   4.472842   4.547630
    13  C    5.030141   4.357448   5.028357   2.947918   3.033803
    14  H    4.618479   4.156950   4.962525   2.940236   3.012253
    15  N    4.711137   3.761365   4.106920   2.503938   3.188728
    16  C    3.609060   2.548090   2.826126   1.484184   2.588481
    17  H    2.463253   2.601986   3.716038   2.149497   1.102983
    18  H    4.764008   4.544943   5.516830   3.350571   2.092614
    19  H    5.910142   5.009334   5.383807   3.623617   3.541380
    20  H    6.571867   5.930631   6.553366   4.520838   3.853267
    21  H    8.240940   7.383926   7.776980   5.928087   5.723697
    22  H    7.969053   7.318276   7.960764   5.804706   5.336232
    23  H    7.293381   6.321278   6.554982   4.981813   5.307478
    24  H    8.477315   7.649501   8.055971   6.229857   6.292450
    25  H    6.816805   6.101649   6.568619   4.866655   5.187603
    26  H    7.022716   6.483741   7.197122   5.094678   4.916352
    27  H    3.856876   2.666579   2.434652   2.173827   3.458747
                    6          7          8          9         10
     6  N    0.000000
     7  C    1.495199   0.000000
     8  H    2.092039   1.120948   0.000000
     9  C    2.566846   1.549089   2.149580   0.000000
    10  C    3.880777   2.522405   2.647129   1.540650   0.000000
    11  C    4.392501   2.931958   3.136242   2.539094   1.536889
    12  C    3.818331   2.464360   2.554891   2.948990   2.545384
    13  C    2.525586   1.536897   2.136546   2.542099   3.004059
    14  H    2.729757   2.198868   2.518235   3.520035   4.011275
    15  N    3.173201   2.514850   3.426529   2.980239   3.555798
    16  C    3.113028   3.068403   4.090232   3.612258   4.545806
    17  H    2.103194   3.525016   4.114231   4.489796   5.899954
    18  H    1.022841   2.049160   2.299357   2.770373   4.086691
    19  H    2.922117   2.195125   3.083886   1.110827   2.185465
    20  H    2.761259   2.195461   2.532273   1.110702   2.174504
    21  H    4.729243   3.493931   3.692741   2.186074   1.112008
    22  H    4.115326   2.795244   2.449249   2.176455   1.112948
    23  H    4.705841   3.388357   3.890138   2.839400   2.171609
    24  H    5.406828   3.918654   3.907115   3.500872   2.181546
    25  H    4.670672   3.443610   3.587316   3.959874   3.501172
    26  H    4.005678   2.695852   2.296917   3.344345   2.827263
    27  H    4.134307   4.111450   5.155518   4.438844   5.300514
                   11         12         13         14         15
    11  C    0.000000
    12  C    1.543922   0.000000
    13  C    2.561309   1.553293   0.000000
    14  H    3.506662   2.170987   1.115307   0.000000
    15  N    2.965140   2.448867   1.465628   2.122235   0.000000
    16  C    4.192858   3.668852   2.383525   2.695820   1.292491
    17  H    6.283447   5.571261   4.073368   3.903791   4.266508
    18  H    4.892289   4.481559   3.379940   3.623681   4.102516
    19  H    2.840489   3.367966   2.786271   3.813939   2.634601
    20  H    3.493451   3.946959   3.506389   4.368191   3.996251
    21  H    2.180727   3.505994   3.989668   5.045769   4.276525
    22  H    2.168375   2.838759   3.450403   4.279398   4.333024
    23  H    1.113442   2.181004   2.830901   3.829478   2.643188
    24  H    1.111857   2.186224   3.522431   4.338590   3.972158
    25  H    2.179477   1.112066   2.187852   2.494090   2.683201
    26  H    2.181625   1.110173   2.190365   2.483103   3.410359
    27  H    4.853628   4.488112   3.378200   3.687724   2.050445
                   16         17         18         19         20
    16  C    0.000000
    17  H    3.548218   0.000000
    18  H    4.067524   2.432013   0.000000
    19  H    3.084235   4.502359   3.282447   0.000000
    20  H    4.440822   4.585032   2.548589   1.796893   0.000000
    21  H    5.202480   6.672110   4.847674   2.496515   2.530966
    22  H    5.327210   6.213459   4.151731   3.098173   2.471001
    23  H    3.806880   6.401713   5.302395   2.689529   3.849041
    24  H    5.233915   7.339738   5.846199   3.863149   4.330411
    25  H    3.893605   6.209576   5.433345   4.199244   5.003163
    26  H    4.532369   5.838471   4.512350   4.036493   4.153159
    27  H    1.100738   4.291685   5.046632   3.711805   5.254069
                   21         22         23         24         25
    21  H    0.000000
    22  H    1.799268   0.000000
    23  H    2.467685   3.084208   0.000000
    24  H    2.541481   2.467368   1.794428   0.000000
    25  H    4.336982   3.841538   2.487808   2.518374   0.000000
    26  H    3.851776   2.668173   3.097669   2.498992   1.794968
    27  H    5.812248   6.183917   4.247595   5.842158   4.546822
                   26         27
    26  H    0.000000
    27  H    5.442752   0.000000
 Symmetry turned off by external request.
 Stoichiometry    C9H13N3O2
 Framework group  C1[X(C9H13N3O2)]
 Deg. of freedom    75
 Full point group                 C1      NOp   1
 Rotational constants (GHZ):           1.6712142           0.3971911           0.3621899
 Standard basis: 6-31G(d) (6D, 7F)
   236 basis functions,   444 primitive gaussians,   236 cartesian basis functions
    52 alpha electrons       52 beta electrons
       nuclear repulsion energy       918.3807588313 Hartrees.
 NAtoms=   27 NActive=   27 NUniq=   27 SFac= 1.00D+00 NAtFMM=   60 NAOKFM=F Big=F
 Integral buffers will be    131072 words long.
 Raffenetti 1 integral format.
 Two-electron integral symmetry is turned off.
 One-electron integrals computed using PRISM.
 NBasis=   236 RedAO= T EigKep=  1.67D-03  NBF=   236
 NBsUse=   236 1.00D-06 EigRej= -1.00D+00 NBFU=   236
 ExpMin= 1.61D-01 ExpMax= 5.48D+03 ExpMxC= 8.25D+02 IAcc=3 IRadAn=         5 AccDes= 0.00D+00
 Harris functional with IExCor=  205 and IRadAn=       5 diagonalized for initial guess.
 HarFok:  IExCor=  205 AccDes= 0.00D+00 IRadAn=         5 IDoV= 1 UseB2=F ITyADJ=14
 ICtDFT=  3500011 ScaDFX=  1.000000  1.000000  1.000000  1.000000
 FoFCou: FMM=F IPFlag=           0 FMFlag=      100000 FMFlg1=           0
         NFxFlg=           0 DoJE=T BraDBF=F KetDBF=T FulRan=T
         wScrn=  0.000000 ICntrl=       500 IOpCl=  0 I1Cent=   200000004 NGrid=           0
         NMat0=    1 NMatS0=      1 NMatT0=    0 NMatD0=    1 NMtDS0=    0 NMtDT0=    0
 Symmetry not used in FoFCou.
 Keep R1 ints in memory in canonical form, NReq=397720213.
 Requested convergence on RMS density matrix=1.00D-08 within 128 cycles.
 Requested convergence on MAX density matrix=1.00D-06.
 Requested convergence on             energy=1.00D-06.
 No special actions if energy rises.
 SCF Done:  E(RHF) =  -661.280069554     A.U. after   17 cycles
            NFock= 17  Conv=0.49D-08     -V/T= 2.0036
 ExpMin= 1.61D-01 ExpMax= 5.48D+03 ExpMxC= 8.25D+02 IAcc=3 IRadAn=         5 AccDes= 0.00D+00
 HarFok:  IExCor=  205 AccDes= 0.00D+00 IRadAn=         5 IDoV=-2 UseB2=F ITyADJ=14
 ICtDFT= 12500011 ScaDFX=  1.000000  1.000000  1.000000  1.000000
 Range of M.O.s used for correlation:    15   236
 NBasis=   236 NAE=    52 NBE=    52 NFC=    14 NFV=     0
 NROrb=    222 NOA=    38 NOB=    38 NVA=   184 NVB=   184
 Fully direct method using O(ONN) memory.
 JobTyp=1 Pass  1:  I=  15 to  52 NPSUse=  4 ParTrn=T ParDer=T DoDerP=T.
 Spin components of T(2) and E(2):
     alpha-alpha T2 =       0.9198769183D-01 E2=     -0.2718813227D+00
     alpha-beta  T2 =       0.5000164731D+00 E2=     -0.1494293683D+01
     beta-beta   T2 =       0.9198769183D-01 E2=     -0.2718813227D+00
 ANorm=    0.1297687118D+01
 E2 =    -0.2038056329D+01 EUMP2 =    -0.66331812588307D+03
          IDoAtm=111111111111111111111111111
          Differentiating once with respect to electric field.
                with respect to dipole field.
          Differentiating once with respect to nuclear coordinates.
 Keep R1 ints in memory in canonical form, NReq=397723379.
          There are     1 degrees of freedom in the 1st order CPHF.  IDoFFX=0 NUNeed=     1.
 LinEq1:  Iter=  0 NonCon=     1 RMS=4.58D-03 Max=1.15D-01 NDo=     1
 AX will form     1 AO Fock derivatives at one time.
 LinEq1:  Iter=  1 NonCon=     1 RMS=1.55D-03 Max=3.31D-02 NDo=     1
 LinEq1:  Iter=  2 NonCon=     1 RMS=6.32D-04 Max=1.94D-02 NDo=     1
 LinEq1:  Iter=  3 NonCon=     1 RMS=2.89D-04 Max=7.81D-03 NDo=     1
 LinEq1:  Iter=  4 NonCon=     1 RMS=8.81D-05 Max=1.86D-03 NDo=     1
 LinEq1:  Iter=  5 NonCon=     1 RMS=3.62D-05 Max=1.71D-03 NDo=     1
 LinEq1:  Iter=  6 NonCon=     1 RMS=1.54D-05 Max=6.36D-04 NDo=     1
 LinEq1:  Iter=  7 NonCon=     1 RMS=6.07D-06 Max=1.22D-04 NDo=     1
 LinEq1:  Iter=  8 NonCon=     1 RMS=2.45D-06 Max=6.11D-05 NDo=     1
 LinEq1:  Iter=  9 NonCon=     1 RMS=9.65D-07 Max=2.53D-05 NDo=     1
 LinEq1:  Iter= 10 NonCon=     1 RMS=4.45D-07 Max=1.13D-05 NDo=     1
 LinEq1:  Iter= 11 NonCon=     1 RMS=1.57D-07 Max=5.94D-06 NDo=     1
 LinEq1:  Iter= 12 NonCon=     1 RMS=5.63D-08 Max=9.70D-07 NDo=     1
 LinEq1:  Iter= 13 NonCon=     1 RMS=1.82D-08 Max=4.43D-07 NDo=     1
 LinEq1:  Iter= 14 NonCon=     1 RMS=6.08D-09 Max=1.81D-07 NDo=     1
 LinEq1:  Iter= 15 NonCon=     1 RMS=2.27D-09 Max=5.22D-08 NDo=     1
 LinEq1:  Iter= 16 NonCon=     1 RMS=8.09D-10 Max=1.36D-08 NDo=     1
 LinEq1:  Iter= 17 NonCon=     1 RMS=2.69D-10 Max=4.07D-09 NDo=     1
 LinEq1:  Iter= 18 NonCon=     1 RMS=9.57D-11 Max=1.34D-09 NDo=     1
 LinEq1:  Iter= 19 NonCon=     0 RMS=3.03D-11 Max=4.62D-10 NDo=     1
 Linear equations converged to 1.000D-10 1.000D-09 after    19 iterations.
 End of Minotr F.D. properties file   721 does not exist.
 End of Minotr F.D. properties file   722 does not exist.
 End of Minotr F.D. properties file   788 does not exist.

 **********************************************************************

            Population analysis using the SCF Density.

 **********************************************************************

 Alpha  occ. eigenvalues --  -20.59878 -20.59837 -15.85243 -15.63181 -15.56774
 Alpha  occ. eigenvalues --  -11.35761 -11.30465 -11.30023 -11.29897 -11.27658
 Alpha  occ. eigenvalues --  -11.24563 -11.23835 -11.23364 -11.22821  -1.58697
 Alpha  occ. eigenvalues --   -1.38299  -1.28478  -1.22691  -1.13348  -1.08575
 Alpha  occ. eigenvalues --   -1.01771  -1.00679  -0.93646  -0.88976  -0.84869
 Alpha  occ. eigenvalues --   -0.81620  -0.78096  -0.77053  -0.74238  -0.71298
 Alpha  occ. eigenvalues --   -0.70679  -0.69434  -0.67375  -0.64284  -0.63208
 Alpha  occ. eigenvalues --   -0.61666  -0.60379  -0.57401  -0.56396  -0.54804
 Alpha  occ. eigenvalues --   -0.53576  -0.50821  -0.49557  -0.48591  -0.47944
 Alpha  occ. eigenvalues --   -0.47706  -0.46286  -0.45559  -0.44101  -0.42060
 Alpha  occ. eigenvalues --   -0.39895  -0.33495
 Alpha virt. eigenvalues --    0.07820   0.11709   0.18120   0.21326   0.22796
 Alpha virt. eigenvalues --    0.24056   0.25821   0.27625   0.28632   0.28845
 Alpha virt. eigenvalues --    0.30103   0.31260   0.31843   0.32326   0.33398
 Alpha virt. eigenvalues --    0.33830   0.34593   0.35626   0.37599   0.38591
 Alpha virt. eigenvalues --    0.40548   0.42044   0.44970   0.45328   0.45831
 Alpha virt. eigenvalues --    0.46374   0.49250   0.53529   0.57533   0.59018
 Alpha virt. eigenvalues --    0.63085   0.69073   0.69299   0.72200   0.73831
 Alpha virt. eigenvalues --    0.74742   0.75833   0.75951   0.77800   0.79201
 Alpha virt. eigenvalues --    0.79467   0.83636   0.84955   0.85614   0.88048
 Alpha virt. eigenvalues --    0.89136   0.90364   0.90443   0.91933   0.93688
 Alpha virt. eigenvalues --    0.95212   0.97056   0.99233   1.00328   1.01535
 Alpha virt. eigenvalues --    1.03307   1.05130   1.06403   1.07139   1.08264
 Alpha virt. eigenvalues --    1.08848   1.10499   1.11397   1.12149   1.13273
 Alpha virt. eigenvalues --    1.13584   1.13794   1.15622   1.16331   1.17237
 Alpha virt. eigenvalues --    1.17889   1.18416   1.20024   1.21409   1.21721
 Alpha virt. eigenvalues --    1.23389   1.24783   1.25955   1.27607   1.28665
 Alpha virt. eigenvalues --    1.31060   1.32754   1.34360   1.36057   1.37981
 Alpha virt. eigenvalues --    1.41476   1.43453   1.44620   1.46303   1.48326
 Alpha virt. eigenvalues --    1.54405   1.54694   1.59426   1.63539   1.65419
 Alpha virt. eigenvalues --    1.67975   1.70200   1.72546   1.73183   1.75571
 Alpha virt. eigenvalues --    1.77933   1.80119   1.84803   1.89224   1.90023
 Alpha virt. eigenvalues --    1.92593   1.96055   1.98169   1.98781   2.00346
 Alpha virt. eigenvalues --    2.01223   2.04409   2.06489   2.08658   2.12561
 Alpha virt. eigenvalues --    2.13429   2.14527   2.17906   2.19358   2.19999
 Alpha virt. eigenvalues --    2.21266   2.23377   2.24082   2.25847   2.26505
 Alpha virt. eigenvalues --    2.29299   2.32068   2.33718   2.35564   2.36615
 Alpha virt. eigenvalues --    2.38097   2.38691   2.40884   2.43582   2.44771
 Alpha virt. eigenvalues --    2.48142   2.49654   2.50472   2.56438   2.58389
 Alpha virt. eigenvalues --    2.60630   2.62686   2.66330   2.68476   2.68968
 Alpha virt. eigenvalues --    2.69596   2.70246   2.73319   2.75400   2.83554
 Alpha virt. eigenvalues --    2.86355   2.87278   2.89727   2.91339   2.93388
 Alpha virt. eigenvalues --    2.97728   2.98543   3.02550   3.03634   3.05859
 Alpha virt. eigenvalues --    3.07559   3.12853   3.19161   3.19846   3.24840
 Alpha virt. eigenvalues --    3.31110   3.33953   3.37950   3.41935   3.59611
 Alpha virt. eigenvalues --    4.09283   4.20670   4.26431   4.32707   4.44360
 Alpha virt. eigenvalues --    4.52984   4.59625   4.60952   4.71011   4.77221
 Alpha virt. eigenvalues --    4.96427   4.99275   5.03022   5.09907
          Condensed to atoms (all electrons):
               1          2          3          4          5          6
     1  O    8.310804   0.310641  -0.084209  -0.087404   0.008191   0.000317
     2  N    0.310641   5.712074   0.305168   0.249392  -0.042175   0.001169
     3  O   -0.084209   0.305168   8.302348  -0.079547   0.002031  -0.000019
     4  C   -0.087404   0.249392  -0.079547   5.257788   0.567076  -0.050455
     5  C    0.008191  -0.042175   0.002031   0.567076   4.657505   0.314328
     6  N    0.000317   0.001169  -0.000019  -0.050455   0.314328   7.180046
     7  C    0.000007  -0.000089  -0.000000   0.003697  -0.031719   0.202866
     8  H   -0.000000   0.000002  -0.000000  -0.000200   0.002517  -0.049757
     9  C    0.000000  -0.000004   0.000000   0.000536   0.001553  -0.056759
    10  C   -0.000000   0.000000  -0.000000  -0.000019  -0.000061   0.003343
    11  C   -0.000000  -0.000000  -0.000000  -0.000018   0.000014  -0.000153
    12  C   -0.000000   0.000001   0.000000  -0.000078  -0.000114   0.003571
    13  C   -0.000009  -0.000047  -0.000004  -0.010435   0.000965  -0.045167
    14  H   -0.000004  -0.000063   0.000001   0.002901   0.005001  -0.005599
    15  N   -0.000009   0.001575   0.000376  -0.062870  -0.004485   0.002517
    16  C    0.002106  -0.026847   0.003567   0.317427  -0.038045  -0.001883
    17  H    0.009126  -0.003285   0.000121  -0.033667   0.382361  -0.033026
    18  H    0.000003  -0.000041   0.000001   0.001026  -0.023169   0.327643
    19  H    0.000000  -0.000000   0.000000  -0.000775   0.000731   0.000636
    20  H    0.000000  -0.000000   0.000000  -0.000030   0.000044  -0.001623
    21  H    0.000000  -0.000000  -0.000000   0.000000   0.000001  -0.000059
    22  H   -0.000000   0.000000   0.000000  -0.000000  -0.000002  -0.000097
    23  H    0.000000  -0.000000   0.000000   0.000025  -0.000000  -0.000024
    24  H    0.000000   0.000000   0.000000   0.000000  -0.000000   0.000004
    25  H    0.000000  -0.000000   0.000000   0.000018  -0.000000  -0.000071
    26  H    0.000000  -0.000000   0.000000   0.000005  -0.000001  -0.000065
    27  H    0.000065  -0.000134   0.006712  -0.064440   0.001852   0.000028
               7          8          9         10         11         12
     1  O    0.000007  -0.000000   0.000000  -0.000000  -0.000000  -0.000000
     2  N   -0.000089   0.000002  -0.000004   0.000000  -0.000000   0.000001
     3  O   -0.000000  -0.000000   0.000000  -0.000000  -0.000000   0.000000
     4  C    0.003697  -0.000200   0.000536  -0.000019  -0.000018  -0.000078
     5  C   -0.031719   0.002517   0.001553  -0.000061   0.000014  -0.000114
     6  N    0.202866  -0.049757  -0.056759   0.003343  -0.000153   0.003571
     7  C    5.005167   0.416192   0.341050  -0.049345  -0.007693  -0.064406
     8  H    0.416192   0.547730  -0.060632   0.001415  -0.000316  -0.002846
     9  C    0.341050  -0.060632   5.181445   0.317881  -0.053063  -0.006168
    10  C   -0.049345   0.001415   0.317881   5.126890   0.332773  -0.060166
    11  C   -0.007693  -0.000316  -0.053063   0.332773   5.124142   0.330588
    12  C   -0.064406  -0.002846  -0.006168  -0.060166   0.330588   5.137515
    13  C    0.331605  -0.040040  -0.050869  -0.001647  -0.047905   0.367825
    14  H   -0.040050  -0.000939   0.003841  -0.000388   0.003952  -0.040629
    15  N   -0.059566   0.004062  -0.012801   0.001487  -0.007745  -0.074169
    16  C   -0.001716  -0.000028  -0.000653  -0.000038   0.000022   0.002422
    17  H    0.001516  -0.000019  -0.000072   0.000001   0.000000   0.000001
    18  H   -0.028646  -0.002706   0.000786  -0.000117   0.000011  -0.000134
    19  H   -0.035015   0.004093   0.386108  -0.032641  -0.002259   0.000632
    20  H   -0.041662  -0.001829   0.397201  -0.037362   0.004138  -0.000361
    21  H    0.004043  -0.000081  -0.035817   0.400115  -0.035858   0.004213
    22  H   -0.004231   0.003524  -0.045675   0.395932  -0.045614  -0.001240
    23  H    0.000436   0.000033  -0.002000  -0.040112   0.396688  -0.036667
    24  H   -0.000143  -0.000098   0.004393  -0.038486   0.400260  -0.037873
    25  H    0.004996  -0.000005  -0.000371   0.004102  -0.033942   0.395346
    26  H   -0.004446   0.001575   0.001044  -0.002405  -0.042302   0.394674
    27  H   -0.000381   0.000008  -0.000056   0.000005   0.000005  -0.000017
              13         14         15         16         17         18
     1  O   -0.000009  -0.000004  -0.000009   0.002106   0.009126   0.000003
     2  N   -0.000047  -0.000063   0.001575  -0.026847  -0.003285  -0.000041
     3  O   -0.000004   0.000001   0.000376   0.003567   0.000121   0.000001
     4  C   -0.010435   0.002901  -0.062870   0.317427  -0.033667   0.001026
     5  C    0.000965   0.005001  -0.004485  -0.038045   0.382361  -0.023169
     6  N   -0.045167  -0.005599   0.002517  -0.001883  -0.033026   0.327643
     7  C    0.331605  -0.040050  -0.059566  -0.001716   0.001516  -0.028646
     8  H   -0.040040  -0.000939   0.004062  -0.000028  -0.000019  -0.002706
     9  C   -0.050869   0.003841  -0.012801  -0.000653  -0.000072   0.000786
    10  C   -0.001647  -0.000388   0.001487  -0.000038   0.000001  -0.000117
    11  C   -0.047905   0.003952  -0.007745   0.000022   0.000000   0.000011
    12  C    0.367825  -0.040629  -0.074169   0.002422   0.000001  -0.000134
    13  C    5.022931   0.402573   0.242072  -0.068880  -0.000052   0.003679
    14  H    0.402573   0.517308  -0.035387  -0.005420   0.000066   0.000007
    15  N    0.242072  -0.035387   6.939031   0.585110  -0.000053  -0.000112
    16  C   -0.068880  -0.005420   0.585110   4.712717   0.001490  -0.000221
    17  H   -0.000052   0.000066  -0.000053   0.001490   0.397549  -0.001857
    18  H    0.003679   0.000007  -0.000112  -0.000221  -0.001857   0.325940
    19  H   -0.006220   0.000064   0.006886   0.002354   0.000012  -0.000121
    20  H    0.003864  -0.000050   0.000080  -0.000033  -0.000001   0.002814
    21  H   -0.000379   0.000009  -0.000030   0.000002  -0.000000  -0.000000
    22  H    0.000319  -0.000044   0.000004  -0.000001   0.000000   0.000002
    23  H   -0.005869   0.000008   0.006785   0.000061   0.000000   0.000000
    24  H    0.004143  -0.000058   0.000041   0.000005   0.000000  -0.000000
    25  H   -0.034492  -0.002658   0.000829  -0.000067  -0.000000   0.000002
    26  H   -0.044742  -0.000917   0.004179  -0.000054   0.000000  -0.000001
    27  H    0.004715  -0.000181  -0.039744   0.401943  -0.000065   0.000002
              19         20         21         22         23         24
     1  O    0.000000   0.000000   0.000000  -0.000000   0.000000   0.000000
     2  N   -0.000000  -0.000000  -0.000000   0.000000  -0.000000   0.000000
     3  O    0.000000   0.000000  -0.000000   0.000000   0.000000   0.000000
     4  C   -0.000775  -0.000030   0.000000  -0.000000   0.000025   0.000000
     5  C    0.000731   0.000044   0.000001  -0.000002  -0.000000  -0.000000
     6  N    0.000636  -0.001623  -0.000059  -0.000097  -0.000024   0.000004
     7  C   -0.035015  -0.041662   0.004043  -0.004231   0.000436  -0.000143
     8  H    0.004093  -0.001829  -0.000081   0.003524   0.000033  -0.000098
     9  C    0.386108   0.397201  -0.035817  -0.045675  -0.002000   0.004393
    10  C   -0.032641  -0.037362   0.400115   0.395932  -0.040112  -0.038486
    11  C   -0.002259   0.004138  -0.035858  -0.045614   0.396688   0.400260
    12  C    0.000632  -0.000361   0.004213  -0.001240  -0.036667  -0.037873
    13  C   -0.006220   0.003864  -0.000379   0.000319  -0.005869   0.004143
    14  H    0.000064  -0.000050   0.000009  -0.000044   0.000008  -0.000058
    15  N    0.006886   0.000080  -0.000030   0.000004   0.006785   0.000041
    16  C    0.002354  -0.000033   0.000002  -0.000001   0.000061   0.000005
    17  H    0.000012  -0.000001  -0.000000   0.000000   0.000000   0.000000
    18  H   -0.000121   0.002814  -0.000000   0.000002   0.000000  -0.000000
    19  H    0.506591  -0.023961  -0.002594   0.003759   0.001645  -0.000070
    20  H   -0.023961   0.550190  -0.002625  -0.002962  -0.000050  -0.000090
    21  H   -0.002594  -0.002625   0.526271  -0.024719  -0.002817  -0.002064
    22  H    0.003759  -0.002962  -0.024719   0.569005   0.004063  -0.003593
    23  H    0.001645  -0.000050  -0.002817   0.004063   0.509853  -0.025000
    24  H   -0.000070  -0.000090  -0.002064  -0.003593  -0.025000   0.541296
    25  H   -0.000027   0.000011  -0.000086  -0.000082  -0.002088  -0.002388
    26  H    0.000023  -0.000035  -0.000073   0.002462   0.003820  -0.002763
    27  H    0.000071  -0.000000  -0.000000   0.000000  -0.000022  -0.000000
              25         26         27
     1  O    0.000000   0.000000   0.000065
     2  N   -0.000000  -0.000000  -0.000134
     3  O    0.000000   0.000000   0.006712
     4  C    0.000018   0.000005  -0.064440
     5  C   -0.000000  -0.000001   0.001852
     6  N   -0.000071  -0.000065   0.000028
     7  C    0.004996  -0.004446  -0.000381
     8  H   -0.000005   0.001575   0.000008
     9  C   -0.000371   0.001044  -0.000056
    10  C    0.004102  -0.002405   0.000005
    11  C   -0.033942  -0.042302   0.000005
    12  C    0.395346   0.394674  -0.000017
    13  C   -0.034492  -0.044742   0.004715
    14  H   -0.002658  -0.000917  -0.000181
    15  N    0.000829   0.004179  -0.039744
    16  C   -0.000067  -0.000054   0.401943
    17  H   -0.000000   0.000000  -0.000065
    18  H    0.000002  -0.000001   0.000002
    19  H   -0.000027   0.000023   0.000071
    20  H    0.000011  -0.000035  -0.000000
    21  H   -0.000086  -0.000073  -0.000000
    22  H   -0.000082   0.002462   0.000000
    23  H   -0.002088   0.003820  -0.000022
    24  H   -0.002388  -0.002763  -0.000000
    25  H    0.511040  -0.023141  -0.000010
    26  H   -0.023141   0.560890   0.000001
    27  H   -0.000010   0.000001   0.441847
 Mulliken charges:
               1
     1  O   -0.469627
     2  N    0.492661
     3  O   -0.456547
     4  C   -0.009955
     5  C    0.195600
     6  N   -0.791712
     7  C    0.057532
     8  H    0.178348
     9  C   -0.310898
    10  C   -0.321157
    11  C   -0.315726
    12  C   -0.311920
    13  C   -0.027933
    14  H    0.196658
    15  N   -0.498060
    16  C    0.114660
    17  H    0.279853
    18  H    0.395209
    19  H    0.190078
    20  H    0.154330
    21  H    0.172549
    22  H    0.149188
    23  H    0.191232
    24  H    0.162484
    25  H    0.183085
    26  H    0.152272
    27  H    0.247796
 Sum of Mulliken charges =  -0.00000
 Mulliken charges with hydrogens summed into heavy atoms:
               1
     1  O   -0.469627
     2  N    0.492661
     3  O   -0.456547
     4  C   -0.009955
     5  C    0.475452
     6  N   -0.396503
     7  C    0.235880
     9  C    0.033511
    10  C    0.000580
    11  C    0.037990
    12  C    0.023436
    13  C    0.168725
    15  N   -0.498060
    16  C    0.362456
 Electronic spatial extent (au):  <R**2>=           3109.1494
 Charge=             -0.0000 electrons
 Dipole moment (field-independent basis, Debye):
    X=              5.1660    Y=              4.3631    Z=              0.8635  Tot=              6.8169
 Quadrupole moment (field-independent basis, Debye-Ang):
   XX=           -104.3393   YY=            -77.5221   ZZ=            -85.2584
   XY=             -2.2240   XZ=              0.9300   YZ=             -1.1932
 Traceless Quadrupole moment (field-independent basis, Debye-Ang):
   XX=            -15.2993   YY=             11.5179   ZZ=              3.7815
   XY=             -2.2240   XZ=              0.9300   YZ=             -1.1932
 Octapole moment (field-independent basis, Debye-Ang**2):
  XXX=             94.0183  YYY=             31.9972  ZZZ=             -2.8912  XYY=            -12.0367
  XXY=             14.8601  XXZ=             -0.0429  XZZ=              2.3387  YZZ=             -1.1272
  YYZ=              5.4970  XYZ=              4.3934
 Hexadecapole moment (field-independent basis, Debye-Ang**3):
 XXXX=          -3505.7043 YYYY=           -574.2411 ZZZZ=           -345.6643 XXXY=            -62.0214
 XXXZ=             27.7743 YYYX=            -10.7543 YYYZ=             -9.0390 ZZZX=             16.7225
 ZZZY=            -18.5701 XXYY=           -608.7361 XXZZ=           -587.6023 YYZZ=           -165.2114
 XXYZ=            -28.5917 YYXZ=              4.8530 ZZXY=             -1.8247
 N-N= 9.183807588313D+02 E-N=-3.382795591513D+03  KE= 6.588909429966D+02
 Calling FoFJK, ICntrl=  10002127 FMM=F ISym2X=0 I1Cent= 0 IOpClX= 0 NMat=1 NMatS=1 NMatT=0.
 -------------------------------------------------------------------
 Center     Atomic                   Forces (Hartrees/Bohr)
 Number     Number              X              Y              Z
 -------------------------------------------------------------------
      1        8          -0.007299935    0.010717135    0.012612244
      2        7           0.040249778    0.012892639   -0.000433273
      3        8          -0.002897446   -0.014593497   -0.013334450
      4        6          -0.001666386    0.006045910    0.008765272
      5        6           0.004647834   -0.017603298   -0.003605617
      6        7           0.014763875   -0.007440600   -0.007170039
      7        6          -0.004940998    0.005143987    0.003757276
      8        1          -0.010111284   -0.000985098   -0.007778827
      9        6          -0.003993736    0.000293237   -0.002093781
     10        6           0.002817244   -0.000950482    0.000888000
     11        6          -0.000963812   -0.004371562   -0.002702495
     12        6           0.000822131   -0.008453214   -0.003634638
     13        6           0.009012816   -0.001458030    0.003366946
     14        1           0.000833981    0.005054880   -0.009688560
     15        7           0.000711385   -0.001016240    0.004087461
     16        6          -0.018391048    0.010088259    0.001000290
     17        1           0.008133500   -0.005179263   -0.004586907
     18        1          -0.017242471   -0.002421746    0.004725852
     19        1           0.003099838    0.005239004    0.008091072
     20        1          -0.003240377   -0.007569900    0.002028825
     21        1          -0.004348992    0.001627841    0.009776938
     22        1          -0.003988509   -0.003392534   -0.007683440
     23        1           0.003941657    0.005352274    0.009736687
     24        1          -0.009384186    0.002749370   -0.001934194
     25        1          -0.000823684    0.010755330   -0.001588198
     26        1          -0.004757145   -0.004454773   -0.004744332
     27        1           0.005015973    0.003930374    0.002141887
 -------------------------------------------------------------------
 Cartesian Forces:  Max     0.040249778 RMS     0.008336073

 GradGradGradGradGradGradGradGradGradGradGradGradGradGradGradGradGradGrad
 Berny optimization.
 FormGI is forming the generalized inverse of G from B-inverse, IUseBI=4.
 Internal  Forces:  Max     0.032053758 RMS     0.006542994
 Search for a local minimum.
 Step number   1 out of a maximum of   20
 All quantities printed in internal units (Hartrees-Bohrs-Radians)
 Mixed Optimization -- RFO/linear search
 Second derivative matrix not updated -- first step.
 ITU=  0
     Eigenvalues ---    0.00232   0.00770   0.01057   0.01153   0.01203
     Eigenvalues ---    0.01484   0.01533   0.01609   0.01984   0.02026
     Eigenvalues ---    0.02106   0.02683   0.03660   0.04506   0.04695
     Eigenvalues ---    0.04838   0.05078   0.05138   0.05303   0.05885
     Eigenvalues ---    0.06267   0.07216   0.07701   0.07722   0.07868
     Eigenvalues ---    0.07994   0.08050   0.08052   0.10459   0.11739
     Eigenvalues ---    0.12269   0.13472   0.15248   0.15721   0.15990
     Eigenvalues ---    0.16000   0.20088   0.21971   0.23179   0.24972
     Eigenvalues ---    0.25000   0.25000   0.25353   0.26176   0.26653
     Eigenvalues ---    0.27983   0.28083   0.28455   0.30982   0.31468
     Eigenvalues ---    0.31692   0.32045   0.32238   0.32290   0.32382
     Eigenvalues ---    0.32388   0.32404   0.32513   0.32526   0.32582
     Eigenvalues ---    0.33354   0.33509   0.33601   0.35292   0.43888
     Eigenvalues ---    0.44601   0.49262   0.67074   0.90626   0.91317
     Eigenvalues --- 1000.000001000.000001000.000001000.000001000.00000
     Eigenvalues --- 1000.000001000.000001000.000001000.000001000.00000
     Eigenvalues --- 1000.000001000.000001000.000001000.000001000.00000
     Eigenvalues --- 1000.000001000.000001000.000001000.000001000.00000
     Eigenvalues --- 1000.000001000.000001000.000001000.000001000.00000
     Eigenvalues --- 1000.000001000.000001000.000001000.000001000.00000
     Eigenvalues --- 1000.000001000.000001000.000001000.000001000.00000
     Eigenvalues --- 1000.000001000.000001000.000001000.000001000.00000
     Eigenvalues --- 1000.000001000.000001000.000001000.000001000.00000
     Eigenvalues --- 1000.000001000.000001000.000001000.000001000.00000
     Eigenvalues --- 1000.000001000.000001000.000001000.000001000.00000
     Eigenvalues --- 1000.000001000.000001000.000001000.000001000.00000
     Eigenvalues --- 1000.000001000.000001000.000001000.000001000.00000
     Eigenvalues --- 1000.000001000.000001000.000001000.000001000.00000
     Eigenvalues --- 1000.000001000.000001000.000001000.000001000.00000
     Eigenvalues --- 1000.000001000.000001000.000001000.000001000.00000
     Eigenvalues --- 1000.000001000.000001000.000001000.000001000.00000
     Eigenvalues --- 1000.000001000.000001000.000001000.000001000.00000
     Eigenvalues --- 1000.00000
 RFO step:  Lambda=-2.16932118D-02 EMin= 2.32345366D-03
 Linear search not attempted -- first point.
 Iteration  1 RMS(Cart)=  0.05305078 RMS(Int)=  0.00148173
 Iteration  2 RMS(Cart)=  0.00176356 RMS(Int)=  0.00051046
 Iteration  3 RMS(Cart)=  0.00000394 RMS(Int)=  0.00051045
 Iteration  4 RMS(Cart)=  0.00000001 RMS(Int)=  0.00051045
 Iteration  1 RMS(Cart)=  0.00001247 RMS(Int)=  0.00001207
 Iteration  2 RMS(Cart)=  0.00000851 RMS(Int)=  0.00001306
 Iteration  3 RMS(Cart)=  0.00000622 RMS(Int)=  0.00001479
 Iteration  4 RMS(Cart)=  0.00000483 RMS(Int)=  0.00001651
 Iteration  5 RMS(Cart)=  0.00000393 RMS(Int)=  0.00001803
 Iteration  6 RMS(Cart)=  0.00000327 RMS(Int)=  0.00001936
 Iteration  7 RMS(Cart)=  0.00000276 RMS(Int)=  0.00002050
 Iteration  8 RMS(Cart)=  0.00000234 RMS(Int)=  0.00002147
 Iteration  9 RMS(Cart)=  0.00000199 RMS(Int)=  0.00002231
 Iteration 10 RMS(Cart)=  0.00000169 RMS(Int)=  0.00002303
 Iteration 11 RMS(Cart)=  0.00000144 RMS(Int)=  0.00002364
 Iteration 12 RMS(Cart)=  0.00000122 RMS(Int)=  0.00002417
 Iteration 13 RMS(Cart)=  0.00000104 RMS(Int)=  0.00002461
 Iteration 14 RMS(Cart)=  0.00000088 RMS(Int)=  0.00002499
 Variable       Old X    -DE/DX   Delta X   Delta X   Delta X     New X
                                 (Linear)    (Quad)   (Total)
    R1        2.32646   0.01767   0.00000   0.01904   0.01904   2.34550
    R2        2.32332   0.01939   0.00000   0.02075   0.02075   2.34407
    R3        2.86047  -0.03116   0.00000  -0.09401  -0.09401   2.76647
    R4        2.64045  -0.03205   0.00000  -0.06905  -0.06883   2.57162
    R5        2.80470  -0.02136   0.00000  -0.06167  -0.06146   2.74324
    R6        2.59010  -0.02397   0.00000  -0.04616  -0.04607   2.54403
    R7        2.08434  -0.01034   0.00000  -0.02911  -0.02911   2.05523
    R8        2.82552  -0.01986   0.00000  -0.05498  -0.05505   2.77046
    R9        1.93289  -0.00662   0.00000  -0.01438  -0.01438   1.91851
   R10        2.11828  -0.01186   0.00000  -0.03525  -0.03525   2.08303
   R11        2.92735  -0.01297   0.00000  -0.04446  -0.04446   2.88289
   R12        2.90431  -0.00447   0.00000  -0.00946  -0.00944   2.89488
   R13        2.91141  -0.00463   0.00000  -0.01449  -0.01452   2.89688
   R14        2.09916  -0.00991   0.00000  -0.02858  -0.02858   2.07058
   R15        2.09892  -0.00806   0.00000  -0.02324  -0.02324   2.07569
   R16        2.90430  -0.00183   0.00000  -0.00723  -0.00729   2.89701
   R17        2.10139  -0.01057   0.00000  -0.03058  -0.03058   2.07081
   R18        2.10317  -0.00901   0.00000  -0.02614  -0.02614   2.07703
   R19        2.91759  -0.00911   0.00000  -0.02911  -0.02911   2.88848
   R20        2.10410  -0.01163   0.00000  -0.03380  -0.03380   2.07030
   R21        2.10110  -0.00994   0.00000  -0.02876  -0.02876   2.07235
   R22        2.93530  -0.01059   0.00000  -0.03668  -0.03665   2.89865
   R23        2.10150  -0.01074   0.00000  -0.03109  -0.03109   2.07041
   R24        2.09792  -0.00786   0.00000  -0.02261  -0.02261   2.07531
   R25        2.10762  -0.00931   0.00000  -0.02721  -0.02721   2.08041
   R26        2.76964  -0.00565   0.00000  -0.01204  -0.01236   2.75728
   R27        2.44245  -0.00451   0.00000  -0.00637  -0.00643   2.43603
   R28        2.08009  -0.00613   0.00000  -0.01712  -0.01712   2.06297
    A1        2.17420   0.00569   0.00000   0.02204   0.01872   2.19292
    A2        2.05989  -0.00275   0.00000  -0.00904  -0.01233   2.04756
    A3        2.04880  -0.00290   0.00000  -0.00959  -0.01288   2.03592
    A4        2.01883  -0.00737   0.00000  -0.02423  -0.02459   1.99423
    A5        2.03177  -0.00064   0.00000   0.00056   0.00017   2.03194
    A6        2.23144   0.00794   0.00000   0.02219   0.02247   2.25391
    A7        2.19542   0.00760   0.00000   0.02593   0.02628   2.22171
    A8        2.06109  -0.00275   0.00000  -0.00686  -0.00714   2.05395
    A9        2.02561  -0.00480   0.00000  -0.01812  -0.01841   2.00720
   A10        2.25234  -0.00574   0.00000  -0.01902  -0.01899   2.23336
   A11        2.11607  -0.01218   0.00000  -0.07075  -0.07125   2.04481
   A12        1.87536   0.01808   0.00000   0.09837   0.09846   1.97382
   A13        1.83782  -0.00172   0.00000  -0.01725  -0.01703   1.82079
   A14        2.00610  -0.00087   0.00000  -0.01206  -0.01224   1.99386
   A15        1.96871   0.00086   0.00000  -0.00253  -0.00293   1.96578
   A16        1.85222   0.00267   0.00000   0.02465   0.02451   1.87673
   A17        1.84900   0.00098   0.00000   0.02203   0.02177   1.87077
   A18        1.93600  -0.00160   0.00000  -0.00980  -0.00951   1.92649
   A19        1.91023   0.00019   0.00000  -0.00540  -0.00552   1.90470
   A20        1.92230  -0.00071   0.00000  -0.01318  -0.01315   1.90915
   A21        1.92289  -0.00169   0.00000  -0.00691  -0.00691   1.91598
   A22        1.91926  -0.00045   0.00000   0.00555   0.00550   1.92475
   A23        1.90457   0.00307   0.00000   0.02539   0.02540   1.92996
   A24        1.88440  -0.00038   0.00000  -0.00502  -0.00527   1.87913
   A25        1.94055  -0.00091   0.00000   0.00552   0.00541   1.94595
   A26        1.91888  -0.00068   0.00000  -0.00686  -0.00688   1.91200
   A27        1.90495   0.00031   0.00000  -0.00292  -0.00299   1.90196
   A28        1.91611   0.00078   0.00000   0.00731   0.00736   1.92346
   A29        1.89852   0.00174   0.00000   0.01140   0.01142   1.90994
   A30        1.88379  -0.00123   0.00000  -0.01493  -0.01501   1.86878
   A31        1.94467   0.00065   0.00000   0.00543   0.00555   1.95022
   A32        1.90236   0.00062   0.00000   0.00603   0.00600   1.90836
   A33        1.91737   0.00040   0.00000   0.00538   0.00534   1.92271
   A34        1.90671  -0.00117   0.00000  -0.01474  -0.01479   1.89192
   A35        1.91535  -0.00045   0.00000   0.00029   0.00020   1.91554
   A36        1.87600  -0.00007   0.00000  -0.00277  -0.00281   1.87319
   A37        1.94739  -0.00297   0.00000  -0.01905  -0.01907   1.92832
   A38        1.90604   0.00253   0.00000   0.01684   0.01668   1.92271
   A39        1.91083   0.00139   0.00000   0.01405   0.01402   1.92485
   A40        1.90625   0.00019   0.00000  -0.00335  -0.00320   1.90305
   A41        1.91152  -0.00020   0.00000  -0.00427  -0.00419   1.90733
   A42        1.88058  -0.00086   0.00000  -0.00369  -0.00389   1.87669
   A43        1.84619   0.00458   0.00000   0.02325   0.02329   1.86948
   A44        1.93747  -0.00436   0.00000  -0.03080  -0.03127   1.90620
   A45        1.98530   0.00094   0.00000   0.01229   0.01261   1.99791
   A46        1.88067   0.00229   0.00000   0.03149   0.03179   1.91246
   A47        1.89170  -0.00403   0.00000  -0.02965  -0.02974   1.86196
   A48        1.91783   0.00079   0.00000  -0.00418  -0.00405   1.91378
   A49        2.08476  -0.00585   0.00000  -0.01200  -0.01242   2.07234
   A50        2.24543  -0.00426   0.00000  -0.01877  -0.01887   2.22656
   A51        1.98370   0.00421   0.00000   0.02082   0.02032   2.00402
   A52        2.05406   0.00006   0.00000  -0.00199  -0.00248   2.05158
    D1       -0.57098   0.00084   0.00000  -0.02976  -0.02932  -0.60029
    D2        2.61799   0.00215   0.00000   0.00000  -0.00000   2.61799
    D3        2.54558   0.00243   0.00000   0.11351   0.11354   2.65911
    D4       -0.54864   0.00374   0.00000   0.14327   0.14285  -0.40579
    D5        3.07734   0.00174   0.00000   0.03405   0.03406   3.11140
    D6       -0.01269   0.00065   0.00000   0.01153   0.01131  -0.00138
    D7       -0.11799  -0.00009   0.00000  -0.00063  -0.00078  -0.11877
    D8        3.07516  -0.00117   0.00000  -0.02315  -0.02353   3.05163
    D9       -2.72351  -0.00194   0.00000  -0.04751  -0.04788  -2.77140
   D10        0.41683  -0.00006   0.00000   0.00403   0.00382   0.42065
   D11        0.47216   0.00007   0.00000  -0.01196  -0.01178   0.46038
   D12       -2.67068   0.00195   0.00000   0.03958   0.03992  -2.63076
   D13       -0.10945  -0.00086   0.00000   0.00081   0.00112  -0.10833
   D14        2.69509   0.00288   0.00000   0.05322   0.05211   2.74720
   D15        2.98151   0.00025   0.00000   0.02319   0.02360   3.00511
   D16       -0.49714   0.00399   0.00000   0.07561   0.07459  -0.42255
   D17       -2.49664  -0.00070   0.00000  -0.01088  -0.01052  -2.50716
   D18        1.75485  -0.00238   0.00000  -0.02334  -0.02297   1.73188
   D19       -0.48817  -0.00011   0.00000   0.00395   0.00391  -0.48426
   D20        0.94587   0.00005   0.00000  -0.03438  -0.03500   0.91087
   D21       -1.08583  -0.00164   0.00000  -0.04684  -0.04744  -1.13327
   D22        2.95434   0.00064   0.00000  -0.01955  -0.02057   2.93377
   D23        2.94339   0.00240   0.00000   0.03015   0.02999   2.97339
   D24       -1.22777   0.00152   0.00000   0.02524   0.02511  -1.20266
   D25        0.84916  -0.00045   0.00000   0.00652   0.00646   0.85562
   D26        0.91994   0.00324   0.00000   0.04178   0.04176   0.96170
   D27        3.03196   0.00235   0.00000   0.03687   0.03688   3.06884
   D28       -1.17430   0.00038   0.00000   0.01815   0.01823  -1.15606
   D29       -1.08055   0.00139   0.00000   0.00701   0.00704  -1.07351
   D30        1.03147   0.00050   0.00000   0.00210   0.00215   1.03362
   D31        3.10840  -0.00147   0.00000  -0.01662  -0.01649   3.09190
   D32       -2.89957  -0.00089   0.00000  -0.01423  -0.01398  -2.91355
   D33       -0.86429   0.00223   0.00000   0.02073   0.02058  -0.84371
   D34        1.30939   0.00053   0.00000   0.00000  -0.00001   1.30938
   D35       -0.89784  -0.00192   0.00000  -0.02308  -0.02300  -0.92084
   D36        1.13744   0.00119   0.00000   0.01187   0.01156   1.14901
   D37       -2.97207  -0.00051   0.00000  -0.00886  -0.00902  -2.98109
   D38        1.10466   0.00099   0.00000   0.01331   0.01342   1.11809
   D39        3.13995   0.00410   0.00000   0.04827   0.04798  -3.09526
   D40       -0.96956   0.00240   0.00000   0.02754   0.02739  -0.94217
   D41        0.95666   0.00070   0.00000   0.00000   0.00001   0.95666
   D42        3.08231   0.00061   0.00000   0.00824   0.00820   3.09051
   D43       -1.13772  -0.00109   0.00000  -0.01570  -0.01566  -1.15339
   D44       -1.15721   0.00175   0.00000   0.01624   0.01631  -1.14091
   D45        0.96844   0.00166   0.00000   0.02448   0.02451   0.99294
   D46        3.03159  -0.00005   0.00000   0.00054   0.00064   3.03223
   D47        3.06208   0.00063   0.00000   0.00387   0.00383   3.06591
   D48       -1.09545   0.00055   0.00000   0.01211   0.01202  -1.08343
   D49        0.96770  -0.00116   0.00000  -0.01183  -0.01184   0.95586
   D50       -0.92193  -0.00078   0.00000   0.00000   0.00001  -0.92192
   D51        1.18355  -0.00142   0.00000  -0.01097  -0.01098   1.17257
   D52       -3.04834  -0.00091   0.00000  -0.00768  -0.00771  -3.05605
   D53       -3.04919   0.00016   0.00000   0.00002   0.00004  -3.04916
   D54       -0.94372  -0.00048   0.00000  -0.01095  -0.01094  -0.95466
   D55        1.10758   0.00003   0.00000  -0.00766  -0.00768   1.09990
   D56        1.17626   0.00017   0.00000   0.00717   0.00720   1.18346
   D57       -3.00145  -0.00047   0.00000  -0.00380  -0.00378  -3.00524
   D58       -0.95016   0.00004   0.00000  -0.00052  -0.00052  -0.95068
   D59        0.98865  -0.00085   0.00000  -0.01155  -0.01157   0.97708
   D60        3.09771  -0.00083   0.00000  -0.01672  -0.01686   3.08085
   D61       -1.13027   0.00041   0.00000  -0.00322  -0.00317  -1.13345
   D62       -1.11428  -0.00126   0.00000  -0.01279  -0.01276  -1.12704
   D63        0.99479  -0.00124   0.00000  -0.01796  -0.01806   0.97673
   D64        3.04999  -0.00000   0.00000  -0.00446  -0.00437   3.04562
   D65        3.11623  -0.00023   0.00000  -0.00093  -0.00092   3.11531
   D66       -1.05788  -0.00021   0.00000  -0.00610  -0.00621  -1.06410
   D67        0.99732   0.00103   0.00000   0.00740   0.00748   1.00479
   D68       -1.05386   0.00000   0.00000  -0.00141  -0.00136  -1.05522
   D69       -3.12721   0.00154   0.00000   0.00659   0.00621  -3.12100
   D70        1.08138   0.00154   0.00000   0.01032   0.01029   1.09167
   D71        3.12038  -0.00138   0.00000  -0.00802  -0.00790   3.11248
   D72        1.04704   0.00015   0.00000  -0.00003  -0.00034   1.04670
   D73       -1.02756   0.00016   0.00000   0.00371   0.00375  -1.02382
   D74        1.06465  -0.00033   0.00000   0.00088   0.00104   1.06569
   D75       -1.00869   0.00120   0.00000   0.00888   0.00861  -1.00008
   D76       -3.08329   0.00121   0.00000   0.01261   0.01269  -3.07060
   D77       -1.17217   0.00412   0.00000   0.00000  -0.00001  -1.17218
   D78        3.06299   0.00053   0.00000  -0.01662  -0.01650   3.04649
   D79        1.01202  -0.00033   0.00000  -0.03492  -0.03519   0.97683
   D80        0.14826   0.00023   0.00000   0.01133   0.01108   0.15935
   D81       -2.99204  -0.00172   0.00000  -0.04200  -0.04186  -3.03389
         Item               Value     Threshold  Converged?
 Maximum Force            0.031732     0.000450     NO 
 RMS     Force            0.006600     0.000300     NO 
 Maximum Displacement     0.254515     0.001800     NO 
 RMS     Displacement     0.053261     0.001200     NO 
 Predicted change in Energy=-1.230077D-02
 GradGradGradGradGradGradGradGradGradGradGradGradGradGradGradGradGradGrad

                          Input orientation:                          
 ---------------------------------------------------------------------
 Center     Atomic      Atomic             Coordinates (Angstroms)
 Number     Number       Type             X           Y           Z
 ---------------------------------------------------------------------
      1          8           0       -3.821486    0.357041    0.747128
      2          7           0       -3.126325   -0.218858   -0.104710
      3          8           0       -3.531606   -1.063589   -0.917627
      4          6           0       -1.679668   -0.001230   -0.050144
      5          6           0       -1.316765    1.246558    0.353863
      6          7           0       -0.067223    1.716607    0.527285
      7          6           0        1.194696    0.974734    0.446445
      8          1           0        1.827533    1.427174    1.227386
      9          6           0        1.926628    1.126924   -0.883388
     10          6           0        3.325847    0.512993   -0.759884
     11          6           0        3.260568   -0.942417   -0.282701
     12          6           0        2.438984   -1.081782    0.998682
     13          6           0        1.030937   -0.507095    0.798716
     14          1           0        0.459814   -0.595841    1.735701
     15          7           0        0.395081   -1.308919   -0.241333
     16          6           0       -0.844292   -1.091050   -0.521050
     17          1           0       -2.110190    1.951226    0.592092
     18          1           0        0.059220    2.723076    0.485684
     19          1           0        1.358035    0.620800   -1.671491
     20          1           0        1.993749    2.190078   -1.151144
     21          1           0        3.838687    0.571748   -1.726514
     22          1           0        3.914487    1.105899   -0.045723
     23          1           0        2.795829   -1.558673   -1.060188
     24          1           0        4.272384   -1.332112   -0.118435
     25          1           0        2.357372   -2.136954    1.282084
     26          1           0        2.931834   -0.554233    1.826240
     27          1           0       -1.329113   -1.768094   -1.226965
 ---------------------------------------------------------------------
                    Distance matrix (angstroms):
                    1          2          3          4          5
     1  O    0.000000
     2  N    1.241184   0.000000
     3  O    2.207630   1.240427   0.000000
     4  C    2.313306   1.463952   2.304519   0.000000
     5  C    2.686918   2.373234   3.443689   1.360844   0.000000
     6  N    3.998905   3.674716   4.671104   2.425771   1.346245
     7  C    5.063007   4.516598   5.324790   3.075886   2.527825
     8  H    5.769510   5.387448   6.286919   3.996608   3.268374
     9  C    6.024293   5.286756   5.881482   3.869418   3.473427
    10  C    7.306147   6.526514   7.038122   5.081667   4.830362
    11  C    7.273557   6.430211   6.822862   5.034466   5.113590
    12  C    6.428606   5.738882   6.270608   4.385307   4.465715
    13  C    4.929037   4.264045   4.906355   2.885107   2.963933
    14  H    4.496086   4.048409   4.815638   2.849594   2.908633
    15  N    4.640250   3.688794   3.992047   2.459916   3.132912
    16  C    3.545268   2.478252   2.716558   1.451658   2.540298
    17  H    2.343927   2.495460   3.659068   2.099976   1.087581
    18  H    4.552621   4.376213   5.403902   3.276079   2.022577
    19  H    5.722476   4.823827   5.226286   3.499047   3.412944
    20  H    6.385955   5.754403   6.416419   4.416789   3.756964
    21  H    8.052531   7.194908   7.592750   5.795754   5.600180
    22  H    7.812469   7.164599   7.804562   5.702659   5.248376
    23  H    7.122164   6.146540   6.348376   4.845193   5.175161
    24  H    8.313433   7.482006   7.849400   6.099412   6.173426
    25  H    6.684645   5.972706   6.377375   4.757504   5.080259
    26  H    6.899438   6.367286   7.040193   5.009250   4.843691
    27  H    3.824287   2.624798   2.333023   2.151652   3.404012
                    6          7          8          9         10
     6  N    0.000000
     7  C    1.466067   0.000000
     8  H    2.040591   1.102295   0.000000
     9  C    2.512601   1.525562   2.134323   0.000000
    10  C    3.823404   2.492035   2.651399   1.532964   0.000000
    11  C    4.335975   2.911176   3.154190   2.534244   1.533032
    12  C    3.786062   2.466267   2.592496   2.946706   2.534243
    13  C    2.494891   1.531903   2.135350   2.510329   2.955745
    14  H    2.661851   2.160773   2.494319   3.461082   3.958738
    15  N    3.155678   2.515451   3.419833   2.948083   3.489649
    16  C    3.096091   3.059572   4.066587   3.567729   4.474378
    17  H    2.057416   3.449206   4.022921   4.376347   5.783325
    18  H    1.015234   2.085078   2.314393   2.812343   4.136032
    19  H    2.840206   2.153509   3.045350   1.095704   2.171390
    20  H    2.699797   2.160518   2.503409   1.098406   2.177196
    21  H    4.652574   3.445988   3.674509   2.162187   1.095824
    22  H    4.068823   2.767073   2.465645   2.157245   1.099117
    23  H    4.630831   3.354358   3.884054   2.828286   2.159376
    24  H    5.342643   3.887517   3.924563   3.483473   2.170669
    25  H    4.615010   3.425304   3.603710   3.940521   3.482786
    26  H    3.979742   2.694294   2.346078   3.343473   2.825289
    27  H    4.100354   4.085709   5.118397   4.370243   5.204823
                   11         12         13         14         15
    11  C    0.000000
    12  C    1.528517   0.000000
    13  C    2.515993   1.533900   0.000000
    14  H    3.469623   2.167129   1.100908   0.000000
    15  N    2.889126   2.401409   1.459087   2.102697   0.000000
    16  C    4.114460   3.617952   2.366277   2.653083   1.289091
    17  H    6.163073   5.482649   3.994085   3.794775   4.195179
    18  H    4.926955   4.517011   3.387658   3.569066   4.110759
    19  H    2.827016   3.346201   2.735153   3.727731   2.587749
    20  H    3.488775   3.940184   3.464636   4.295134   3.953033
    21  H    2.170603   3.481383   3.927359   4.976643   4.195365
    22  H    2.163184   2.837929   3.410232   4.243130   4.272683
    23  H    1.095554   2.143294   2.770593   3.768422   2.548821
    24  H    1.096639   2.161475   3.468256   4.302976   3.879319
    25  H    2.165925   1.095612   2.156274   2.486267   2.618593
    26  H    2.169420   1.098208   2.161351   2.474027   3.358501
    27  H    4.757998   4.429795   3.356090   3.654015   2.038421
                   16         17         18         19         20
    16  C    0.000000
    17  H    3.478077   0.000000
    18  H    4.046901   2.305085   0.000000
    19  H    3.017315   4.349992   3.280228   0.000000
    20  H    4.383753   4.465225   2.589536   1.771307   0.000000
    21  H    5.113544   6.532077   4.879181   2.481747   2.520682
    22  H    5.262936   6.117035   4.214349   3.068206   2.467110
    23  H    3.709424   6.254474   5.311509   2.681613   3.834676
    24  H    5.138150   7.212656   5.878798   3.836572   4.320241
    25  H    3.820453   6.094950   5.434671   4.162630   4.977552
    26  H    4.478513   5.763893   4.559579   4.011443   4.156448
    27  H    1.091676   4.213359   5.003124   3.622869   5.168587
                   21         22         23         24         25
    21  H    0.000000
    22  H    1.765253   0.000000
    23  H    2.463786   3.062756   0.000000
    24  H    2.529564   2.465213   1.765911   0.000000
    25  H    4.310803   3.834550   2.452119   2.505293   0.000000
    26  H    3.835658   2.688102   3.059226   2.486751   1.769497
    27  H    5.694785   6.095121   4.133621   5.726752   4.474546
                   26         27
    26  H    0.000000
    27  H    5.380631   0.000000
 Symmetry turned off by external request.
 Stoichiometry    C9H13N3O2
 Framework group  C1[X(C9H13N3O2)]
 Deg. of freedom    75
 Full point group                 C1      NOp   1
 Rotational constants (GHZ):           1.6823598           0.4166714           0.3774175
 Standard basis: 6-31G(d) (6D, 7F)
   236 basis functions,   444 primitive gaussians,   236 cartesian basis functions
    52 alpha electrons       52 beta electrons
       nuclear repulsion energy       931.8703356730 Hartrees.
 NAtoms=   27 NActive=   27 NUniq=   27 SFac= 1.00D+00 NAtFMM=   60 NAOKFM=F Big=F
 Integral buffers will be    131072 words long.
 Raffenetti 1 integral format.
 Two-electron integral symmetry is turned off.
 One-electron integrals computed using PRISM.
 NBasis=   236 RedAO= T EigKep=  1.42D-03  NBF=   236
 NBsUse=   236 1.00D-06 EigRej= -1.00D+00 NBFU=   236
 Initial guess from the checkpoint file:  "/home/alexey/tmp/Gau-1090826.chk"
 B after Tr=     0.050882    0.001290    0.000776
         Rot=    0.999997    0.002290    0.000523    0.000304 Ang=   0.27 deg.
 ExpMin= 1.61D-01 ExpMax= 5.48D+03 ExpMxC= 8.25D+02 IAcc=3 IRadAn=         5 AccDes= 0.00D+00
 Harris functional with IExCor=  205 and IRadAn=       5 diagonalized for initial guess.
 HarFok:  IExCor=  205 AccDes= 0.00D+00 IRadAn=         5 IDoV= 1 UseB2=F ITyADJ=14
 ICtDFT=  3500011 ScaDFX=  1.000000  1.000000  1.000000  1.000000
 FoFCou: FMM=F IPFlag=           0 FMFlag=      100000 FMFlg1=           0
         NFxFlg=           0 DoJE=T BraDBF=F KetDBF=T FulRan=T
         wScrn=  0.000000 ICntrl=       500 IOpCl=  0 I1Cent=   200000004 NGrid=           0
         NMat0=    1 NMatS0=      1 NMatT0=    0 NMatD0=    1 NMtDS0=    0 NMtDT0=    0
 Symmetry not used in FoFCou.
 Keep R1 ints in memory in canonical form, NReq=397720213.
 Requested convergence on RMS density matrix=1.00D-08 within 128 cycles.
 Requested convergence on MAX density matrix=1.00D-06.
 Requested convergence on             energy=1.00D-06.
 No special actions if energy rises.
 SCF Done:  E(RHF) =  -661.294552890     A.U. after   15 cycles
            NFock= 15  Conv=0.51D-08     -V/T= 2.0024
 ExpMin= 1.61D-01 ExpMax= 5.48D+03 ExpMxC= 8.25D+02 IAcc=3 IRadAn=         5 AccDes= 0.00D+00
 HarFok:  IExCor=  205 AccDes= 0.00D+00 IRadAn=         5 IDoV=-2 UseB2=F ITyADJ=14
 ICtDFT= 12500011 ScaDFX=  1.000000  1.000000  1.000000  1.000000
 Range of M.O.s used for correlation:    15   236
 NBasis=   236 NAE=    52 NBE=    52 NFC=    14 NFV=     0
 NROrb=    222 NOA=    38 NOB=    38 NVA=   184 NVB=   184
 Fully direct method using O(ONN) memory.
 JobTyp=1 Pass  1:  I=  15 to  52 NPSUse=  4 ParTrn=T ParDer=T DoDerP=T.
 Spin components of T(2) and E(2):
     alpha-alpha T2 =       0.9140069673D-01 E2=     -0.2725385932D+00
     alpha-beta  T2 =       0.4925023847D+00 E2=     -0.1489402335D+01
     beta-beta   T2 =       0.9140069673D-01 E2=     -0.2725385932D+00
 ANorm=    0.1294335265D+01
 E2 =    -0.2034479522D+01 EUMP2 =    -0.66332903241201D+03
          IDoAtm=111111111111111111111111111
          Differentiating once with respect to electric field.
                with respect to dipole field.
          Differentiating once with respect to nuclear coordinates.
 Keep R1 ints in memory in canonical form, NReq=397723379.
          There are     1 degrees of freedom in the 1st order CPHF.  IDoFFX=0 NUNeed=     1.
 LinEq1:  Iter=  0 NonCon=     1 RMS=4.56D-03 Max=1.23D-01 NDo=     1
 AX will form     1 AO Fock derivatives at one time.
 LinEq1:  Iter=  1 NonCon=     1 RMS=1.53D-03 Max=2.93D-02 NDo=     1
 LinEq1:  Iter=  2 NonCon=     1 RMS=6.40D-04 Max=1.90D-02 NDo=     1
 LinEq1:  Iter=  3 NonCon=     1 RMS=2.79D-04 Max=6.97D-03 NDo=     1
 LinEq1:  Iter=  4 NonCon=     1 RMS=8.67D-05 Max=1.66D-03 NDo=     1
 LinEq1:  Iter=  5 NonCon=     1 RMS=3.60D-05 Max=1.58D-03 NDo=     1
[...]
    26  H    2.175737   1.098760   2.167538   2.499651   3.361539
    27  H    4.729865   4.421101   3.360859   3.653281   2.034528
                   16         17         18         19         20
    16  C    0.000000
    17  H    3.469655   0.000000
    18  H    4.098217   2.234324   0.000000
    19  H    2.996799   4.335237   3.524658   0.000000
    20  H    4.385180   4.486966   2.902695   1.768461   0.000000
    21  H    5.099366   6.534987   5.100867   2.499401   2.521389
    22  H    5.254301   6.108710   4.323559   3.070339   2.462214
    23  H    3.690021   6.235157   5.424639   2.703537   3.842817
    24  H    5.131314   7.194144   5.940158   3.849159   4.317493
    25  H    3.818872   6.055441   5.361980   4.171798   4.985352
    26  H    4.496392   5.748521   4.476134   4.033821   4.180266
    27  H    1.090441   4.231406   5.095642   3.604160   5.169947
                   21         22         23         24         25
    21  H    0.000000
    22  H    1.758858   0.000000
    23  H    2.469719   3.062391   0.000000
    24  H    2.517211   2.460116   1.764468   0.000000
    25  H    4.312041   3.838834   2.444705   2.519176   0.000000
    26  H    3.845745   2.702881   3.060478   2.493119   1.768104
    27  H    5.667673   6.074261   4.093942   5.697853   4.451700
                   26         27
    26  H    0.000000
    27  H    5.381230   0.000000
 Symmetry turned off by external request.
 Stoichiometry    C9H13N3O2
 Framework group  C1[X(C9H13N3O2)]
 Deg. of freedom    75
 Full point group                 C1      NOp   1
 Rotational constants (GHZ):           1.6780047           0.4144842           0.3777430

 **********************************************************************

            Population analysis using the SCF Density.

 **********************************************************************

 Alpha  occ. eigenvalues --  -20.59565 -20.59488 -15.84826 -15.63735 -15.56174
 Alpha  occ. eigenvalues --  -11.34940 -11.29692 -11.29501 -11.28680 -11.27105
 Alpha  occ. eigenvalues --  -11.23601 -11.23128 -11.22638 -11.22040  -1.57342
 Alpha  occ. eigenvalues --   -1.37002  -1.30690  -1.23060  -1.14719  -1.09833
 Alpha  occ. eigenvalues --   -1.02713  -1.01222  -0.94457  -0.89764  -0.85445
 Alpha  occ. eigenvalues --   -0.82522  -0.78489  -0.77582  -0.75102  -0.72033
 Alpha  occ. eigenvalues --   -0.70250  -0.68996  -0.67796  -0.64890  -0.63731
 Alpha  occ. eigenvalues --   -0.62247  -0.60389  -0.57661  -0.56887  -0.54998
 Alpha  occ. eigenvalues --   -0.54448  -0.50866  -0.50088  -0.48931  -0.48106
 Alpha  occ. eigenvalues --   -0.47598  -0.46354  -0.45888  -0.43749  -0.41718
 Alpha  occ. eigenvalues --   -0.39809  -0.33576
 Alpha virt. eigenvalues --    0.07884   0.11416   0.17405   0.21785   0.23737
 Alpha virt. eigenvalues --    0.24975   0.26826   0.28437   0.29138   0.29471
 Alpha virt. eigenvalues --    0.30645   0.31855   0.32006   0.32807   0.34046
 Alpha virt. eigenvalues --    0.34421   0.35843   0.37416   0.38673   0.40168
 Alpha virt. eigenvalues --    0.41145   0.42601   0.45440   0.46134   0.46993
 Alpha virt. eigenvalues --    0.47640   0.48520   0.53967   0.57876   0.59567
 Alpha virt. eigenvalues --    0.63266   0.69783   0.69986   0.72769   0.74359
 Alpha virt. eigenvalues --    0.74653   0.75828   0.76503   0.78594   0.79882
 Alpha virt. eigenvalues --    0.80080   0.84551   0.85631   0.86001   0.88663
 Alpha virt. eigenvalues --    0.89497   0.91130   0.91922   0.92953   0.94143
 Alpha virt. eigenvalues --    0.95666   0.97764   1.00060   1.01397   1.02518
 Alpha virt. eigenvalues --    1.03551   1.06041   1.06592   1.07929   1.09071
 Alpha virt. eigenvalues --    1.09168   1.11142   1.11902   1.12811   1.13977
 Alpha virt. eigenvalues --    1.14687   1.14787   1.15747   1.17015   1.18214
 Alpha virt. eigenvalues --    1.18942   1.19403   1.21493   1.23107   1.23507
 Alpha virt. eigenvalues --    1.24921   1.25366   1.27886   1.28152   1.30177
 Alpha virt. eigenvalues --    1.31834   1.34254   1.34958   1.36937   1.38593
 Alpha virt. eigenvalues --    1.41177   1.45005   1.46760   1.49033   1.51841
 Alpha virt. eigenvalues --    1.55395   1.56787   1.60103   1.63447   1.66431
 Alpha virt. eigenvalues --    1.67862   1.68301   1.72557   1.73749   1.76752
 Alpha virt. eigenvalues --    1.78140   1.84934   1.86606   1.89824   1.91118
 Alpha virt. eigenvalues --    1.93091   1.95846   1.99794   2.01865   2.02302
 Alpha virt. eigenvalues --    2.03740   2.06066   2.08347   2.08995   2.13792
 Alpha virt. eigenvalues --    2.14223   2.15775   2.19207   2.20164   2.22524
 Alpha virt. eigenvalues --    2.24613   2.25123   2.25453   2.28259   2.29703
 Alpha virt. eigenvalues --    2.31481   2.33706   2.35364   2.36001   2.38620
 Alpha virt. eigenvalues --    2.38991   2.41428   2.43039   2.45371   2.46677
 Alpha virt. eigenvalues --    2.49834   2.51926   2.53364   2.55468   2.61013
 Alpha virt. eigenvalues --    2.62268   2.65294   2.68787   2.69688   2.70472
 Alpha virt. eigenvalues --    2.71498   2.72673   2.74434   2.77976   2.86239
 Alpha virt. eigenvalues --    2.89566   2.90185   2.91635   2.93797   2.95429
 Alpha virt. eigenvalues --    3.00457   3.00727   3.03393   3.05024   3.08994
 Alpha virt. eigenvalues --    3.09301   3.14820   3.20528   3.21808   3.25155
 Alpha virt. eigenvalues --    3.32813   3.37340   3.38738   3.49000   3.65439
 Alpha virt. eigenvalues --    4.10378   4.24007   4.27096   4.37143   4.47086
 Alpha virt. eigenvalues --    4.56028   4.61972   4.62828   4.73797   4.78860
 Alpha virt. eigenvalues --    4.99133   5.00948   5.05289   5.10881
          Condensed to atoms (all electrons):
               1          2          3          4          5          6
     1  O    8.326352   0.302222  -0.078961  -0.090656   0.006713   0.000555
     2  N    0.302222   5.759771   0.301760   0.237611  -0.047081   0.001357
     3  O   -0.078961   0.301760   8.309956  -0.081789   0.002806  -0.000021
     4  C   -0.090656   0.237611  -0.081789   5.247052   0.556158  -0.051239
     5  C    0.006713  -0.047081   0.002806   0.556158   4.693946   0.324820
     6  N    0.000555   0.001357  -0.000021  -0.051239   0.324820   7.189322
     7  C    0.000009  -0.000131  -0.000000   0.002973  -0.033540   0.174817
     8  H   -0.000000   0.000002  -0.000000  -0.000223   0.003007  -0.050595
     9  C    0.000000  -0.000005  -0.000000   0.000915   0.000860  -0.061710
    10  C   -0.000000   0.000000  -0.000000  -0.000034  -0.000061   0.003725
    11  C   -0.000000  -0.000000  -0.000000  -0.000038   0.000024  -0.000192
    12  C   -0.000000   0.000002   0.000000  -0.000088  -0.000145   0.003921
    13  C   -0.000011  -0.000060  -0.000006  -0.011468  -0.000032  -0.049157
    14  H   -0.000006  -0.000097   0.000001   0.002756   0.006984  -0.007200
    15  N   -0.000012   0.002294   0.000491  -0.063901  -0.007524   0.002252
    16  C    0.002384  -0.027257   0.002273   0.329326  -0.046643  -0.001888
    17  H    0.012163  -0.004804   0.000173  -0.032334   0.383186  -0.033482
    18  H    0.000008  -0.000060   0.000001   0.001905  -0.030173   0.337762
    19  H    0.000000  -0.000003   0.000001  -0.001099   0.001144  -0.000253
    20  H    0.000000  -0.000000   0.000000  -0.000091   0.000170  -0.000405
    21  H    0.000000   0.000000  -0.000000   0.000001   0.000001  -0.000075
    22  H   -0.000000   0.000000   0.000000  -0.000000  -0.000003  -0.000116
    23  H    0.000000  -0.000000   0.000000   0.000041   0.000001  -0.000031
    24  H   -0.000000   0.000000   0.000000   0.000000  -0.000000   0.000006
    25  H    0.000000  -0.000000   0.000000   0.000025   0.000000  -0.000093
    26  H    0.000000  -0.000000   0.000000   0.000005  -0.000003  -0.000056
    27  H    0.000059  -0.000650   0.006960  -0.062406   0.002106  -0.000007
               7          8          9         10         11         12
     1  O    0.000009  -0.000000   0.000000  -0.000000  -0.000000  -0.000000
     2  N   -0.000131   0.000002  -0.000005   0.000000  -0.000000   0.000002
     3  O   -0.000000  -0.000000  -0.000000  -0.000000  -0.000000   0.000000
     4  C    0.002973  -0.000223   0.000915  -0.000034  -0.000038  -0.000088
     5  C   -0.033540   0.003007   0.000860  -0.000061   0.000024  -0.000145
     6  N    0.174817  -0.050595  -0.061710   0.003725  -0.000192   0.003921
     7  C    5.015014   0.418181   0.350366  -0.054717  -0.008947  -0.061709
     8  H    0.418181   0.538830  -0.055142   0.000731  -0.000305  -0.002248
     9  C    0.350366  -0.055142   5.158029   0.324632  -0.050451  -0.005234
    10  C   -0.054717   0.000731   0.324632   5.119970   0.336922  -0.061016
    11  C   -0.008947  -0.000305  -0.050451   0.336922   5.120536   0.335979
    12  C   -0.061709  -0.002248  -0.005234  -0.061016   0.335979   5.119683
    13  C    0.339615  -0.037675  -0.060742  -0.000267  -0.050801   0.371683
    14  H   -0.046383  -0.000689   0.004395  -0.000398   0.004179  -0.036118
    15  N   -0.059240   0.003907  -0.014403   0.001650  -0.013249  -0.082689
    16  C   -0.000839  -0.000080  -0.000853  -0.000049   0.000066   0.002489
    17  H    0.001872  -0.000054  -0.000080   0.000001   0.000000   0.000000
    18  H   -0.021456  -0.004465   0.001385  -0.000085   0.000004  -0.000116
    19  H   -0.036779   0.004371   0.390393  -0.032320  -0.002221   0.000692
    20  H   -0.042034  -0.002011   0.399254  -0.035306   0.003929  -0.000413
    21  H    0.004587  -0.000078  -0.036305   0.402423  -0.034938   0.004349
    22  H   -0.004843   0.003572  -0.046863   0.397608  -0.045407  -0.001051
    23  H    0.000596   0.000035  -0.001964  -0.039060   0.399208  -0.038018
    24  H   -0.000132  -0.000100   0.004374  -0.038387   0.402277  -0.038633
    25  H    0.005152  -0.000021  -0.000431   0.004200  -0.033430   0.398164
    26  H   -0.003903   0.001655   0.000968  -0.002246  -0.041418   0.396642
    27  H   -0.000365   0.000008  -0.000050   0.000006   0.000013  -0.000031
              13         14         15         16         17         18
     1  O   -0.000011  -0.000006  -0.000012   0.002384   0.012163   0.000008
     2  N   -0.000060  -0.000097   0.002294  -0.027257  -0.004804  -0.000060
     3  O   -0.000006   0.000001   0.000491   0.002273   0.000173   0.000001
     4  C   -0.011468   0.002756  -0.063901   0.329326  -0.032334   0.001905
     5  C   -0.000032   0.006984  -0.007524  -0.046643   0.383186  -0.030173
     6  N   -0.049157  -0.007200   0.002252  -0.001888  -0.033482   0.337762
     7  C    0.339615  -0.046383  -0.059240  -0.000839   0.001872  -0.021456
     8  H   -0.037675  -0.000689   0.003907  -0.000080  -0.000054  -0.004465
     9  C   -0.060742   0.004395  -0.014403  -0.000853  -0.000080   0.001385
    10  C   -0.000267  -0.000398   0.001650  -0.000049   0.000001  -0.000085
    11  C   -0.050801   0.004179  -0.013249   0.000066   0.000000   0.000004
    12  C    0.371683  -0.036118  -0.082689   0.002489   0.000000  -0.000116
    13  C    5.040586   0.403106   0.247222  -0.069688  -0.000019   0.002963
    14  H    0.403106   0.525476  -0.037100  -0.005844   0.000101  -0.000099
    15  N    0.247222  -0.037100   6.963983   0.583730  -0.000071  -0.000128
    16  C   -0.069688  -0.005844   0.583730   4.713068   0.001702  -0.000156
    17  H   -0.000019   0.000101  -0.000071   0.001702   0.392617  -0.003106
    18  H    0.002963  -0.000099  -0.000128  -0.000156  -0.003106   0.312316
    19  H   -0.007617   0.000109   0.007658   0.002616   0.000016  -0.000144
    20  H    0.004347  -0.000067   0.000130  -0.000040   0.000003   0.000739
    21  H   -0.000429   0.000010  -0.000042   0.000004  -0.000000   0.000001
    22  H    0.000041  -0.000054   0.000021  -0.000002   0.000000   0.000001
    23  H   -0.007605   0.000003   0.008643   0.000115   0.000000   0.000000
    24  H    0.004699  -0.000057   0.000131   0.000007   0.000000  -0.000000
    25  H   -0.035595  -0.002807   0.000494  -0.000028  -0.000000   0.000002
    26  H   -0.047308  -0.001047   0.004916  -0.000060   0.000000  -0.000000
    27  H    0.004864  -0.000193  -0.039895   0.403141  -0.000084   0.000001
              19         20         21         22         23         24
     1  O    0.000000   0.000000   0.000000  -0.000000   0.000000  -0.000000
     2  N   -0.000003  -0.000000   0.000000   0.000000  -0.000000   0.000000
     3  O    0.000001   0.000000  -0.000000   0.000000   0.000000   0.000000
     4  C   -0.001099  -0.000091   0.000001  -0.000000   0.000041   0.000000
     5  C    0.001144   0.000170   0.000001  -0.000003   0.000001  -0.000000
     6  N   -0.000253  -0.000405  -0.000075  -0.000116  -0.000031   0.000006
     7  C   -0.036779  -0.042034   0.004587  -0.004843   0.000596  -0.000132
     8  H    0.004371  -0.002011  -0.000078   0.003572   0.000035  -0.000100
     9  C    0.390393   0.399254  -0.036305  -0.046863  -0.001964   0.004374
    10  C   -0.032320  -0.035306   0.402423   0.397608  -0.039060  -0.038387
    11  C   -0.002221   0.003929  -0.034938  -0.045407   0.399208   0.402277
    12  C    0.000692  -0.000413   0.004349  -0.001051  -0.038018  -0.038633
    13  C   -0.007617   0.004347  -0.000429   0.000041  -0.007605   0.004699
    14  H    0.000109  -0.000067   0.000010  -0.000054   0.000003  -0.000057
    15  N    0.007658   0.000130  -0.000042   0.000021   0.008643   0.000131
    16  C    0.002616  -0.000040   0.000004  -0.000002   0.000115   0.000007
    17  H    0.000016   0.000003  -0.000000   0.000000   0.000000   0.000000
    18  H   -0.000144   0.000739   0.000001   0.000001   0.000000  -0.000000
    19  H    0.505277  -0.024598  -0.002784   0.003966   0.001526  -0.000066
    20  H   -0.024598   0.540635  -0.002693  -0.002978  -0.000046  -0.000083
    21  H   -0.002784  -0.002693   0.524343  -0.027446  -0.002903  -0.002244
    22  H    0.003966  -0.002978  -0.027446   0.571601   0.004142  -0.003646
    23  H    0.001526  -0.000046  -0.002903   0.004142   0.499498  -0.025478
    24  H   -0.000066  -0.000083  -0.002244  -0.003646  -0.025478   0.538326
    25  H   -0.000028   0.000013  -0.000087  -0.000080  -0.002306  -0.002307
    26  H    0.000020  -0.000030  -0.000081   0.002381   0.004070  -0.003015
    27  H    0.000072   0.000000  -0.000000   0.000000  -0.000035  -0.000000
              25         26         27
     1  O    0.000000   0.000000   0.000059
     2  N   -0.000000  -0.000000  -0.000650
     3  O    0.000000   0.000000   0.006960
     4  C    0.000025   0.000005  -0.062406
     5  C    0.000000  -0.000003   0.002106
     6  N   -0.000093  -0.000056  -0.000007
     7  C    0.005152  -0.003903  -0.000365
     8  H   -0.000021   0.001655   0.000008
     9  C   -0.000431   0.000968  -0.000050
    10  C    0.004200  -0.002246   0.000006
    11  C   -0.033430  -0.041418   0.000013
    12  C    0.398164   0.396642  -0.000031
    13  C   -0.035595  -0.047308   0.004864
    14  H   -0.002807  -0.001047  -0.000193
    15  N    0.000494   0.004916  -0.039895
    16  C   -0.000028  -0.000060   0.403141
    17  H   -0.000000   0.000000  -0.000084
    18  H    0.000002  -0.000000   0.000001
    19  H   -0.000028   0.000020   0.000072
    20  H    0.000013  -0.000030   0.000000
    21  H   -0.000087  -0.000081  -0.000000
    22  H   -0.000080   0.002381   0.000000
    23  H   -0.002306   0.004070  -0.000035
    24  H   -0.002307  -0.003015  -0.000000
    25  H    0.506891  -0.024108  -0.000013
    26  H   -0.024108   0.562221   0.000001
    27  H   -0.000013   0.000001   0.433726
 Mulliken charges:
               1
     1  O   -0.480818
     2  N    0.475128
     3  O   -0.463644
     4  C    0.016598
     5  C    0.183278
     6  N   -0.782017
     7  C    0.061836
     8  H    0.179387
     9  C   -0.301339
    10  C   -0.327924
    11  C   -0.321742
    12  C   -0.306098
    13  C   -0.040648
    14  H    0.191040
    15  N   -0.509269
    16  C    0.112506
    17  H    0.282201
    18  H    0.402900
    19  H    0.190051
    20  H    0.161575
    21  H    0.174385
    22  H    0.149156
    23  H    0.199567
    24  H    0.164332
    25  H    0.186393
    26  H    0.150394
    27  H    0.252772
 Sum of Mulliken charges =  -0.00000
 Mulliken charges with hydrogens summed into heavy atoms:
               1
     1  O   -0.480818
     2  N    0.475128
     3  O   -0.463644
     4  C    0.016598
     5  C    0.465479
     6  N   -0.379117
     7  C    0.241223
     9  C    0.050287
    10  C   -0.004383
    11  C    0.042157
    12  C    0.030689
    13  C    0.150392
    15  N   -0.509269
    16  C    0.365279
 Electronic spatial extent (au):  <R**2>=           2999.6384
 Charge=             -0.0000 electrons
 Dipole moment (field-independent basis, Debye):
    X=              5.1611    Y=              4.5420    Z=              1.6517  Tot=              7.0707
 Quadrupole moment (field-independent basis, Debye-Ang):
   XX=           -105.0295   YY=            -77.1716   ZZ=            -83.9154
   XY=             -2.0105   XZ=              0.1921   YZ=              1.0094
 Traceless Quadrupole moment (field-independent basis, Debye-Ang):
   XX=            -16.3240   YY=             11.5339   ZZ=              4.7901
   XY=             -2.0105   XZ=              0.1921   YZ=              1.0094
 Octapole moment (field-independent basis, Debye-Ang**2):
  XXX=             86.1408  YYY=             29.9411  ZZZ=              2.8826  XYY=            -14.3453
  XXY=             11.7575  XXZ=              3.3732  XZZ=             -0.2342  YZZ=              2.1716
  YYZ=             11.8833  XYZ=              4.6382
 Hexadecapole moment (field-independent basis, Debye-Ang**3):
 XXXX=          -3349.7208 YYYY=           -564.3557 ZZZZ=           -348.3211 XXXY=            -37.9234
 XXXZ=              2.7098 YYYX=             -2.4205 YYYZ=              5.6018 ZZZX=              0.1083
 ZZZY=            -16.6434 XXYY=           -585.1656 XXZZ=           -564.5716 YYZZ=           -155.1385
 XXYZ=            -29.8946 YYXZ=              0.2807 ZZXY=             -0.0322
 N-N= 9.310551358254D+02 E-N=-3.408798291194D+03  KE= 6.596169065956D+02
 Unable to Open any file for archive entry.
 1\1\GINC-LOTUS\FOpt\RMP2-FC\6-31G(d)\C9H13N3O2\ALEXEY\30-Jun-2023\0\\#
 MP2/6-31G* SCF=Tight Opt=(ModRedun, MaxCycle=20 ) NoSymm\\MolName:\\0,
 1\O,-3.8485679752,0.3681698869,0.6728658859\N,-3.1165580461,-0.2114098
 178,-0.1537471464\O,-3.5364807736,-0.9804812217,-1.0395710871\C,-1.679
 5119402,-0.0165337575,-0.0607571793\C,-1.3021279779,1.2260089188,0.374
 8276956\N,-0.0586288412,1.7202827239,0.5031650506\C,1.2056058506,0.998
 9155448,0.4266371481\H,1.8494944352,1.4675601446,1.1862272525\C,1.9182
 299242,1.1143907289,-0.9193460151\C,3.3136937819,0.4917433657,-0.79496
 23433\C,3.2571711706,-0.9492966116,-0.2809476229\C,2.4535599374,-1.060
 0230689,1.0164851576\C,1.0465157362,-0.4861989659,0.8124218939\H,0.460
 8648151,-0.5378284311,1.7438785827\N,0.4071189049,-1.306078659,-0.2118
 673811\C,-0.8386459391,-1.1067697361,-0.5040323261\H,-2.0984589159,1.9
 246465998,0.6193065627\H,-0.0053535469,2.6769406799,0.8318359111\H,1.3
 269254374,0.5968859622,-1.6824475643\H,1.9892699889,2.1685219076,-1.21
 47777573\H,3.8240580173,0.5286786759,-1.7642033594\H,3.9114031613,1.10
 3396505,-0.1041872688\H,2.7815780764,-1.5873104651,-1.0325364681\H,4.2
 739429542,-1.3297519925,-0.1270753878\H,2.3639064112,-2.1084465792,1.3
 19176069\H,2.9589276587,-0.5243999585,1.8319516879\H,-1.3029123053,-1.
 8176023792,-1.1883099906\\Version=ES64L-G16RevC.02\HF=-661.2962108\MP2
 =-663.3324749\RMSD=9.092e-09\RMSF=9.907e-04\Dipole=1.8920193,1.6070469
 ,0.6006087\PG=C01 [X(C9H13N3O2)]\\@
 The archive entry for this job was punched.


 The best way to pay for a lovely moment is to enjoy it.
 -- Richard Bach
 Job cpu time:       0 days  1 hours 18 minutes 11.0 seconds.
 Elapsed time:       0 days  0 hours 23 minutes 39.9 seconds.
 File lengths (MBytes):  RWF=     36 Int=      0 D2E=      0 Chk=      7 Scr=      1
 Normal termination of Gaussian 16 at Fri Jun 30 06:43:10 2023.
