 Entering Gaussian System, Link 0=g16
 Initial command:
 /home/alexey/programs//g16/l1.exe "/home/alexey/tmp/Gau-1094292.inp" -scrdir="/home/alexey/tmp/"
 Entering Link 1 = /home/alexey/programs//g16/l1.exe PID=   1094294.
  
 Copyright (c) 1988-2021, Gaussian, Inc.  All Rights Reserved.
  
 This is part of the Gaussian(R) 16 program.  It is based on
 the Gaussian(R) 09 system (copyright 2009, Gaussian, Inc.),
 the Gaussian(R) 03 system (copyright 2003, Gaussian, Inc.),
 the Gaussian(R) 98 system (copyright 1998, Gaussian, Inc.),
 the Gaussian(R) 94 system (copyright 1995, Gaussian, Inc.),
 the Gaussian 92(TM) system (copyright 1992, Gaussian, Inc.),
 the Gaussian 90(TM) system (copyright 1990, Gaussian, Inc.),
 the Gaussian 88(TM) system (copyright 1988, Gaussian, Inc.),
 the Gaussian 86(TM) system (copyright 1986, Carnegie Mellon
 University), and the Gaussian 82(TM) system (copyright 1983,
 Carnegie Mellon University). Gaussian is a federally registered
 trademark of Gaussian, Inc.
  
 This software contains proprietary and confidential information,
 including trade secrets, belonging to Gaussian, Inc.
  
 This software is provided under written license and may be
 used, copied, transmitted, or stored only in accord with that
 written license.
  
 The following legend is applicable only to US Government
 contracts under FAR:
  
                    RESTRICTED RIGHTS LEGEND
  
 Use, reproduction and disclosure by the US Government is
 subject to restrictions as set forth in subparagraphs (a)
 and (c) of the Commercial Computer Software - Restricted
 Rights clause in FAR 52.227-19.
  
 Gaussian, Inc.
 340 Quinnipiac St., Bldg. 40, Wallingford CT 06492
  
  
 ---------------------------------------------------------------
 Warning -- This program may not be used in any manner that
 competes with the business of Gaussian, Inc. or will provide
 assistance to any competitor of Gaussian, Inc.  The licensee
 of this program is prohibited from giving any competitor of
 Gaussian, Inc. access to this program.  By using this program,
 the user acknowledges that Gaussian, Inc. is engaged in the
 business of creating and licensing software in the field of
 computational chemistry and represents and warrants to the
 licensee that it is not a competitor of Gaussian, Inc. and that
 it will not use this program in any manner prohibited above.
 ---------------------------------------------------------------
  

 Cite this work as:
 Gaussian 16, Revision C.02,
 M. J. Frisch, G. W. Trucks, H. B. Schlegel, G. E. Scuseria, 
 M. A. Robb, J. R. Cheeseman, G. Scalmani, V. Barone, 
 G. A. Petersson, H. Nakatsuji, X. Li, M. Caricato, A. V. Marenich, 
 J. Bloino, B. G. Janesko, R. Gomperts, B. Mennucci, H. P. Hratchian, 
 J. V. Ortiz, A. F. Izmaylov, J. L. Sonnenberg, D. Williams-Young, 
 F. Ding, F. Lipparini, F. Egidi, J. Goings, B. Peng, A. Petrone, 
 T. Henderson, D. Ranasinghe, V. G. Zakrzewski, J. Gao, N. Rega, 
 G. Zheng, W. Liang, M. Hada, M. Ehara, K. Toyota, R. Fukuda, 
 J. Hasegawa, M. Ishida, T. Nakajima, Y. Honda, O. Kitao, H. Nakai, 
 T. Vreven, K. Throssell, J. A. Montgomery, Jr., J. E. Peralta, 
 F. Ogliaro, M. J. Bearpark, J. J. Heyd, E. N. Brothers, K. N. Kudin, 
 V. N. Staroverov, T. A. Keith, R. Kobayashi, J. Normand, 
 K. Raghavachari, A. P. Rendell, J. C. Burant, S. S. Iyengar, 
 J. Tomasi, M. Cossi, J. M. Millam, M. Klene, C. Adamo, R. Cammi, 
 J. W. Ochterski, R. L. Martin, K. Morokuma, O. Farkas, 
 J. B. Foresman, and D. J. Fox, Gaussian, Inc., Wallingford CT, 2019.
 
 ******************************************
 Gaussian 16:  ES64L-G16RevC.02  7-Dec-2021
                30-Jun-2023 
 ******************************************
 %mem=8GB
 %NPROCS=4
 Will use up to    4 processors via shared memory.
 %NoSave
 ---------------------------------------------------------
 #MP2/6-31G* SCF=Tight Opt=(ModRedun, MaxCycle=20 ) NoSymm
 ---------------------------------------------------------
 1/6=20,18=120,19=15,38=1/1,3;
 2/9=110,12=2,15=1,17=6,18=5,40=1/2;
 3/5=1,6=6,7=1,11=9,25=1,30=1,71=1/1,2,3;
 4//1;
 5/5=2,32=2,38=5/2;
 8/6=4,10=2/1;
 9/15=2,16=-3/6;
 10/5=1,31=1/2;
 6/7=2,8=2,9=2,10=2/1;
 7/12=2,30=1/1,2,3,16;
 1/6=20,18=20,19=15/3(2);
 2/9=110,15=1/2;
 99//99;
 2/9=110,15=1/2;
 3/5=1,6=6,7=1,11=9,25=1,30=1,71=1/1,2,3;
 4/5=5,16=3,69=1/1;
 5/5=2,32=2,38=5/2;
 8/6=4,10=2/1;
 9/15=2,16=-3/6;
 10/5=1,31=1/2;
 7/12=2,30=1/1,2,3,16;
 1/6=20,18=20,19=15/3(-8);
 2/9=110,15=1/2;
 6/7=2,8=2,9=2,10=2/1;
 99/9=10/99;
 --------
 MolName:
 --------
 Symbolic Z-matrix:
 Charge =  0 Multiplicity = 1
 8                    0    -3.97669   0.4109    0.6615 
 7                    0    -3.24989  -0.27148  -0.06138 
 8                    0    -3.65949  -1.15254  -0.815 
 6                    0    -1.75445   0.00852  -0.05157 
 6                    0    -1.37189   1.28594   0.37028 
 7                    0    -0.0844    1.72991   0.52663 
 6                    0     1.19478   0.96151   0.4366 
 1                    0     1.8555    1.39249   1.23304 
 6                    0     1.96476   1.12771  -0.89726 
 6                    0     3.37585   0.5263   -0.75333 
 6                    0     3.31117  -0.93548  -0.28317 
 6                    0     2.45767  -1.0794    0.99535 
 6                    0     1.02179  -0.52374   0.78984 
 1                    0     0.46944  -0.64529   1.75111 
 7                    0     0.36942  -1.30635  -0.26312 
 6                    0    -0.87091  -1.07866  -0.54698 
 1                    0    -2.16397   2.00078   0.64936 
 1                    0     0.14781   2.72302   0.44902 
 1                    0     1.41825   0.62006  -1.72038 
 1                    0     2.05279   2.20399  -1.15714 
 1                    0     3.91447   0.58591  -1.72436 
 1                    0     3.95031   1.11792  -0.0059 
 1                    0     2.86683  -1.55731  -1.0929 
 1                    0     4.33817  -1.31725  -0.09411 
 1                    0     2.39769  -2.15378   1.27611 
 1                    0     2.9487   -0.53811   1.83106 
 1                    0    -1.3687   -1.76958  -1.24429 
 
 The following ModRedundant input section has been read:
 D       1       2       4      16 F                                           
 D       7      13      15      16 F                                           
 D       7       9      10      11 F                                           
 D       9      10      11      12 F                                           
 D       6       7      13      15 F                                           
 

 GradGradGradGradGradGradGradGradGradGradGradGradGradGradGradGradGradGrad
 Berny optimization.
 Initialization pass.
                           ----------------------------
                           !    Initial Parameters    !
                           ! (Angstroms and Degrees)  !
 --------------------------                            --------------------------
 ! Name  Definition              Value          Derivative Info.                !
 --------------------------------------------------------------------------------
 ! R1    R(1,2)                  1.2314         estimate D2E/DX2                !
 ! R2    R(2,3)                  1.2296         estimate D2E/DX2                !
 ! R3    R(2,4)                  1.5215         estimate D2E/DX2                !
 ! R4    R(4,5)                  1.3986         estimate D2E/DX2                !
 ! R5    R(4,16)                 1.4859         estimate D2E/DX2                !
 ! R6    R(5,6)                  1.3708         estimate D2E/DX2                !
 ! R7    R(5,17)                 1.1028         estimate D2E/DX2                !
 ! R8    R(6,7)                  1.4949         estimate D2E/DX2                !
 ! R9    R(6,18)                 1.0228         estimate D2E/DX2                !
 ! R10   R(7,8)                  1.121          estimate D2E/DX2                !
 ! R11   R(7,9)                  1.5491         estimate D2E/DX2                !
 ! R12   R(7,13)                 1.5364         estimate D2E/DX2                !
 ! R13   R(9,10)                 1.5406         estimate D2E/DX2                !
 ! R14   R(9,19)                 1.1108         estimate D2E/DX2                !
 ! R15   R(9,20)                 1.1107         estimate D2E/DX2                !
 ! R16   R(10,11)                1.5369         estimate D2E/DX2                !
 ! R17   R(10,21)                1.112          estimate D2E/DX2                !
 ! R18   R(10,22)                1.113          estimate D2E/DX2                !
 ! R19   R(11,12)                1.544          estimate D2E/DX2                !
 ! R20   R(11,23)                1.1135         estimate D2E/DX2                !
 ! R21   R(11,24)                1.1119         estimate D2E/DX2                !
 ! R22   R(12,13)                1.5533         estimate D2E/DX2                !
 ! R23   R(12,25)                1.1121         estimate D2E/DX2                !
 ! R24   R(12,26)                1.1102         estimate D2E/DX2                !
 ! R25   R(13,14)                1.1153         estimate D2E/DX2                !
 ! R26   R(13,15)                1.4652         estimate D2E/DX2                !
 ! R27   R(15,16)                1.2926         estimate D2E/DX2                !
 ! R28   R(16,27)                1.1006         estimate D2E/DX2                !
 ! A1    A(1,2,3)              124.0714         estimate D2E/DX2                !
 ! A2    A(1,2,4)              118.3169         estimate D2E/DX2                !
 ! A3    A(3,2,4)              117.5957         estimate D2E/DX2                !
 ! A4    A(2,4,5)              116.0326         estimate D2E/DX2                !
 ! A5    A(2,4,16)             116.5919         estimate D2E/DX2                !
 ! A6    A(5,4,16)             127.3127         estimate D2E/DX2                !
 ! A7    A(4,5,6)              125.9518         estimate D2E/DX2                !
 ! A8    A(4,5,17)             118.1568         estimate D2E/DX2                !
 ! A9    A(6,5,17)             115.8338         estimate D2E/DX2                !
 ! A10   A(5,6,7)              129.0732         estimate D2E/DX2                !
 ! A11   A(5,6,18)             121.2666         estimate D2E/DX2                !
 ! A12   A(7,6,18)             107.4714         estimate D2E/DX2                !
 ! A13   A(6,7,8)              105.3039         estimate D2E/DX2                !
 ! A14   A(6,7,9)              114.9625         estimate D2E/DX2                !
 ! A15   A(6,7,13)             112.7485         estimate D2E/DX2                !
 ! A16   A(8,7,9)              106.1141         estimate D2E/DX2                !
 ! A17   A(8,7,13)             105.9424         estimate D2E/DX2                !
 ! A18   A(9,7,13)             110.9554         estimate D2E/DX2                !
 ! A19   A(7,9,10)             109.4469         estimate D2E/DX2                !
 ! A20   A(7,9,19)             110.1497         estimate D2E/DX2                !
 ! A21   A(7,9,20)             110.1712         estimate D2E/DX2                !
 ! A22   A(10,9,19)            109.965          estimate D2E/DX2                !
 ! A23   A(10,9,20)            109.119          estimate D2E/DX2                !
 ! A24   A(19,9,20)            107.9663         estimate D2E/DX2                !
 ! A25   A(9,10,11)            111.1812         estimate D2E/DX2                !
 ! A26   A(9,10,21)            109.9459         estimate D2E/DX2                !
 ! A27   A(9,10,22)            109.1465         estimate D2E/DX2                !
 ! A28   A(11,10,21)           109.7857         estimate D2E/DX2                !
 ! A29   A(11,10,22)           108.7763         estimate D2E/DX2                !
 ! A30   A(21,10,22)           107.9343         estimate D2E/DX2                !
 ! A31   A(10,11,12)           111.4229         estimate D2E/DX2                !
 ! A32   A(10,11,23)           108.996          estimate D2E/DX2                !
 ! A33   A(10,11,24)           109.8603         estimate D2E/DX2                !
 ! A34   A(12,11,23)           109.2409         estimate D2E/DX2                !
 ! A35   A(12,11,24)           109.7428         estimate D2E/DX2                !
 ! A36   A(23,11,24)           107.4882         estimate D2E/DX2                !
 ! A37   A(11,12,13)           111.599          estimate D2E/DX2                !
 ! A38   A(11,12,25)           109.204          estimate D2E/DX2                !
 ! A39   A(11,12,26)           109.4754         estimate D2E/DX2                !
 ! A40   A(13,12,25)           109.217          estimate D2E/DX2                !
 ! A41   A(13,12,26)           109.5141         estimate D2E/DX2                !
 ! A42   A(25,12,26)           107.749          estimate D2E/DX2                !
 ! A43   A(7,13,12)            105.792          estimate D2E/DX2                !
 ! A44   A(7,13,14)            111.0552         estimate D2E/DX2                !
 ! A45   A(7,13,15)            113.656          estimate D2E/DX2                !
 ! A46   A(12,13,14)           107.7455         estimate D2E/DX2                !
 ! A47   A(12,13,15)           108.3966         estimate D2E/DX2                !
 ! A48   A(14,13,15)           109.9182         estimate D2E/DX2                !
 ! A49   A(13,15,16)           119.4042         estimate D2E/DX2                !
 ! A50   A(4,16,15)            128.7712         estimate D2E/DX2                !
 ! A51   A(4,16,27)            113.6774         estimate D2E/DX2                !
 ! A52   A(15,16,27)           117.5508         estimate D2E/DX2                !
 ! D1    D(1,2,4,5)            -22.6677         estimate D2E/DX2                !
 ! D2    D(1,2,4,16)           160.0002         Frozen                          !
 ! D3    D(3,2,4,5)            155.9347         estimate D2E/DX2                !
 ! D4    D(3,2,4,16)           -21.3974         estimate D2E/DX2                !
 ! D5    D(2,4,5,6)            176.2315         estimate D2E/DX2                !
 ! D6    D(2,4,5,17)            -0.8837         estimate D2E/DX2                !
 ! D7    D(16,4,5,6)            -6.7684         estimate D2E/DX2                !
 ! D8    D(16,4,5,17)          176.1164         estimate D2E/DX2                !
 ! D9    D(2,4,16,15)         -154.9947         estimate D2E/DX2                !
 ! D10   D(2,4,16,27)           24.7172         estimate D2E/DX2                !
 ! D11   D(5,4,16,15)           28.0197         estimate D2E/DX2                !
 ! D12   D(5,4,16,27)         -152.2684         estimate D2E/DX2                !
 ! D13   D(4,5,6,7)             -7.1017         estimate D2E/DX2                !
 ! D14   D(4,5,6,18)           153.8829         estimate D2E/DX2                !
 ! D15   D(17,5,6,7)           170.0725         estimate D2E/DX2                !
 ! D16   D(17,5,6,18)          -28.9429         estimate D2E/DX2                !
 ! D17   D(5,6,7,8)           -142.3354         estimate D2E/DX2                !
 ! D18   D(5,6,7,9)            101.2548         estimate D2E/DX2                !
 ! D19   D(5,6,7,13)           -27.2778         estimate D2E/DX2                !
 ! D20   D(18,6,7,8)            54.6406         estimate D2E/DX2                !
 ! D21   D(18,6,7,9)           -61.7693         estimate D2E/DX2                !
 ! D22   D(18,6,7,13)          169.6982         estimate D2E/DX2                !
 ! D23   D(6,7,9,10)           168.6799         estimate D2E/DX2                !
 ! D24   D(6,7,9,19)           -70.3049         estimate D2E/DX2                !
 ! D25   D(6,7,9,20)            48.6965         estimate D2E/DX2                !
 ! D26   D(8,7,9,10)            52.7335         estimate D2E/DX2                !
 ! D27   D(8,7,9,19)           173.7488         estimate D2E/DX2                !
 ! D28   D(8,7,9,20)           -67.2498         estimate D2E/DX2                !
 ! D29   D(13,7,9,10)          -61.8988         estimate D2E/DX2                !
 ! D30   D(13,7,9,19)           59.1164         estimate D2E/DX2                !
 ! D31   D(13,7,9,20)          178.1178         estimate D2E/DX2                !
 ! D32   D(6,7,13,12)         -166.1651         estimate D2E/DX2                !
 ! D33   D(6,7,13,14)          -49.5316         estimate D2E/DX2                !
 ! D34   D(6,7,13,15)           75.0221         Frozen                          !
 ! D35   D(8,7,13,12)          -51.4928         estimate D2E/DX2                !
 ! D36   D(8,7,13,14)           65.1407         estimate D2E/DX2                !
 ! D37   D(8,7,13,15)         -170.3056         estimate D2E/DX2                !
 ! D38   D(9,7,13,12)           63.2469         estimate D2E/DX2                !
 ! D39   D(9,7,13,14)          179.8804         estimate D2E/DX2                !
 ! D40   D(9,7,13,15)          -55.5659         estimate D2E/DX2                !
 ! D41   D(7,9,10,11)           54.8124         Frozen                          !
 ! D42   D(7,9,10,21)          176.603          estimate D2E/DX2                !
 ! D43   D(7,9,10,22)          -65.1838         estimate D2E/DX2                !
 ! D44   D(19,9,10,11)         -66.3147         estimate D2E/DX2                !
 ! D45   D(19,9,10,21)          55.4759         estimate D2E/DX2                !
 ! D46   D(19,9,10,22)         173.6891         estimate D2E/DX2                !
 ! D47   D(20,9,10,11)         175.4384         estimate D2E/DX2                !
 ! D48   D(20,9,10,21)         -62.7709         estimate D2E/DX2                !
 ! D49   D(20,9,10,22)          55.4422         estimate D2E/DX2                !
 ! D50   D(9,10,11,12)         -52.822          Frozen                          !
 ! D51   D(9,10,11,23)          67.8055         estimate D2E/DX2                !
 ! D52   D(9,10,11,24)        -174.6614         estimate D2E/DX2                !
 ! D53   D(21,10,11,12)       -174.7058         estimate D2E/DX2                !
 ! D54   D(21,10,11,23)        -54.0783         estimate D2E/DX2                !
 ! D55   D(21,10,11,24)         63.4548         estimate D2E/DX2                !
 ! D56   D(22,10,11,12)         67.3936         estimate D2E/DX2                !
 ! D57   D(22,10,11,23)       -171.9789         estimate D2E/DX2                !
 ! D58   D(22,10,11,24)        -54.4458         estimate D2E/DX2                !
 ! D59   D(10,11,12,13)         56.6157         estimate D2E/DX2                !
 ! D60   D(10,11,12,25)        177.4638         estimate D2E/DX2                !
 ! D61   D(10,11,12,26)        -64.7886         estimate D2E/DX2                !
 ! D62   D(23,11,12,13)        -63.868          estimate D2E/DX2                !
 ! D63   D(23,11,12,25)         56.9801         estimate D2E/DX2                !
 ! D64   D(23,11,12,26)        174.7277         estimate D2E/DX2                !
 ! D65   D(24,11,12,13)        178.5231         estimate D2E/DX2                !
 ! D66   D(24,11,12,25)        -60.6288         estimate D2E/DX2                !
 ! D67   D(24,11,12,26)         57.1188         estimate D2E/DX2                !
 ! D68   D(11,12,13,7)         -60.3273         estimate D2E/DX2                !
 ! D69   D(11,12,13,14)       -179.1773         estimate D2E/DX2                !
 ! D70   D(11,12,13,15)         61.9152         estimate D2E/DX2                !
 ! D71   D(25,12,13,7)         178.8322         estimate D2E/DX2                !
 ! D72   D(25,12,13,14)         59.9822         estimate D2E/DX2                !
 ! D73   D(25,12,13,15)        -58.9253         estimate D2E/DX2                !
 ! D74   D(26,12,13,7)          61.0545         estimate D2E/DX2                !
 ! D75   D(26,12,13,14)        -57.7955         estimate D2E/DX2                !
 ! D76   D(26,12,13,15)       -176.703          estimate D2E/DX2                !
 ! D77   D(7,13,15,16)         -67.1611         Frozen                          !
 ! D78   D(12,13,15,16)        175.5288         estimate D2E/DX2                !
 ! D79   D(14,13,15,16)         58.0024         estimate D2E/DX2                !
 ! D80   D(13,15,16,4)           7.6955         estimate D2E/DX2                !
 ! D81   D(13,15,16,27)       -172.0069         estimate D2E/DX2                !
 --------------------------------------------------------------------------------
 Trust Radius=3.00D-01 FncErr=1.00D-07 GrdErr=1.00D-07 EigMax=2.50D+02 EigMin=1.00D-04
 Number of steps in this run=     20 maximum allowed number of steps=    162.
 GradGradGradGradGradGradGradGradGradGradGradGradGradGradGradGradGradGrad

                          Input orientation:                          
 ---------------------------------------------------------------------
 Center     Atomic      Atomic             Coordinates (Angstroms)
 Number     Number       Type             X           Y           Z
 ---------------------------------------------------------------------
      1          8           0       -3.976690    0.410900    0.661500
      2          7           0       -3.249890   -0.271480   -0.061380
      3          8           0       -3.659490   -1.152540   -0.815000
      4          6           0       -1.754450    0.008520   -0.051570
      5          6           0       -1.371890    1.285940    0.370280
      6          7           0       -0.084400    1.729910    0.526630
      7          6           0        1.194780    0.961510    0.436600
      8          1           0        1.855500    1.392490    1.233040
      9          6           0        1.964760    1.127710   -0.897260
     10          6           0        3.375850    0.526300   -0.753330
     11          6           0        3.311170   -0.935480   -0.283170
     12          6           0        2.457670   -1.079400    0.995350
     13          6           0        1.021790   -0.523740    0.789840
     14          1           0        0.469440   -0.645290    1.751110
     15          7           0        0.369420   -1.306350   -0.263120
     16          6           0       -0.870910   -1.078660   -0.546980
     17          1           0       -2.163970    2.000780    0.649360
     18          1           0        0.147810    2.723020    0.449020
     19          1           0        1.418250    0.620060   -1.720380
     20          1           0        2.052790    2.203990   -1.157140
     21          1           0        3.914470    0.585910   -1.724360
     22          1           0        3.950310    1.117920   -0.005900
     23          1           0        2.866830   -1.557310   -1.092900
     24          1           0        4.338170   -1.317250   -0.094110
     25          1           0        2.397690   -2.153780    1.276110
     26          1           0        2.948700   -0.538110    1.831060
     27          1           0       -1.368700   -1.769580   -1.244290
 ---------------------------------------------------------------------
                    Distance matrix (angstroms):
                    1          2          3          4          5
     1  O    0.000000
     2  N    1.231437   0.000000
     3  O    2.173709   1.229627   0.000000
     4  C    2.368276   1.521459   2.357979   0.000000
     5  C    2.763239   2.477654   3.547420   1.398611   0.000000
     6  N    4.111922   3.790995   4.784324   2.467097   1.370834
     7  C    5.205560   4.639325   5.440556   3.137588   2.587943
     8  H    5.941769   5.523525   6.409895   4.073983   3.342417
     9  C    6.184204   5.463424   6.069472   3.974959   3.572804
    10  C    7.488318   6.709372   7.233140   5.203897   4.937670
    11  C    7.471147   6.598302   6.994288   5.158031   5.224247
    12  C    6.613126   5.860517   6.379840   4.474546   4.544345
    13  C    5.086730   4.362965   4.988515   2.949369   3.029963
    14  H    4.697963   4.154307   4.887769   2.936462   3.004469
    15  N    4.763669   3.769756   4.069440   2.506883   3.186428
    16  C    3.650354   2.558690   2.802405   1.485946   2.585281
    17  H    2.411186   2.616780   3.784753   2.151304   1.102847
    18  H    4.733133   4.557620   5.577925   3.352267   2.093057
    19  H    5.901057   5.033752   5.453922   3.636610   3.549526
    20  H    6.548072   5.953743   6.634267   4.531826   3.860604
    21  H    8.245809   7.404639   7.823939   5.938709   5.729150
    22  H    7.986403   7.333239   7.982399   5.811810   5.338123
    23  H    7.333862   6.334955   6.544763   4.989230   5.309587
    24  H    8.526098   7.659854   8.031773   6.235342   6.292618
    25  H    6.898409   6.101401   6.485727   4.866060   5.182850
    26  H    7.087279   6.486520   7.144742   5.095363   4.912080
    27  H    3.897196   2.680010   2.410964   2.175551   3.455872
                    6          7          8          9         10
     6  N    0.000000
     7  C    1.494940   0.000000
     8  H    2.091908   1.120987   0.000000
     9  C    2.566937   1.549088   2.149471   0.000000
    10  C    3.880761   2.522381   2.647152   1.540644   0.000000
    11  C    4.392035   2.931850   3.136449   2.539031   1.536891
    12  C    3.817596   2.464225   2.555258   2.948943   2.545429
    13  C    2.524257   1.536448   2.136220   2.542201   3.004256
    14  H    2.729041   2.199059   2.518354   3.520422   4.011491
    15  N    3.169942   2.512771   3.425006   2.978572   3.554931
    16  C    3.107942   3.065420   4.087587   3.609957   4.544606
    17  H    2.100725   3.522293   4.106926   4.494518   5.901799
    18  H    1.022845   2.049199   2.302434   2.767452   4.085519
    19  H    2.922119   2.195243   3.083914   1.110814   2.185446
    20  H    2.761777   2.195437   2.531880   1.110705   2.174441
    21  H    4.729340   3.493929   3.692715   2.186095   1.112009
    22  H    4.115459   2.795213   2.449202   2.176471   1.112956
    23  H    4.705152   3.388152   3.890258   2.839249   2.171598
    24  H    5.406443   3.918584   3.907386   3.500851   2.181584
    25  H    4.669640   3.443371   3.587737   3.959690   3.501179
    26  H    4.005640   2.696222   2.297810   3.344671   2.827454
    27  H    4.126986   4.105566   5.150856   4.430200   5.293662
                   11         12         13         14         15
    11  C    0.000000
    12  C    1.543952   0.000000
    13  C    2.561668   1.553301   0.000000
    14  H    3.506841   2.170872   1.115305   0.000000
    15  N    2.965104   2.448682   1.465193   2.122293   0.000000
    16  C    4.192838   3.668546   2.382716   2.695471   1.292609
    17  H    6.282388   5.564780   4.067186   3.892350   4.264715
    18  H    4.891582   4.482447   3.379564   3.625520   4.097814
    19  H    2.840497   3.368048   2.786873   3.814786   2.633383
    20  H    3.493367   3.946871   3.506309   4.368445   3.994433
    21  H    2.180740   3.506044   3.990003   5.046085   4.275892
    22  H    2.168370   2.838783   3.450287   4.279305   4.331976
    23  H    1.113451   2.180963   2.831457   3.829837   2.643591
    24  H    1.111855   2.186270   3.522698   4.338599   3.972362
    25  H    2.179462   1.112077   2.187828   2.493855   2.683514
    26  H    2.181572   1.110188   2.190280   2.482863   3.410054
    27  H    4.849810   4.487031   3.377017   3.689879   2.048985
                   16         17         18         19         20
    16  C    0.000000
    17  H    3.547701   0.000000
    18  H    4.059874   2.430246   0.000000
    19  H    3.082656   4.511580   3.277614   0.000000
    20  H    4.438030   4.591928   2.545209   1.796862   0.000000
    21  H    5.201623   6.677113   4.845467   2.496457   2.530963
    22  H    5.325589   6.212345   4.152385   3.098166   2.470928
    23  H    3.807602   6.403470   5.300171   2.689434   3.848917
    24  H    5.234170   7.337567   5.846186   3.863141   4.330372
    25  H    3.894006   6.201768   5.434079   4.199100   5.002981
    26  H    4.531742   5.829389   4.515527   4.036875   4.153445
    27  H    1.100639   4.293481   5.034934   3.701909   5.244373
                   21         22         23         24         25
    21  H    0.000000
    22  H    1.799284   0.000000
    23  H    2.467728   3.084210   0.000000
    24  H    2.541506   2.467442   1.794450   0.000000
    25  H    4.336974   3.841640   2.487585   2.518481   0.000000
    26  H    3.851901   2.668348   3.097582   2.498793   1.794985
    27  H    5.804368   6.177632   4.243547   5.839168   4.548156
                   26         27
    26  H    0.000000
    27  H    5.441897   0.000000
 Symmetry turned off by external request.
 Stoichiometry    C9H13N3O2
 Framework group  C1[X(C9H13N3O2)]
 Deg. of freedom    75
 Full point group                 C1      NOp   1
 Rotational constants (GHZ):           1.6740824           0.3974593           0.3592251
 Standard basis: 6-31G(d) (6D, 7F)
   236 basis functions,   444 primitive gaussians,   236 cartesian basis functions
    52 alpha electrons       52 beta electrons
       nuclear repulsion energy       917.8188410491 Hartrees.
 NAtoms=   27 NActive=   27 NUniq=   27 SFac= 1.00D+00 NAtFMM=   60 NAOKFM=F Big=F
 Integral buffers will be    131072 words long.
 Raffenetti 1 integral format.
 Two-electron integral symmetry is turned off.
 One-electron integrals computed using PRISM.
 NBasis=   236 RedAO= T EigKep=  1.50D-03  NBF=   236
 NBsUse=   236 1.00D-06 EigRej= -1.00D+00 NBFU=   236
 ExpMin= 1.61D-01 ExpMax= 5.48D+03 ExpMxC= 8.25D+02 IAcc=3 IRadAn=         5 AccDes= 0.00D+00
 Harris functional with IExCor=  205 and IRadAn=       5 diagonalized for initial guess.
 HarFok:  IExCor=  205 AccDes= 0.00D+00 IRadAn=         5 IDoV= 1 UseB2=F ITyADJ=14
 ICtDFT=  3500011 ScaDFX=  1.000000  1.000000  1.000000  1.000000
 FoFCou: FMM=F IPFlag=           0 FMFlag=      100000 FMFlg1=           0
         NFxFlg=           0 DoJE=T BraDBF=F KetDBF=T FulRan=T
         wScrn=  0.000000 ICntrl=       500 IOpCl=  0 I1Cent=   200000004 NGrid=           0
         NMat0=    1 NMatS0=      1 NMatT0=    0 NMatD0=    1 NMtDS0=    0 NMtDT0=    0
 Symmetry not used in FoFCou.
 Keep R1 ints in memory in canonical form, NReq=397720213.
 Requested convergence on RMS density matrix=1.00D-08 within 128 cycles.
 Requested convergence on MAX density matrix=1.00D-06.
 Requested convergence on             energy=1.00D-06.
 No special actions if energy rises.
 SCF Done:  E(RHF) =  -661.280777440     A.U. after   16 cycles
            NFock= 16  Conv=0.71D-08     -V/T= 2.0037
 ExpMin= 1.61D-01 ExpMax= 5.48D+03 ExpMxC= 8.25D+02 IAcc=3 IRadAn=         5 AccDes= 0.00D+00
 HarFok:  IExCor=  205 AccDes= 0.00D+00 IRadAn=         5 IDoV=-2 UseB2=F ITyADJ=14
 ICtDFT= 12500011 ScaDFX=  1.000000  1.000000  1.000000  1.000000
 Range of M.O.s used for correlation:    15   236
 NBasis=   236 NAE=    52 NBE=    52 NFC=    14 NFV=     0
 NROrb=    222 NOA=    38 NOB=    38 NVA=   184 NVB=   184
 Fully direct method using O(ONN) memory.
 JobTyp=1 Pass  1:  I=  15 to  52 NPSUse=  4 ParTrn=T ParDer=T DoDerP=T.
 Spin components of T(2) and E(2):
     alpha-alpha T2 =       0.9199697126D-01 E2=     -0.2718409864D+00
     alpha-beta  T2 =       0.4998340525D+00 E2=     -0.1494018858D+01
     beta-beta   T2 =       0.9199697126D-01 E2=     -0.2718409864D+00
 ANorm=    0.1297623981D+01
 E2 =    -0.2037700831D+01 EUMP2 =    -0.66331847827134D+03
          IDoAtm=111111111111111111111111111
          Differentiating once with respect to electric field.
                with respect to dipole field.
          Differentiating once with respect to nuclear coordinates.
 Keep R1 ints in memory in canonical form, NReq=397723379.
          There are     1 degrees of freedom in the 1st order CPHF.  IDoFFX=0 NUNeed=     1.
 LinEq1:  Iter=  0 NonCon=     1 RMS=4.60D-03 Max=1.16D-01 NDo=     1
 AX will form     1 AO Fock derivatives at one time.
 LinEq1:  Iter=  1 NonCon=     1 RMS=1.56D-03 Max=3.51D-02 NDo=     1
 LinEq1:  Iter=  2 NonCon=     1 RMS=6.36D-04 Max=1.90D-02 NDo=     1
 LinEq1:  Iter=  3 NonCon=     1 RMS=2.91D-04 Max=8.47D-03 NDo=     1
 LinEq1:  Iter=  4 NonCon=     1 RMS=8.91D-05 Max=1.95D-03 NDo=     1
 LinEq1:  Iter=  5 NonCon=     1 RMS=3.69D-05 Max=1.81D-03 NDo=     1
 LinEq1:  Iter=  6 NonCon=     1 RMS=1.55D-05 Max=6.17D-04 NDo=     1
 LinEq1:  Iter=  7 NonCon=     1 RMS=6.08D-06 Max=1.17D-04 NDo=     1
 LinEq1:  Iter=  8 NonCon=     1 RMS=2.44D-06 Max=6.30D-05 NDo=     1
 LinEq1:  Iter=  9 NonCon=     1 RMS=9.52D-07 Max=2.50D-05 NDo=     1
 LinEq1:  Iter= 10 NonCon=     1 RMS=4.44D-07 Max=1.23D-05 NDo=     1
 LinEq1:  Iter= 11 NonCon=     1 RMS=1.55D-07 Max=5.87D-06 NDo=     1
 LinEq1:  Iter= 12 NonCon=     1 RMS=5.49D-08 Max=8.77D-07 NDo=     1
 LinEq1:  Iter= 13 NonCon=     1 RMS=1.77D-08 Max=4.27D-07 NDo=     1
 LinEq1:  Iter= 14 NonCon=     1 RMS=5.78D-09 Max=1.88D-07 NDo=     1
 LinEq1:  Iter= 15 NonCon=     1 RMS=2.15D-09 Max=5.31D-08 NDo=     1
 LinEq1:  Iter= 16 NonCon=     1 RMS=7.78D-10 Max=1.37D-08 NDo=     1
 LinEq1:  Iter= 17 NonCon=     1 RMS=2.61D-10 Max=4.29D-09 NDo=     1
 LinEq1:  Iter= 18 NonCon=     1 RMS=9.12D-11 Max=1.20D-09 NDo=     1
 LinEq1:  Iter= 19 NonCon=     0 RMS=2.92D-11 Max=3.57D-10 NDo=     1
 Linear equations converged to 1.000D-10 1.000D-09 after    19 iterations.
 End of Minotr F.D. properties file   721 does not exist.
 End of Minotr F.D. properties file   722 does not exist.
 End of Minotr F.D. properties file   788 does not exist.

 **********************************************************************

            Population analysis using the SCF Density.

 **********************************************************************

 Alpha  occ. eigenvalues --  -20.59801 -20.59645 -15.85290 -15.63296 -15.56803
 Alpha  occ. eigenvalues --  -11.35836 -11.30411 -11.30059 -11.30020 -11.27667
 Alpha  occ. eigenvalues --  -11.24602 -11.23861 -11.23385 -11.22839  -1.58586
 Alpha  occ. eigenvalues --   -1.38136  -1.28545  -1.22706  -1.13305  -1.08463
 Alpha  occ. eigenvalues --   -1.01793  -1.00675  -0.93610  -0.88968  -0.84907
 Alpha  occ. eigenvalues --   -0.81568  -0.78052  -0.77004  -0.74271  -0.71243
 Alpha  occ. eigenvalues --   -0.70469  -0.69633  -0.67431  -0.64290  -0.63240
 Alpha  occ. eigenvalues --   -0.61656  -0.60374  -0.57413  -0.56431  -0.54840
 Alpha  occ. eigenvalues --   -0.53579  -0.50800  -0.49362  -0.48469  -0.47974
 Alpha  occ. eigenvalues --   -0.47686  -0.46270  -0.45601  -0.44083  -0.42065
 Alpha  occ. eigenvalues --   -0.39918  -0.33643
 Alpha virt. eigenvalues --    0.07639   0.11773   0.18112   0.21405   0.23010
 Alpha virt. eigenvalues --    0.24077   0.26008   0.27637   0.28595   0.28861
 Alpha virt. eigenvalues --    0.30159   0.31303   0.31839   0.32303   0.33381
 Alpha virt. eigenvalues --    0.33807   0.34369   0.35507   0.37567   0.38595
 Alpha virt. eigenvalues --    0.40557   0.42016   0.44908   0.45401   0.45847
 Alpha virt. eigenvalues --    0.45945   0.49504   0.53426   0.57570   0.59135
 Alpha virt. eigenvalues --    0.63173   0.69146   0.69262   0.72203   0.73877
 Alpha virt. eigenvalues --    0.74811   0.75806   0.75877   0.77805   0.79328
 Alpha virt. eigenvalues --    0.79669   0.83722   0.84990   0.85529   0.87984
 Alpha virt. eigenvalues --    0.89101   0.90219   0.90668   0.91947   0.93768
 Alpha virt. eigenvalues --    0.95299   0.97101   0.99145   1.00306   1.01682
 Alpha virt. eigenvalues --    1.03029   1.05123   1.06423   1.07074   1.08549
 Alpha virt. eigenvalues --    1.08903   1.10482   1.11420   1.12101   1.13270
 Alpha virt. eigenvalues --    1.13703   1.14012   1.15589   1.16379   1.17331
 Alpha virt. eigenvalues --    1.18180   1.19426   1.20364   1.21619   1.21931
 Alpha virt. eigenvalues --    1.23366   1.25263   1.25923   1.27944   1.28407
 Alpha virt. eigenvalues --    1.30452   1.31371   1.33561   1.36229   1.38648
 Alpha virt. eigenvalues --    1.42770   1.44919   1.46848   1.47403   1.49309
 Alpha virt. eigenvalues --    1.54604   1.55496   1.59893   1.62903   1.65019
 Alpha virt. eigenvalues --    1.68071   1.69975   1.72667   1.72963   1.76189
 Alpha virt. eigenvalues --    1.77696   1.80377   1.84604   1.89246   1.91709
 Alpha virt. eigenvalues --    1.92886   1.95699   1.98596   1.98904   2.00303
 Alpha virt. eigenvalues --    2.00900   2.04104   2.06190   2.08653   2.12344
 Alpha virt. eigenvalues --    2.13273   2.14013   2.17867   2.19206   2.19788
 Alpha virt. eigenvalues --    2.21082   2.23228   2.23829   2.25637   2.26538
 Alpha virt. eigenvalues --    2.29161   2.32157   2.33779   2.35506   2.36369
 Alpha virt. eigenvalues --    2.38303   2.39856   2.41036   2.43771   2.44793
 Alpha virt. eigenvalues --    2.48483   2.49566   2.50318   2.56237   2.58058
 Alpha virt. eigenvalues --    2.60668   2.62520   2.66214   2.68516   2.68673
 Alpha virt. eigenvalues --    2.69644   2.70245   2.73855   2.75608   2.83247
 Alpha virt. eigenvalues --    2.86464   2.86983   2.88746   2.92205   2.93119
 Alpha virt. eigenvalues --    2.98029   2.98309   3.02704   3.03265   3.05821
 Alpha virt. eigenvalues --    3.07252   3.12697   3.19313   3.20822   3.25500
 Alpha virt. eigenvalues --    3.31366   3.33868   3.37796   3.42616   3.59691
 Alpha virt. eigenvalues --    4.09541   4.21341   4.29723   4.33045   4.44689
 Alpha virt. eigenvalues --    4.52940   4.59621   4.60580   4.70961   4.77615
 Alpha virt. eigenvalues --    4.96182   4.99251   5.02877   5.09915
          Condensed to atoms (all electrons):
               1          2          3          4          5          6
     1  O    8.317977   0.312159  -0.087069  -0.087744   0.008111   0.000383
     2  N    0.312159   5.693342   0.308378   0.257261  -0.043312   0.001032
     3  O   -0.087069   0.308378   8.303099  -0.078895   0.002650  -0.000016
     4  C   -0.087744   0.257261  -0.078895   5.253899   0.565702  -0.049196
     5  C    0.008111  -0.043312   0.002650   0.565702   4.664826   0.311140
     6  N    0.000383   0.001032  -0.000016  -0.049196   0.311140   7.184392
     7  C    0.000006  -0.000090   0.000001   0.003894  -0.031038   0.200920
     8  H   -0.000000   0.000002  -0.000000  -0.000200   0.002452  -0.049941
     9  C    0.000000  -0.000003   0.000000   0.000524   0.001569  -0.056385
    10  C   -0.000000   0.000000  -0.000000  -0.000019  -0.000060   0.003332
    11  C   -0.000000  -0.000000  -0.000000  -0.000016   0.000014  -0.000153
    12  C   -0.000000   0.000002   0.000000  -0.000086  -0.000115   0.003579
    13  C   -0.000007  -0.000042  -0.000007  -0.010578   0.000826  -0.044825
    14  H   -0.000002  -0.000061   0.000001   0.002988   0.005020  -0.005625
    15  N   -0.000007   0.001493   0.000373  -0.061822  -0.004323   0.002228
    16  C    0.002181  -0.027326   0.003107   0.318137  -0.040036  -0.001709
    17  H    0.010683  -0.003767   0.000134  -0.031139   0.380228  -0.033572
    18  H    0.000004  -0.000037   0.000001   0.000920  -0.023554   0.327887
    19  H    0.000000  -0.000000   0.000000  -0.000758   0.000716   0.000637
    20  H    0.000000  -0.000000   0.000000  -0.000028   0.000042  -0.001679
    21  H    0.000000  -0.000000  -0.000000   0.000000   0.000001  -0.000059
    22  H   -0.000000   0.000000   0.000000  -0.000000  -0.000002  -0.000097
    23  H    0.000000  -0.000000   0.000000   0.000025  -0.000000  -0.000024
    24  H    0.000000   0.000000   0.000000   0.000000  -0.000000   0.000004
    25  H    0.000000  -0.000000   0.000000   0.000018  -0.000000  -0.000071
    26  H    0.000000  -0.000000   0.000000   0.000006  -0.000001  -0.000065
    27  H    0.000061  -0.000426   0.006784  -0.063111   0.001877   0.000027
               7          8          9         10         11         12
     1  O    0.000006  -0.000000   0.000000  -0.000000  -0.000000  -0.000000
     2  N   -0.000090   0.000002  -0.000003   0.000000  -0.000000   0.000002
     3  O    0.000001  -0.000000   0.000000  -0.000000  -0.000000   0.000000
     4  C    0.003894  -0.000200   0.000524  -0.000019  -0.000016  -0.000086
     5  C   -0.031038   0.002452   0.001569  -0.000060   0.000014  -0.000115
     6  N    0.200920  -0.049941  -0.056385   0.003332  -0.000153   0.003579
     7  C    5.004279   0.416454   0.340858  -0.049314  -0.007706  -0.064313
     8  H    0.416454   0.547655  -0.060638   0.001454  -0.000328  -0.002819
     9  C    0.340858  -0.060638   5.181481   0.317883  -0.053045  -0.006218
    10  C   -0.049314   0.001454   0.317883   5.126764   0.332770  -0.060142
    11  C   -0.007706  -0.000328  -0.053045   0.332770   5.124026   0.330617
    12  C   -0.064313  -0.002819  -0.006218  -0.060142   0.330617   5.137219
    13  C    0.332191  -0.040264  -0.050609  -0.001691  -0.047875   0.368029
    14  H   -0.040069  -0.000941   0.003851  -0.000390   0.003955  -0.040664
    15  N   -0.059071   0.004062  -0.012844   0.001471  -0.007735  -0.074183
    16  C   -0.001977  -0.000007  -0.000753  -0.000031   0.000014   0.002428
    17  H    0.001474  -0.000016  -0.000071   0.000001   0.000000   0.000001
    18  H   -0.028462  -0.002673   0.000806  -0.000118   0.000011  -0.000134
    19  H   -0.034994   0.004096   0.386019  -0.032576  -0.002264   0.000634
    20  H   -0.041676  -0.001844   0.397213  -0.037365   0.004139  -0.000361
    21  H    0.004042  -0.000080  -0.035823   0.400138  -0.035846   0.004211
    22  H   -0.004221   0.003518  -0.045689   0.395956  -0.045619  -0.001233
    23  H    0.000434   0.000033  -0.002003  -0.040099   0.396690  -0.036645
    24  H   -0.000142  -0.000098   0.004395  -0.038486   0.400272  -0.037871
    25  H    0.004991  -0.000005  -0.000370   0.004101  -0.033942   0.395373
    26  H   -0.004444   0.001590   0.001041  -0.002403  -0.042314   0.394701
    27  H   -0.000387   0.000008  -0.000058   0.000005   0.000005  -0.000016
              13         14         15         16         17         18
     1  O   -0.000007  -0.000002  -0.000007   0.002181   0.010683   0.000004
     2  N   -0.000042  -0.000061   0.001493  -0.027326  -0.003767  -0.000037
     3  O   -0.000007   0.000001   0.000373   0.003107   0.000134   0.000001
     4  C   -0.010578   0.002988  -0.061822   0.318137  -0.031139   0.000920
     5  C    0.000826   0.005020  -0.004323  -0.040036   0.380228  -0.023554
     6  N   -0.044825  -0.005625   0.002228  -0.001709  -0.033572   0.327887
     7  C    0.332191  -0.040069  -0.059071  -0.001977   0.001474  -0.028462
     8  H   -0.040264  -0.000941   0.004062  -0.000007  -0.000016  -0.002673
     9  C   -0.050609   0.003851  -0.012844  -0.000753  -0.000071   0.000806
    10  C   -0.001691  -0.000390   0.001471  -0.000031   0.000001  -0.000118
    11  C   -0.047875   0.003955  -0.007735   0.000014   0.000000   0.000011
    12  C    0.368029  -0.040664  -0.074183   0.002428   0.000001  -0.000134
    13  C    5.023946   0.402268   0.240550  -0.068738  -0.000047   0.003667
    14  H    0.402268   0.518334  -0.035507  -0.005249   0.000068   0.000006
    15  N    0.240550  -0.035507   6.938335   0.585788  -0.000059  -0.000113
    16  C   -0.068738  -0.005249   0.585788   4.712256   0.001532  -0.000227
    17  H   -0.000047   0.000068  -0.000059   0.001532   0.392244  -0.001817
    18  H    0.003667   0.000006  -0.000113  -0.000227  -0.001817   0.325017
    19  H   -0.006249   0.000064   0.006905   0.002438   0.000012  -0.000123
    20  H    0.003862  -0.000050   0.000080  -0.000033  -0.000001   0.002842
    21  H   -0.000378   0.000009  -0.000030   0.000002  -0.000000  -0.000000
    22  H    0.000318  -0.000044   0.000003  -0.000001   0.000000   0.000002
    23  H   -0.005869   0.000008   0.006783   0.000061   0.000000   0.000000
    24  H    0.004142  -0.000058   0.000042   0.000005   0.000000  -0.000000
    25  H   -0.034477  -0.002657   0.000796  -0.000067  -0.000000   0.000002
    26  H   -0.044791  -0.000919   0.004186  -0.000054   0.000000  -0.000001
    27  H    0.004734  -0.000181  -0.040513   0.401798  -0.000063   0.000002
              19         20         21         22         23         24
     1  O    0.000000   0.000000   0.000000  -0.000000   0.000000   0.000000
     2  N   -0.000000  -0.000000  -0.000000   0.000000  -0.000000   0.000000
     3  O    0.000000   0.000000  -0.000000   0.000000   0.000000   0.000000
     4  C   -0.000758  -0.000028   0.000000  -0.000000   0.000025   0.000000
     5  C    0.000716   0.000042   0.000001  -0.000002  -0.000000  -0.000000
     6  N    0.000637  -0.001679  -0.000059  -0.000097  -0.000024   0.000004
     7  C   -0.034994  -0.041676   0.004042  -0.004221   0.000434  -0.000142
     8  H    0.004096  -0.001844  -0.000080   0.003518   0.000033  -0.000098
     9  C    0.386019   0.397213  -0.035823  -0.045689  -0.002003   0.004395
    10  C   -0.032576  -0.037365   0.400138   0.395956  -0.040099  -0.038486
    11  C   -0.002264   0.004139  -0.035846  -0.045619   0.396690   0.400272
    12  C    0.000634  -0.000361   0.004211  -0.001233  -0.036645  -0.037871
    13  C   -0.006249   0.003862  -0.000378   0.000318  -0.005869   0.004142
    14  H    0.000064  -0.000050   0.000009  -0.000044   0.000008  -0.000058
    15  N    0.006905   0.000080  -0.000030   0.000003   0.006783   0.000042
    16  C    0.002438  -0.000033   0.000002  -0.000001   0.000061   0.000005
    17  H    0.000012  -0.000001  -0.000000   0.000000   0.000000   0.000000
    18  H   -0.000123   0.002842  -0.000000   0.000002   0.000000  -0.000000
    19  H    0.506520  -0.023999  -0.002593   0.003757   0.001642  -0.000069
    20  H   -0.023999   0.550294  -0.002619  -0.002965  -0.000050  -0.000090
    21  H   -0.002593  -0.002619   0.526125  -0.024705  -0.002815  -0.002061
    22  H    0.003757  -0.002965  -0.024705   0.568905   0.004062  -0.003594
    23  H    0.001642  -0.000050  -0.002815   0.004062   0.509698  -0.024993
    24  H   -0.000069  -0.000090  -0.002061  -0.003594  -0.024993   0.541177
    25  H   -0.000027   0.000011  -0.000086  -0.000082  -0.002091  -0.002384
    26  H    0.000023  -0.000035  -0.000074   0.002464   0.003820  -0.002766
    27  H    0.000071  -0.000000  -0.000000   0.000000  -0.000022  -0.000000
              25         26         27
     1  O    0.000000   0.000000   0.000061
     2  N   -0.000000  -0.000000  -0.000426
     3  O    0.000000   0.000000   0.006784
     4  C    0.000018   0.000006  -0.063111
     5  C   -0.000000  -0.000001   0.001877
     6  N   -0.000071  -0.000065   0.000027
     7  C    0.004991  -0.004444  -0.000387
     8  H   -0.000005   0.001590   0.000008
     9  C   -0.000370   0.001041  -0.000058
    10  C    0.004101  -0.002403   0.000005
    11  C   -0.033942  -0.042314   0.000005
    12  C    0.395373   0.394701  -0.000016
    13  C   -0.034477  -0.044791   0.004734
    14  H   -0.002657  -0.000919  -0.000181
    15  N    0.000796   0.004186  -0.040513
    16  C   -0.000067  -0.000054   0.401798
    17  H   -0.000000   0.000000  -0.000063
    18  H    0.000002  -0.000001   0.000002
    19  H   -0.000027   0.000023   0.000071
    20  H    0.000011  -0.000035  -0.000000
    21  H   -0.000086  -0.000074  -0.000000
    22  H   -0.000082   0.002464   0.000000
    23  H   -0.002091   0.003820  -0.000022
    24  H   -0.002384  -0.002766  -0.000000
    25  H    0.510892  -0.023125  -0.000010
    26  H   -0.023125   0.560908   0.000001
    27  H   -0.000010   0.000001   0.441121
 Mulliken charges:
               1
     1  O   -0.476736
     2  N    0.501398
     3  O   -0.458540
     4  C   -0.019782
     5  C    0.197268
     6  N   -0.792143
     7  C    0.058359
     8  H    0.178533
     9  C   -0.311129
    10  C   -0.321180
    11  C   -0.315673
    12  C   -0.311992
    13  C   -0.028086
    14  H    0.195844
    15  N   -0.496890
    16  C    0.116461
    17  H    0.284173
    18  H    0.396091
    19  H    0.190118
    20  H    0.154313
    21  H    0.172641
    22  H    0.149269
    23  H    0.191353
    24  H    0.162576
    25  H    0.183211
    26  H    0.152251
    27  H    0.248290
 Sum of Mulliken charges =  -0.00000
 Mulliken charges with hydrogens summed into heavy atoms:
               1
     1  O   -0.476736
     2  N    0.501398
     3  O   -0.458540
     4  C   -0.019782
     5  C    0.481441
     6  N   -0.396052
     7  C    0.236892
     9  C    0.033302
    10  C    0.000730
    11  C    0.038256
    12  C    0.023471
    13  C    0.167758
    15  N   -0.496890
    16  C    0.364752
 Electronic spatial extent (au):  <R**2>=           3118.9243
 Charge=             -0.0000 electrons
 Dipole moment (field-independent basis, Debye):
    X=              5.2720    Y=              4.4105    Z=              0.8621  Tot=              6.9275
 Quadrupole moment (field-independent basis, Debye-Ang):
   XX=           -104.9443   YY=            -78.2901   ZZ=            -84.3603
   XY=             -2.2275   XZ=              1.0241   YZ=             -1.2096
 Traceless Quadrupole moment (field-independent basis, Debye-Ang):
   XX=            -15.7461   YY=             10.9081   ZZ=              4.8380
   XY=             -2.2275   XZ=              1.0241   YZ=             -1.2096
 Octapole moment (field-independent basis, Debye-Ang**2):
  XXX=             97.8879  YYY=             33.1661  ZZZ=             -3.3478  XYY=             -8.7089
  XXY=             14.2715  XXZ=             -0.5596  XZZ=             -0.7304  YZZ=             -1.3152
  YYZ=              5.7622  XYZ=              4.4347
 Hexadecapole moment (field-independent basis, Debye-Ang**3):
 XXXX=          -3534.3862 YYYY=           -587.1854 ZZZZ=           -331.3657 XXXY=            -58.9549
 XXXZ=             31.9369 YYYX=            -15.4829 YYYZ=            -10.7021 ZZZX=             20.0239
 ZZZY=            -19.1594 XXYY=           -623.8930 XXZZ=           -576.2304 YYZZ=           -164.8375
 XXYZ=            -29.6348 YYXZ=              4.9805 ZZXY=             -1.0420
 N-N= 9.178188410491D+02 E-N=-3.381657552864D+03  KE= 6.588697679245D+02
 Calling FoFJK, ICntrl=  10002127 FMM=F ISym2X=0 I1Cent= 0 IOpClX= 0 NMat=1 NMatS=1 NMatT=0.
 -------------------------------------------------------------------
 Center     Atomic                   Forces (Hartrees/Bohr)
 Number     Number              X              Y              Z
 -------------------------------------------------------------------
      1        8          -0.005539164    0.012230242    0.011096716
      2        7           0.039983559    0.013530234   -0.000737950
      3        8          -0.000863186   -0.015682734   -0.011474786
      4        6          -0.002545236    0.006041012    0.009479551
      5        6           0.003912963   -0.016672689   -0.004592055
      6        7           0.014273562   -0.008689570   -0.007447543
      7        6          -0.004684250    0.005001085    0.003773412
      8        1          -0.010046465   -0.000965425   -0.007812297
      9        6          -0.004021037    0.000347538   -0.002134353
     10        6           0.002825404   -0.000957277    0.000927227
     11        6          -0.001018078   -0.004380274   -0.002771804
     12        6           0.000842702   -0.008410806   -0.003611034
     13        6           0.009033761   -0.001903075    0.003921333
     14        1           0.000885605    0.005214931   -0.009533533
     15        7           0.000674840    0.000130779    0.003180382
     16        6          -0.019543076    0.008657480    0.001531506
     17        1           0.007634522   -0.005372077   -0.005309572
     18        1          -0.017387133   -0.002321486    0.005176517
     19        1           0.003089589    0.005198304    0.008154796
     20        1          -0.003249396   -0.007552829    0.001971106
     21        1          -0.004388145    0.001582509    0.009773909
     22        1          -0.003970217   -0.003342127   -0.007722474
     23        1           0.003939217    0.005308079    0.009786158
     24        1          -0.009376104    0.002784149   -0.001938918
     25        1          -0.000790819    0.010764012   -0.001517466
     26        1          -0.004748149   -0.004427787   -0.004776849
     27        1           0.005074731    0.003887800    0.002608021
 -------------------------------------------------------------------
 Cartesian Forces:  Max     0.039983559 RMS     0.008315481

 GradGradGradGradGradGradGradGradGradGradGradGradGradGradGradGradGradGrad
 Berny optimization.
 FormGI is forming the generalized inverse of G from B-inverse, IUseBI=4.
 Internal  Forces:  Max     0.034854380 RMS     0.006719413
 Search for a local minimum.
 Step number   1 out of a maximum of   20
 All quantities printed in internal units (Hartrees-Bohrs-Radians)
 Mixed Optimization -- RFO/linear search
 Second derivative matrix not updated -- first step.
 ITU=  0
     Eigenvalues ---    0.00232   0.00770   0.01048   0.01148   0.01198
     Eigenvalues ---    0.01485   0.01531   0.01602   0.01976   0.02019
     Eigenvalues ---    0.02095   0.02686   0.03661   0.04506   0.04695
     Eigenvalues ---    0.04838   0.05080   0.05138   0.05304   0.05889
     Eigenvalues ---    0.06266   0.07216   0.07701   0.07724   0.07871
     Eigenvalues ---    0.07994   0.08050   0.08055   0.10459   0.11739
     Eigenvalues ---    0.12269   0.13487   0.15260   0.15737   0.15990
     Eigenvalues ---    0.16000   0.20085   0.21955   0.23149   0.24973
     Eigenvalues ---    0.25000   0.25000   0.25363   0.26188   0.26652
     Eigenvalues ---    0.27981   0.28083   0.28463   0.30226   0.31464
     Eigenvalues ---    0.31651   0.32045   0.32237   0.32289   0.32381
     Eigenvalues ---    0.32388   0.32404   0.32514   0.32525   0.32580
     Eigenvalues ---    0.33369   0.33378   0.33612   0.35325   0.43887
     Eigenvalues ---    0.44390   0.49193   0.67015   0.90490   0.91242
     Eigenvalues --- 1000.000001000.000001000.000001000.000001000.00000
     Eigenvalues --- 1000.000001000.000001000.000001000.000001000.00000
     Eigenvalues --- 1000.000001000.000001000.000001000.000001000.00000
     Eigenvalues --- 1000.000001000.000001000.000001000.000001000.00000
     Eigenvalues --- 1000.000001000.000001000.000001000.000001000.00000
     Eigenvalues --- 1000.000001000.000001000.000001000.000001000.00000
     Eigenvalues --- 1000.000001000.000001000.000001000.000001000.00000
     Eigenvalues --- 1000.000001000.000001000.000001000.000001000.00000
     Eigenvalues --- 1000.000001000.000001000.000001000.000001000.00000
     Eigenvalues --- 1000.000001000.000001000.000001000.000001000.00000
     Eigenvalues --- 1000.000001000.000001000.000001000.000001000.00000
     Eigenvalues --- 1000.000001000.000001000.000001000.000001000.00000
     Eigenvalues --- 1000.000001000.000001000.000001000.000001000.00000
     Eigenvalues --- 1000.000001000.000001000.000001000.000001000.00000
     Eigenvalues --- 1000.000001000.000001000.000001000.000001000.00000
     Eigenvalues --- 1000.000001000.000001000.000001000.000001000.00000
     Eigenvalues --- 1000.000001000.000001000.000001000.000001000.00000
     Eigenvalues --- 1000.000001000.000001000.000001000.000001000.00000
     Eigenvalues --- 1000.00000
 RFO step:  Lambda=-2.26689726D-02 EMin= 2.32178680D-03
 Linear search not attempted -- first point.
 Iteration  1 RMS(Cart)=  0.05399582 RMS(Int)=  0.00116715
 Iteration  2 RMS(Cart)=  0.00135441 RMS(Int)=  0.00033523
 Iteration  3 RMS(Cart)=  0.00000152 RMS(Int)=  0.00033523
 Iteration  4 RMS(Cart)=  0.00000000 RMS(Int)=  0.00033523
 Iteration  1 RMS(Cart)=  0.00002251 RMS(Int)=  0.00001837
 Iteration  2 RMS(Cart)=  0.00001144 RMS(Int)=  0.00002028
 Iteration  3 RMS(Cart)=  0.00000684 RMS(Int)=  0.00002258
 Iteration  4 RMS(Cart)=  0.00000480 RMS(Int)=  0.00002425
 Iteration  5 RMS(Cart)=  0.00000372 RMS(Int)=  0.00002548
 Iteration  6 RMS(Cart)=  0.00000304 RMS(Int)=  0.00002643
 Iteration  7 RMS(Cart)=  0.00000254 RMS(Int)=  0.00002721
 Iteration  8 RMS(Cart)=  0.00000215 RMS(Int)=  0.00002787
 Iteration  9 RMS(Cart)=  0.00000182 RMS(Int)=  0.00002843
 Iteration 10 RMS(Cart)=  0.00000155 RMS(Int)=  0.00002891
 Iteration 11 RMS(Cart)=  0.00000132 RMS(Int)=  0.00002933
 Iteration 12 RMS(Cart)=  0.00000112 RMS(Int)=  0.00002968
 Iteration 13 RMS(Cart)=  0.00000095 RMS(Int)=  0.00002999
 Variable       Old X    -DE/DX   Delta X   Delta X   Delta X     New X
                                 (Linear)    (Quad)   (Total)
    R1        2.32708   0.01656   0.00000   0.01785   0.01785   2.34493
    R2        2.32366   0.01856   0.00000   0.01985   0.01985   2.34350
    R3        2.87514  -0.03485   0.00000  -0.10727  -0.10727   2.76787
    R4        2.64299  -0.03329   0.00000  -0.07189  -0.07166   2.57133
    R5        2.80803  -0.02171   0.00000  -0.06257  -0.06235   2.74568
    R6        2.59050  -0.02465   0.00000  -0.04764  -0.04754   2.54296
    R7        2.08408  -0.01031   0.00000  -0.02893  -0.02893   2.05515
    R8        2.82503  -0.01964   0.00000  -0.05444  -0.05453   2.77050
    R9        1.93290  -0.00659   0.00000  -0.01429  -0.01429   1.91861
   R10        2.11836  -0.01184   0.00000  -0.03511  -0.03511   2.08325
   R11        2.92735  -0.01302   0.00000  -0.04446  -0.04447   2.88288
   R12        2.90347  -0.00454   0.00000  -0.00941  -0.00940   2.89407
   R13        2.91140  -0.00464   0.00000  -0.01445  -0.01448   2.89692
   R14        2.09913  -0.00994   0.00000  -0.02857  -0.02857   2.07056
   R15        2.09893  -0.00804   0.00000  -0.02310  -0.02310   2.07583
   R16        2.90430  -0.00182   0.00000  -0.00718  -0.00723   2.89707
   R17        2.10139  -0.01058   0.00000  -0.03052  -0.03052   2.07088
   R18        2.10318  -0.00901   0.00000  -0.02608  -0.02608   2.07710
   R19        2.91765  -0.00909   0.00000  -0.02894  -0.02893   2.88872
   R20        2.10412  -0.01165   0.00000  -0.03377  -0.03377   2.07034
   R21        2.10110  -0.00995   0.00000  -0.02869  -0.02869   2.07241
   R22        2.93531  -0.01058   0.00000  -0.03655  -0.03652   2.89879
   R23        2.10152  -0.01074   0.00000  -0.03100  -0.03100   2.07053
   R24        2.09795  -0.00785   0.00000  -0.02254  -0.02254   2.07541
   R25        2.10762  -0.00922   0.00000  -0.02688  -0.02688   2.08074
   R26        2.76881  -0.00540   0.00000  -0.01128  -0.01162   2.75720
   R27        2.44268  -0.00468   0.00000  -0.00645  -0.00651   2.43617
   R28        2.07991  -0.00639   0.00000  -0.01780  -0.01780   2.06210
    A1        2.16545   0.00837   0.00000   0.03144   0.02971   2.19517
    A2        2.06502  -0.00415   0.00000  -0.01446  -0.01618   2.04884
    A3        2.05243  -0.00419   0.00000  -0.01461  -0.01633   2.03610
    A4        2.02515  -0.00863   0.00000  -0.02906  -0.02949   1.99566
    A5        2.03491  -0.00069   0.00000   0.00010  -0.00037   2.03454
    A6        2.22203   0.00924   0.00000   0.02727   0.02751   2.24953
    A7        2.19827   0.00690   0.00000   0.02258   0.02294   2.22122
    A8        2.06223  -0.00301   0.00000  -0.00862  -0.00889   2.05333
    A9        2.02168  -0.00384   0.00000  -0.01309  -0.01337   2.00831
   A10        2.25275  -0.00550   0.00000  -0.01859  -0.01857   2.23418
   A11        2.11650  -0.01244   0.00000  -0.07150  -0.07195   2.04455
   A12        1.87573   0.01812   0.00000   0.09808   0.09818   1.97391
   A13        1.83790  -0.00163   0.00000  -0.01722  -0.01701   1.82089
   A14        2.00647  -0.00098   0.00000  -0.01236  -0.01248   1.99400
   A15        1.96783   0.00085   0.00000  -0.00110  -0.00153   1.96630
   A16        1.85204   0.00266   0.00000   0.02427   0.02412   1.87616
   A17        1.84904   0.00092   0.00000   0.02063   0.02040   1.86944
   A18        1.93654  -0.00150   0.00000  -0.00946  -0.00916   1.92737
   A19        1.91021   0.00013   0.00000  -0.00530  -0.00543   1.90478
   A20        1.92247  -0.00071   0.00000  -0.01301  -0.01298   1.90950
   A21        1.92285  -0.00166   0.00000  -0.00692  -0.00691   1.91594
   A22        1.91925  -0.00043   0.00000   0.00560   0.00555   1.92480
   A23        1.90449   0.00308   0.00000   0.02500   0.02501   1.92950
   A24        1.88437  -0.00039   0.00000  -0.00494  -0.00520   1.87917
   A25        1.94048  -0.00089   0.00000   0.00553   0.00541   1.94589
   A26        1.91892  -0.00070   0.00000  -0.00689  -0.00690   1.91201
   A27        1.90497   0.00032   0.00000  -0.00292  -0.00298   1.90198
   A28        1.91612   0.00079   0.00000   0.00724   0.00728   1.92340
   A29        1.89850   0.00172   0.00000   0.01129   0.01132   1.90982
   A30        1.88381  -0.00123   0.00000  -0.01473  -0.01481   1.86900
   A31        1.94470   0.00064   0.00000   0.00531   0.00544   1.95014
   A32        1.90234   0.00062   0.00000   0.00592   0.00587   1.90821
   A33        1.91742   0.00039   0.00000   0.00533   0.00529   1.92272
   A34        1.90661  -0.00114   0.00000  -0.01446  -0.01450   1.89211
   A35        1.91537  -0.00047   0.00000   0.00021   0.00012   1.91549
   A36        1.87602  -0.00007   0.00000  -0.00270  -0.00273   1.87329
   A37        1.94777  -0.00298   0.00000  -0.01868  -0.01871   1.92906
   A38        1.90597   0.00254   0.00000   0.01683   0.01668   1.92265
   A39        1.91071   0.00139   0.00000   0.01371   0.01369   1.92439
   A40        1.90620   0.00019   0.00000  -0.00317  -0.00301   1.90319
   A41        1.91138  -0.00019   0.00000  -0.00438  -0.00431   1.90707
   A42        1.88057  -0.00087   0.00000  -0.00380  -0.00399   1.87658
   A43        1.84642   0.00455   0.00000   0.02322   0.02326   1.86968
   A44        1.93828  -0.00435   0.00000  -0.03102  -0.03146   1.90682
   A45        1.98367   0.00084   0.00000   0.01150   0.01174   1.99541
   A46        1.88051   0.00226   0.00000   0.03089   0.03119   1.91170
   A47        1.89188  -0.00390   0.00000  -0.02886  -0.02891   1.86297
   A48        1.91844   0.00080   0.00000  -0.00338  -0.00325   1.91519
   A49        2.08400  -0.00588   0.00000  -0.01230  -0.01271   2.07129
   A50        2.24748  -0.00490   0.00000  -0.02101  -0.02104   2.22645
   A51        1.98405   0.00458   0.00000   0.02220   0.02174   2.00579
   A52        2.05165   0.00034   0.00000  -0.00099  -0.00144   2.05021
    D1       -0.39563  -0.00007   0.00000  -0.03520  -0.03457  -0.43020
    D2        2.79253   0.00127   0.00000   0.00000  -0.00000   2.79253
    D3        2.72157   0.00149   0.00000   0.06884   0.06908   2.79066
    D4       -0.37345   0.00283   0.00000   0.10403   0.10365  -0.26980
    D5        3.07582   0.00140   0.00000   0.03120   0.03116   3.10698
    D6       -0.01542   0.00036   0.00000   0.00994   0.00976  -0.00567
    D7       -0.11813  -0.00050   0.00000  -0.00947  -0.00974  -0.12787
    D8        3.07381  -0.00155   0.00000  -0.03073  -0.03115   3.04267
    D9       -2.70517  -0.00213   0.00000  -0.05041  -0.05096  -2.75613
   D10        0.43140  -0.00010   0.00000  -0.00270  -0.00307   0.42833
   D11        0.48904  -0.00002   0.00000  -0.00880  -0.00856   0.48047
   D12       -2.65759   0.00202   0.00000   0.03892   0.03933  -2.61826
   D13       -0.12395  -0.00069   0.00000   0.00860   0.00886  -0.11508
   D14        2.68576   0.00314   0.00000   0.05870   0.05764   2.74341
   D15        2.96833   0.00034   0.00000   0.02951   0.02988   2.99820
   D16       -0.50515   0.00417   0.00000   0.07962   0.07866  -0.42649
   D17       -2.48422  -0.00071   0.00000  -0.01367  -0.01329  -2.49752
   D18        1.76723  -0.00238   0.00000  -0.02551  -0.02514   1.74209
   D19       -0.47609  -0.00015   0.00000   0.00023   0.00022  -0.47587
   D20        0.95366  -0.00005   0.00000  -0.03537  -0.03595   0.91771
   D21       -1.07808  -0.00172   0.00000  -0.04722  -0.04780  -1.12587
   D22        2.96179   0.00051   0.00000  -0.02147  -0.02244   2.93936
   D23        2.94402   0.00242   0.00000   0.02834   0.02821   2.97223
   D24       -1.22705   0.00152   0.00000   0.02366   0.02355  -1.20350
   D25        0.84991  -0.00043   0.00000   0.00514   0.00510   0.85502
   D26        0.92037   0.00321   0.00000   0.04034   0.04034   0.96071
   D27        3.03249   0.00231   0.00000   0.03566   0.03568   3.06816
   D28       -1.17373   0.00036   0.00000   0.01714   0.01723  -1.15650
   D29       -1.08034   0.00139   0.00000   0.00724   0.00726  -1.07308
   D30        1.03178   0.00049   0.00000   0.00257   0.00260   1.03438
   D31        3.10874  -0.00146   0.00000  -0.01595  -0.01585   3.09289
   D32       -2.90013  -0.00094   0.00000  -0.01375  -0.01351  -2.91364
   D33       -0.86449   0.00213   0.00000   0.02039   0.02024  -0.84425
   D34        1.30938   0.00039   0.00000   0.00000  -0.00001   1.30937
   D35       -0.89872  -0.00191   0.00000  -0.02269  -0.02260  -0.92132
   D36        1.13692   0.00116   0.00000   0.01145   0.01115   1.14807
   D37       -2.97239  -0.00058   0.00000  -0.00894  -0.00909  -2.98149
   D38        1.10387   0.00099   0.00000   0.01267   0.01277   1.11664
   D39        3.13951   0.00407   0.00000   0.04681   0.04652  -3.09716
   D40       -0.96981   0.00232   0.00000   0.02642   0.02628  -0.94353
   D41        0.95666   0.00067   0.00000   0.00000   0.00001   0.95666
   D42        3.08230   0.00060   0.00000   0.00814   0.00810   3.09040
   D43       -1.13767  -0.00112   0.00000  -0.01557  -0.01554  -1.15321
   D44       -1.15741   0.00174   0.00000   0.01593   0.01601  -1.14141
   D45        0.96824   0.00166   0.00000   0.02407   0.02410   0.99233
   D46        3.03145  -0.00005   0.00000   0.00036   0.00046   3.03191
   D47        3.06198   0.00062   0.00000   0.00368   0.00364   3.06562
   D48       -1.09556   0.00054   0.00000   0.01182   0.01173  -1.08383
   D49        0.96765  -0.00117   0.00000  -0.01189  -0.01191   0.95574
   D50       -0.92192  -0.00081   0.00000   0.00000   0.00001  -0.92191
   D51        1.18343  -0.00142   0.00000  -0.01076  -0.01076   1.17266
   D52       -3.04842  -0.00091   0.00000  -0.00747  -0.00751  -3.05593
   D53       -3.04919   0.00013   0.00000   0.00009   0.00011  -3.04908
   D54       -0.94384  -0.00048   0.00000  -0.01066  -0.01066  -0.95450
   D55        1.10749   0.00003   0.00000  -0.00738  -0.00740   1.10009
   D56        1.17624   0.00015   0.00000   0.00710   0.00713   1.18337
   D57       -3.00160  -0.00046   0.00000  -0.00366  -0.00364  -3.00524
   D58       -0.95026   0.00005   0.00000  -0.00037  -0.00038  -0.95064
   D59        0.98813  -0.00084   0.00000  -0.01165  -0.01169   0.97645
   D60        3.09733  -0.00081   0.00000  -0.01635  -0.01650   3.08083
   D61       -1.13077   0.00042   0.00000  -0.00319  -0.00316  -1.13393
   D62       -1.11471  -0.00126   0.00000  -0.01287  -0.01285  -1.12756
   D63        0.99449  -0.00124   0.00000  -0.01757  -0.01767   0.97682
   D64        3.04957  -0.00000   0.00000  -0.00440  -0.00432   3.04525
   D65        3.11582  -0.00024   0.00000  -0.00123  -0.00122   3.11459
   D66       -1.05817  -0.00021   0.00000  -0.00593  -0.00604  -1.06421
   D67        0.99691   0.00102   0.00000   0.00723   0.00731   1.00422
   D68       -1.05291   0.00003   0.00000  -0.00091  -0.00084  -1.05375
   D69       -3.12723   0.00159   0.00000   0.00764   0.00727  -3.11997
   D70        1.08062   0.00151   0.00000   0.01030   0.01023   1.09085
   D71        3.12121  -0.00136   0.00000  -0.00788  -0.00773   3.11348
   D72        1.04689   0.00019   0.00000   0.00067   0.00037   1.04726
   D73       -1.02844   0.00012   0.00000   0.00334   0.00334  -1.02510
   D74        1.06560  -0.00031   0.00000   0.00112   0.00130   1.06690
   D75       -1.00872   0.00124   0.00000   0.00966   0.00940  -0.99932
   D76       -3.08405   0.00117   0.00000   0.01233   0.01237  -3.07168
   D77       -1.17218   0.00401   0.00000   0.00000  -0.00001  -1.17219
   D78        3.06356   0.00042   0.00000  -0.01666  -0.01655   3.04701
   D79        1.01233  -0.00049   0.00000  -0.03515  -0.03541   0.97692
   D80        0.13431   0.00094   0.00000   0.01399   0.01371   0.14802
   D81       -3.00209  -0.00117   0.00000  -0.03535  -0.03530  -3.03738
         Item               Value     Threshold  Converged?
 Maximum Force            0.034854     0.000450     NO 
 RMS     Force            0.006787     0.000300     NO 
 Maximum Displacement     0.262457     0.001800     NO 
 RMS     Displacement     0.054176     0.001200     NO 
 Predicted change in Energy=-1.271789D-02
 GradGradGradGradGradGradGradGradGradGradGradGradGradGradGradGradGradGrad

                          Input orientation:                          
 ---------------------------------------------------------------------
 Center     Atomic      Atomic             Coordinates (Angstroms)
 Number     Number       Type             X           Y           Z
 ---------------------------------------------------------------------
      1          8           0       -3.837804    0.479374    0.642022
      2          7           0       -3.128833   -0.226990   -0.091601
      3          8           0       -3.525932   -1.166455   -0.797034
      4          6           0       -1.681856   -0.004162   -0.047535
      5          6           0       -1.318469    1.242469    0.359086
      6          7           0       -0.068931    1.712402    0.528390
      7          6           0        1.193197    0.970889    0.447181
      8          1           0        1.823949    1.419038    1.232430
      9          6           0        1.929494    1.130698   -0.879335
     10          6           0        3.328867    0.517357   -0.754412
     11          6           0        3.263216   -0.940638   -0.285129
     12          6           0        2.437365   -1.087334    0.992839
     13          6           0        1.029500   -0.512149    0.792457
     14          1           0        0.456858   -0.606000    1.728218
     15          7           0        0.396010   -1.306695   -0.254539
     16          6           0       -0.842639   -1.085392   -0.535108
     17          1           0       -2.111971    1.944986    0.603147
     18          1           0        0.057072    2.718955    0.486231
     19          1           0        1.364128    0.628618   -1.672317
     20          1           0        1.997069    2.195422   -1.140977
     21          1           0        3.844853    0.581571   -1.719059
     22          1           0        3.914572    1.106901   -0.035018
     23          1           0        2.801659   -1.553060   -1.067560
     24          1           0        4.274831   -1.330334   -0.119401
     25          1           0        2.355656   -2.144113    1.270409
     26          1           0        2.927647   -0.563972    1.824639
     27          1           0       -1.324497   -1.755397   -1.249014
 ---------------------------------------------------------------------
                    Distance matrix (angstroms):
                    1          2          3          4          5
     1  O    0.000000
     2  N    1.240884   0.000000
     3  O    2.208371   1.240129   0.000000
     4  C    2.314607   1.464696   2.305058   0.000000
     5  C    2.647530   2.374836   3.465894   1.360691   0.000000
     6  N    3.967073   3.675408   4.689927   2.424831   1.345676
     7  C    5.058707   4.517205   5.327897   3.075939   2.527841
     8  H    5.769488   5.384469   6.278911   3.994306   3.266297
     9  C    6.000040   5.296274   5.919913   3.875778   3.477851
    10  C    7.301550   6.534160   7.058704   5.087141   4.833570
    11  C    7.300721   6.434674   6.812163   5.038569   5.115937
    12  C    6.477298   5.735744   6.226622   4.384475   4.464965
    13  C    4.969547   4.260822   4.868938   2.883590   2.963014
    14  H    4.560918   4.038882   4.749065   2.844223   2.905709
    15  N    4.681778   3.690098   3.961766   2.461092   3.132764
    16  C    3.578428   2.481982   2.697265   1.452953   2.538688
    17  H    2.264515   2.496830   3.693354   2.099420   1.087539
    18  H    4.495559   4.377495   5.438851   3.274773   2.021952
    19  H    5.695483   4.839154   5.282148   3.509750   3.420487
    20  H    6.337953   5.765773   6.474879   4.423605   3.761795
    21  H    8.037933   7.206573   7.631134   5.803585   5.604942
    22  H    7.807144   7.168823   7.817283   5.705666   5.249611
    23  H    7.150939   6.154810   6.345160   4.851953   5.179359
    24  H    8.346835   7.485478   7.831854   6.102952   6.175214
    25  H    6.755479   5.967416   6.310564   4.755825   5.079237
    26  H    6.946832   6.361327   6.991769   5.006590   4.841547
    27  H    3.858358   2.632728   2.323242   2.153621   3.401944
                    6          7          8          9         10
     6  N    0.000000
     7  C    1.466084   0.000000
     8  H    2.040767   1.102407   0.000000
     9  C    2.512722   1.525555   2.133971   0.000000
    10  C    3.823447   2.492108   2.650537   1.532983   0.000000
    11  C    4.336316   2.911219   3.153181   2.534232   1.533064
    12  C    3.786258   2.466167   2.591445   2.946631   2.534304
    13  C    2.494976   1.531474   2.134059   2.510742   2.956310
    14  H    2.662898   2.160979   2.493095   3.461808   3.959017
    15  N    3.153425   2.513028   3.417559   2.946665   3.489798
    16  C    3.091488   3.055783   4.062887   3.565708   4.474187
    17  H    2.057595   3.449250   4.020458   4.381126   5.786520
    18  H    1.015285   2.085195   2.316991   2.809501   4.134111
    19  H    2.841012   2.153750   3.045283   1.095693   2.171434
    20  H    2.699713   2.160541   2.503158   1.098480   2.176929
    21  H    4.652689   3.446078   3.673785   2.162239   1.095861
    22  H    4.068459   2.767110   2.464662   2.157306   1.099155
    23  H    4.631477   3.354387   3.883200   2.828190   2.159313
    24  H    5.342859   3.887559   3.923432   3.483502   2.170726
    25  H    4.615401   3.425238   3.602805   3.940483   3.482881
    26  H    3.980154   2.694718   2.345462   3.343605   2.825199
    27  H    4.094049   4.080257   5.113444   4.365166   5.202291
                   11         12         13         14         15
    11  C    0.000000
    12  C    1.528644   0.000000
    13  C    2.516800   1.533973   0.000000
    14  H    3.470042   2.166765   1.101079   0.000000
    15  N    2.890641   2.402333   1.459046   2.103806   0.000000
    16  C    4.116003   3.618432   2.365574   2.653517   1.289164
    17  H    6.165103   5.481175   3.992767   3.791068   4.195119
    18  H    4.926152   4.517774   3.388129   3.571790   4.107247
    19  H    2.827259   3.346548   2.736500   3.729753   2.587041
    20  H    3.488621   3.939990   3.464866   4.295637   3.951454
    21  H    2.170617   3.481474   3.928123   4.977204   4.195818
    22  H    2.163155   2.837833   3.410231   4.242502   4.272460
    23  H    1.095579   2.143562   2.771950   3.769800   2.551244
    24  H    1.096674   2.161576   3.468874   4.302938   3.881247
    25  H    2.166036   1.095675   2.156487   2.486125   2.620487
    26  H    2.169240   1.098260   2.161260   2.473027   3.359138
    27  H    4.758153   4.429878   3.354784   3.654893   2.037267
                   16         17         18         19         20
    16  C    0.000000
    17  H    3.477071   0.000000
    18  H    4.040503   2.305959   0.000000
    19  H    3.016768   4.358190   3.276771   0.000000
    20  H    4.381182   4.470895   2.585630   1.771387   0.000000
    21  H    5.114009   6.537225   4.876372   2.481612   2.520516
    22  H    5.261872   6.117914   4.213161   3.068268   2.466747
    23  H    3.712563   6.258702   5.310097   2.681780   3.834563
    24  H    5.140166   7.213948   5.878182   3.836827   4.320043
    25  H    3.822286   6.093083   5.435794   4.163028   4.977442
    26  H    4.478319   5.760614   4.561704   4.011927   4.156333
    27  H    1.091217   4.212297   4.993959   3.618206   5.162698
                   21         22         23         24         25
    21  H    0.000000
    22  H    1.765454   0.000000
    23  H    2.463606   3.062697   0.000000
    24  H    2.529658   2.465162   1.766027   0.000000
    25  H    4.310914   3.834508   2.452419   2.505402   0.000000
    26  H    3.835535   2.687780   3.059245   2.486263   1.769517
    27  H    5.692499   6.092158   4.135097   5.727930   4.476843
                   26         27
    26  H    0.000000
    27  H    5.380294   0.000000
 Symmetry turned off by external request.
 Stoichiometry    C9H13N3O2
 Framework group  C1[X(C9H13N3O2)]
 Deg. of freedom    75
 Full point group                 C1      NOp   1
 Rotational constants (GHZ):           1.6867162           0.4178680           0.3754617
 Standard basis: 6-31G(d) (6D, 7F)
   236 basis functions,   444 primitive gaussians,   236 cartesian basis functions
    52 alpha electrons       52 beta electrons
       nuclear repulsion energy       931.9729507200 Hartrees.
 NAtoms=   27 NActive=   27 NUniq=   27 SFac= 1.00D+00 NAtFMM=   60 NAOKFM=F Big=F
 Integral buffers will be    131072 words long.
 Raffenetti 1 integral format.
 Two-electron integral symmetry is turned off.
 One-electron integrals computed using PRISM.
 NBasis=   236 RedAO= T EigKep=  1.24D-03  NBF=   236
 NBsUse=   236 1.00D-06 EigRej= -1.00D+00 NBFU=   236
 Initial guess from the checkpoint file:  "/home/alexey/tmp/Gau-1094294.chk"
 B after Tr=     0.053365    0.004166    0.000429
         Rot=    0.999998    0.001363    0.000538    0.000944 Ang=   0.20 deg.
 ExpMin= 1.61D-01 ExpMax= 5.48D+03 ExpMxC= 8.25D+02 IAcc=3 IRadAn=         5 AccDes= 0.00D+00
 Harris functional with IExCor=  205 and IRadAn=       5 diagonalized for initial guess.
 HarFok:  IExCor=  205 AccDes= 0.00D+00 IRadAn=         5 IDoV= 1 UseB2=F ITyADJ=14
 ICtDFT=  3500011 ScaDFX=  1.000000  1.000000  1.000000  1.000000
 FoFCou: FMM=F IPFlag=           0 FMFlag=      100000 FMFlg1=           0
         NFxFlg=           0 DoJE=T BraDBF=F KetDBF=T FulRan=T
         wScrn=  0.000000 ICntrl=       500 IOpCl=  0 I1Cent=   200000004 NGrid=           0
         NMat0=    1 NMatS0=      1 NMatT0=    0 NMatD0=    1 NMtDS0=    0 NMtDT0=    0
 Symmetry not used in FoFCou.
 Keep R1 ints in memory in canonical form, NReq=397720213.
 Requested convergence on RMS density matrix=1.00D-08 within 128 cycles.
 Requested convergence on MAX density matrix=1.00D-06.
 Requested convergence on             energy=1.00D-06.
 No special actions if energy rises.
 SCF Done:  E(RHF) =  -661.296622487     A.U. after   15 cycles
            NFock= 15  Conv=0.42D-08     -V/T= 2.0024
 ExpMin= 1.61D-01 ExpMax= 5.48D+03 ExpMxC= 8.25D+02 IAcc=3 IRadAn=         5 AccDes= 0.00D+00
 HarFok:  IExCor=  205 AccDes= 0.00D+00 IRadAn=         5 IDoV=-2 UseB2=F ITyADJ=14
 ICtDFT= 12500011 ScaDFX=  1.000000  1.000000  1.000000  1.000000
 Range of M.O.s used for correlation:    15   236
 NBasis=   236 NAE=    52 NBE=    52 NFC=    14 NFV=     0
 NROrb=    222 NOA=    38 NOB=    38 NVA=   184 NVB=   184
 Fully direct method using O(ONN) memory.
 JobTyp=1 Pass  1:  I=  15 to  52 NPSUse=  4 ParTrn=T ParDer=T DoDerP=T.
 Spin components of T(2) and E(2):
     alpha-alpha T2 =       0.9133589705D-01 E2=     -0.2724545085D+00
     alpha-beta  T2 =       0.4918297137D+00 E2=     -0.1488671837D+01
     beta-beta   T2 =       0.9133589705D-01 E2=     -0.2724545085D+00
 ANorm=    0.1294025312D+01
 E2 =    -0.2033580854D+01 EUMP2 =    -0.66333020334062D+03
          IDoAtm=111111111111111111111111111
          Differentiating once with respect to electric field.
                with respect to dipole field.
          Differentiating once with respect to nuclear coordinates.
 Keep R1 ints in memory in canonical form, NReq=397723379.
          There are     1 degrees of freedom in the 1st order CPHF.  IDoFFX=0 NUNeed=     1.
 LinEq1:  Iter=  0 NonCon=     1 RMS=4.56D-03 Max=1.22D-01 NDo=     1
 AX will form     1 AO Fock derivatives at one time.
 LinEq1:  Iter=  1 NonCon=     1 RMS=1.53D-03 Max=2.75D-02 NDo=     1
 LinEq1:  Iter=  2 NonCon=     1 RMS=6.40D-04 Max=1.92D-02 NDo=     1
 LinEq1:  Iter=  3 NonCon=     1 RMS=2.79D-04 Max=7.58D-03 NDo=     1
 LinEq1:  Iter=  4 NonCon=     1 RMS=8.67D-05 Max=1.78D-03 NDo=     1
 LinEq1:  Iter=  5 NonCon=     1 RMS=3.61D-05 Max=1.70D-03 NDo=     1
 LinEq1:  Iter=  6 NonCon=     1 RMS=1.43D-05 Max=5.55D-04 NDo=     1
[...]
    18  H    4.093065   2.234170   0.000000
    19  H    2.994231   4.326476   3.514328   0.000000
    20  H    4.381262   4.476016   2.888790   1.768526   0.000000
    21  H    5.098363   6.528260   5.091630   2.499348   2.521203
    22  H    5.252433   6.106029   4.318515   3.070305   2.461857
    23  H    3.692122   6.235504   5.421606   2.703667   3.842738
    24  H    5.132629   7.196127   5.938709   3.849270   4.317264
    25  H    3.820283   6.064814   5.367417   4.171483   4.985140
    26  H    4.496642   5.758068   4.483431   4.034833   4.181287
    27  H    1.089772   4.225736   5.086752   3.595237   5.160677
                   21         22         23         24         25
    21  H    0.000000
    22  H    1.758863   0.000000
    23  H    2.469588   3.062335   0.000000
    24  H    2.517238   2.460045   1.764509   0.000000
    25  H    4.312015   3.839191   2.444358   2.519440   0.000000
    26  H    3.846289   2.703696   3.060462   2.492538   1.768051
    27  H    5.661484   6.068694   4.092538   5.696770   4.453231
                   26         27
    26  H    0.000000
    27  H    5.380687   0.000000
 Symmetry turned off by external request.
 Stoichiometry    C9H13N3O2
 Framework group  C1[X(C9H13N3O2)]
 Deg. of freedom    75
 Full point group                 C1      NOp   1
 Rotational constants (GHZ):           1.6812061           0.4155148           0.3755976

 **********************************************************************

            Population analysis using the SCF Density.

 **********************************************************************

 Alpha  occ. eigenvalues --  -20.59400 -20.59224 -15.84805 -15.63915 -15.56153
 Alpha  occ. eigenvalues --  -11.34984 -11.29604 -11.29554 -11.28673 -11.27117
 Alpha  occ. eigenvalues --  -11.23662 -11.23167 -11.22663 -11.22064  -1.57255
 Alpha  occ. eigenvalues --   -1.36877  -1.30824  -1.23051  -1.14712  -1.09824
 Alpha  occ. eigenvalues --   -1.02754  -1.01266  -0.94445  -0.89738  -0.85507
 Alpha  occ. eigenvalues --   -0.82483  -0.78550  -0.77500  -0.75139  -0.72043
 Alpha  occ. eigenvalues --   -0.70043  -0.69177  -0.67873  -0.64848  -0.63774
 Alpha  occ. eigenvalues --   -0.62291  -0.60355  -0.57687  -0.56935  -0.55020
 Alpha  occ. eigenvalues --   -0.54501  -0.50846  -0.50052  -0.48829  -0.48110
 Alpha  occ. eigenvalues --   -0.47461  -0.46332  -0.45925  -0.43739  -0.41710
 Alpha  occ. eigenvalues --   -0.39822  -0.33675
 Alpha virt. eigenvalues --    0.07756   0.11541   0.17379   0.21857   0.23939
 Alpha virt. eigenvalues --    0.25159   0.26922   0.28494   0.29107   0.29499
 Alpha virt. eigenvalues --    0.30775   0.31860   0.32036   0.32803   0.34022
 Alpha virt. eigenvalues --    0.34409   0.35843   0.37378   0.38637   0.40224
 Alpha virt. eigenvalues --    0.41201   0.42597   0.45438   0.46252   0.46896
 Alpha virt. eigenvalues --    0.47184   0.48718   0.54055   0.57755   0.59616
 Alpha virt. eigenvalues --    0.63629   0.69714   0.69970   0.72786   0.74309
 Alpha virt. eigenvalues --    0.74697   0.75814   0.76551   0.78604   0.79773
 Alpha virt. eigenvalues --    0.80474   0.84660   0.85655   0.85940   0.88575
 Alpha virt. eigenvalues --    0.89476   0.91069   0.92068   0.92933   0.94314
 Alpha virt. eigenvalues --    0.95756   0.97863   0.99945   1.01420   1.02571
 Alpha virt. eigenvalues --    1.03302   1.05962   1.06740   1.07938   1.09139
 Alpha virt. eigenvalues --    1.09437   1.11316   1.11879   1.12757   1.13964
 Alpha virt. eigenvalues --    1.14755   1.14898   1.15820   1.17057   1.18827
 Alpha virt. eigenvalues --    1.19034   1.20199   1.21829   1.23375   1.23744
 Alpha virt. eigenvalues --    1.25128   1.25565   1.27772   1.28462   1.29963
 Alpha virt. eigenvalues --    1.30661   1.33437   1.35456   1.37114   1.39321
 Alpha virt. eigenvalues --    1.41405   1.46714   1.47649   1.50630   1.52437
 Alpha virt. eigenvalues --    1.55270   1.57854   1.60614   1.64016   1.65355
 Alpha virt. eigenvalues --    1.67480   1.68431   1.72767   1.73961   1.77105
 Alpha virt. eigenvalues --    1.78783   1.84745   1.87224   1.90802   1.92144
 Alpha virt. eigenvalues --    1.93414   1.95907   1.99935   2.02251   2.02424
 Alpha virt. eigenvalues --    2.03131   2.05691   2.08477   2.09181   2.13559
 Alpha virt. eigenvalues --    2.13746   2.15599   2.19177   2.20048   2.22575
 Alpha virt. eigenvalues --    2.24370   2.24836   2.25541   2.28251   2.29669
 Alpha virt. eigenvalues --    2.31428   2.33754   2.35533   2.35932   2.38916
 Alpha virt. eigenvalues --    2.39622   2.41694   2.43008   2.45558   2.46612
 Alpha virt. eigenvalues --    2.49943   2.51776   2.53119   2.55453   2.61118
 Alpha virt. eigenvalues --    2.62136   2.65127   2.68420   2.69797   2.70453
 Alpha virt. eigenvalues --    2.72028   2.72486   2.74772   2.78155   2.87047
 Alpha virt. eigenvalues --    2.89437   2.89655   2.90829   2.94032   2.95113
 Alpha virt. eigenvalues --    2.99935   3.00839   3.04179   3.05016   3.08694
 Alpha virt. eigenvalues --    3.09315   3.14832   3.21653   3.22252   3.25766
 Alpha virt. eigenvalues --    3.33314   3.37344   3.38949   3.50332   3.65609
 Alpha virt. eigenvalues --    4.11529   4.25354   4.29843   4.37699   4.47313
 Alpha virt. eigenvalues --    4.56189   4.61864   4.62659   4.73693   4.79384
 Alpha virt. eigenvalues --    4.99111   5.00911   5.05110   5.11037
          Condensed to atoms (all electrons):
               1          2          3          4          5          6
     1  O    8.336514   0.302069  -0.080640  -0.091494   0.005131   0.000659
     2  N    0.302069   5.742275   0.305094   0.245948  -0.047254   0.001244
     3  O   -0.080640   0.305094   8.313071  -0.082796   0.003260  -0.000019
     4  C   -0.091494   0.245948  -0.082796   5.243716   0.553673  -0.050430
     5  C    0.005131  -0.047254   0.003260   0.553673   4.702984   0.322315
     6  N    0.000659   0.001244  -0.000019  -0.050430   0.322315   7.192482
     7  C    0.000007  -0.000129   0.000001   0.003486  -0.032481   0.172642
     8  H   -0.000000   0.000002  -0.000000  -0.000246   0.003044  -0.050746
     9  C    0.000000  -0.000004  -0.000000   0.000910   0.000758  -0.061597
    10  C   -0.000000   0.000000  -0.000000  -0.000036  -0.000057   0.003732
    11  C   -0.000000  -0.000000  -0.000000  -0.000035   0.000024  -0.000190
    12  C   -0.000000   0.000002   0.000000  -0.000098  -0.000157   0.003900
    13  C   -0.000008  -0.000059  -0.000010  -0.011478  -0.000193  -0.048666
    14  H   -0.000004  -0.000104   0.000000   0.002735   0.006735  -0.007168
    15  N   -0.000011   0.002224   0.000518  -0.062990  -0.007161   0.001990
    16  C    0.002617  -0.028527   0.001911   0.331035  -0.048306  -0.001930
    17  H    0.014480  -0.005765   0.000205  -0.029681   0.380430  -0.033754
    18  H    0.000009  -0.000055   0.000001   0.001745  -0.030665   0.338025
    19  H    0.000000  -0.000004   0.000001  -0.001143   0.001197  -0.000281
    20  H    0.000000  -0.000000   0.000000  -0.000086   0.000164  -0.000449
    21  H    0.000000   0.000000  -0.000000   0.000001   0.000001  -0.000076
    22  H   -0.000000   0.000000   0.000000  -0.000000  -0.000003  -0.000116
    23  H    0.000000  -0.000000   0.000000   0.000041   0.000001  -0.000031
    24  H    0.000000   0.000000   0.000000   0.000000  -0.000000   0.000006
    25  H    0.000000  -0.000000   0.000000   0.000024   0.000000  -0.000092
    26  H    0.000000  -0.000000   0.000000   0.000006  -0.000002  -0.000057
    27  H    0.000056  -0.000910   0.007115  -0.060898   0.002098  -0.000005
               7          8          9         10         11         12
     1  O    0.000007  -0.000000   0.000000  -0.000000  -0.000000  -0.000000
     2  N   -0.000129   0.000002  -0.000004   0.000000  -0.000000   0.000002
     3  O    0.000001  -0.000000  -0.000000  -0.000000  -0.000000   0.000000
     4  C    0.003486  -0.000246   0.000910  -0.000036  -0.000035  -0.000098
     5  C   -0.032481   0.003044   0.000758  -0.000057   0.000024  -0.000157
     6  N    0.172642  -0.050746  -0.061597   0.003732  -0.000190   0.003900
     7  C    5.015544   0.418358   0.350408  -0.054682  -0.008997  -0.061523
     8  H    0.418358   0.538554  -0.055224   0.000774  -0.000315  -0.002226
     9  C    0.350408  -0.055224   5.158494   0.324640  -0.050442  -0.005307
    10  C   -0.054682   0.000774   0.324640   5.119666   0.336977  -0.060979
    11  C   -0.008997  -0.000315  -0.050442   0.336977   5.120296   0.335966
    12  C   -0.061523  -0.002226  -0.005307  -0.060979   0.335966   5.119138
    13  C    0.339488  -0.037796  -0.060432  -0.000307  -0.050733   0.371918
    14  H   -0.046414  -0.000716   0.004405  -0.000401   0.004187  -0.036170
    15  N   -0.058795   0.003912  -0.014558   0.001617  -0.013165  -0.082446
    16  C   -0.001197  -0.000050  -0.000981  -0.000042   0.000054   0.002472
    17  H    0.001781  -0.000046  -0.000080   0.000001   0.000000   0.000000
    18  H   -0.021305  -0.004423   0.001330  -0.000084   0.000004  -0.000115
    19  H   -0.036787   0.004369   0.390264  -0.032180  -0.002218   0.000692
    20  H   -0.042213  -0.002042   0.399335  -0.035309   0.003932  -0.000413
    21  H    0.004590  -0.000078  -0.036318   0.402432  -0.034918   0.004347
    22  H   -0.004841   0.003567  -0.046901   0.397669  -0.045402  -0.001036
    23  H    0.000591   0.000035  -0.001962  -0.039046   0.399192  -0.037951
    24  H   -0.000131  -0.000101   0.004381  -0.038412   0.402296  -0.038651
    25  H    0.005158  -0.000023  -0.000427   0.004196  -0.033420   0.398202
    26  H   -0.003898   0.001663   0.000969  -0.002237  -0.041439   0.396702
    27  H   -0.000373   0.000008  -0.000053   0.000006   0.000012  -0.000031
              13         14         15         16         17         18
     1  O   -0.000008  -0.000004  -0.000011   0.002617   0.014480   0.000009
     2  N   -0.000059  -0.000104   0.002224  -0.028527  -0.005765  -0.000055
     3  O   -0.000010   0.000000   0.000518   0.001911   0.000205   0.000001
     4  C   -0.011478   0.002735  -0.062990   0.331035  -0.029681   0.001745
     5  C   -0.000193   0.006735  -0.007161  -0.048306   0.380430  -0.030665
     6  N   -0.048666  -0.007168   0.001990  -0.001930  -0.033754   0.338025
     7  C    0.339488  -0.046414  -0.058795  -0.001197   0.001781  -0.021305
     8  H   -0.037796  -0.000716   0.003912  -0.000050  -0.000046  -0.004423
     9  C   -0.060432   0.004405  -0.014558  -0.000981  -0.000080   0.001330
    10  C   -0.000307  -0.000401   0.001617  -0.000042   0.000001  -0.000084
    11  C   -0.050733   0.004187  -0.013165   0.000054   0.000000   0.000004
    12  C    0.371918  -0.036170  -0.082446   0.002472   0.000000  -0.000115
    13  C    5.040338   0.402996   0.245796  -0.069656  -0.000015   0.002985
    14  H    0.402996   0.525886  -0.037168  -0.005385   0.000102  -0.000102
    15  N    0.245796  -0.037168   6.965679   0.583098  -0.000077  -0.000130
    16  C   -0.069656  -0.005385   0.583098   4.713833   0.001758  -0.000173
    17  H   -0.000015   0.000102  -0.000077   0.001758   0.385707  -0.003000
    18  H    0.002985  -0.000102  -0.000130  -0.000173  -0.003000   0.311519
    19  H   -0.007593   0.000108   0.007680   0.002770   0.000017  -0.000146
    20  H    0.004344  -0.000067   0.000129  -0.000039   0.000003   0.000792
    21  H   -0.000429   0.000010  -0.000041   0.000004  -0.000000   0.000001
    22  H    0.000041  -0.000055   0.000021  -0.000002   0.000000   0.000001
    23  H   -0.007580   0.000003   0.008637   0.000112   0.000000   0.000000
    24  H    0.004699  -0.000056   0.000133   0.000006   0.000000  -0.000000
    25  H   -0.035591  -0.002810   0.000464  -0.000027  -0.000000   0.000002
    26  H   -0.047354  -0.001051   0.004912  -0.000059   0.000000  -0.000000
    27  H    0.004857  -0.000189  -0.040474   0.402852  -0.000083   0.000001
              19         20         21         22         23         24
     1  O    0.000000   0.000000   0.000000  -0.000000   0.000000   0.000000
     2  N   -0.000004  -0.000000   0.000000   0.000000  -0.000000   0.000000
     3  O    0.000001   0.000000  -0.000000   0.000000   0.000000   0.000000
     4  C   -0.001143  -0.000086   0.000001  -0.000000   0.000041   0.000000
     5  C    0.001197   0.000164   0.000001  -0.000003   0.000001  -0.000000
     6  N   -0.000281  -0.000449  -0.000076  -0.000116  -0.000031   0.000006
     7  C   -0.036787  -0.042213   0.004590  -0.004841   0.000591  -0.000131
     8  H    0.004369  -0.002042  -0.000078   0.003567   0.000035  -0.000101
     9  C    0.390264   0.399335  -0.036318  -0.046901  -0.001962   0.004381
    10  C   -0.032180  -0.035309   0.402432   0.397669  -0.039046  -0.038412
    11  C   -0.002218   0.003932  -0.034918  -0.045402   0.399192   0.402296
    12  C    0.000692  -0.000413   0.004347  -0.001036  -0.037951  -0.038651
    13  C   -0.007593   0.004344  -0.000429   0.000041  -0.007580   0.004699
    14  H    0.000108  -0.000067   0.000010  -0.000055   0.000003  -0.000056
    15  N    0.007680   0.000129  -0.000041   0.000021   0.008637   0.000133
    16  C    0.002770  -0.000039   0.000004  -0.000002   0.000112   0.000006
    17  H    0.000017   0.000003  -0.000000   0.000000   0.000000   0.000000
    18  H   -0.000146   0.000792   0.000001   0.000001   0.000000  -0.000000
    19  H    0.504989  -0.024667  -0.002786   0.003962   0.001521  -0.000066
    20  H   -0.024667   0.541120  -0.002691  -0.002983  -0.000046  -0.000083
    21  H   -0.002786  -0.002691   0.524159  -0.027425  -0.002900  -0.002242
    22  H    0.003962  -0.002983  -0.027425   0.571441   0.004139  -0.003650
    23  H    0.001521  -0.000046  -0.002900   0.004139   0.499240  -0.025463
    24  H   -0.000066  -0.000083  -0.002242  -0.003650  -0.025463   0.538231
    25  H   -0.000028   0.000013  -0.000087  -0.000080  -0.002312  -0.002302
    26  H    0.000020  -0.000030  -0.000081   0.002379   0.004068  -0.003023
    27  H    0.000074   0.000000  -0.000000   0.000000  -0.000035  -0.000000
              25         26         27
     1  O    0.000000   0.000000   0.000056
     2  N   -0.000000  -0.000000  -0.000910
     3  O    0.000000   0.000000   0.007115
     4  C    0.000024   0.000006  -0.060898
     5  C    0.000000  -0.000002   0.002098
     6  N   -0.000092  -0.000057  -0.000005
     7  C    0.005158  -0.003898  -0.000373
     8  H   -0.000023   0.001663   0.000008
     9  C   -0.000427   0.000969  -0.000053
    10  C    0.004196  -0.002237   0.000006
    11  C   -0.033420  -0.041439   0.000012
    12  C    0.398202   0.396702  -0.000031
    13  C   -0.035591  -0.047354   0.004857
    14  H   -0.002810  -0.001051  -0.000189
    15  N    0.000464   0.004912  -0.040474
    16  C   -0.000027  -0.000059   0.402852
    17  H   -0.000000   0.000000  -0.000083
    18  H    0.000002  -0.000000   0.000001
    19  H   -0.000028   0.000020   0.000074
    20  H    0.000013  -0.000030   0.000000
    21  H   -0.000087  -0.000081  -0.000000
    22  H   -0.000080   0.002379   0.000000
    23  H   -0.002312   0.004068  -0.000035
    24  H   -0.002302  -0.003023  -0.000000
    25  H    0.506677  -0.024097  -0.000012
    26  H   -0.024097   0.562168   0.000001
    27  H   -0.000012   0.000001   0.431529
 Mulliken charges:
               1
     1  O   -0.489385
     2  N    0.483953
     3  O   -0.467711
     4  C    0.008093
     5  C    0.184464
     6  N   -0.781387
     7  C    0.061713
     8  H    0.179744
     9  C   -0.301609
    10  C   -0.327939
    11  C   -0.321666
    12  C   -0.306235
    13  C   -0.039561
    14  H    0.190692
    15  N   -0.509794
    16  C    0.113853
    17  H    0.288017
    18  H    0.403784
    19  H    0.190236
    20  H    0.161289
    21  H    0.174528
    22  H    0.149276
    23  H    0.199748
    24  H    0.164428
    25  H    0.186572
    26  H    0.150441
    27  H    0.254454
 Sum of Mulliken charges =  -0.00000
 Mulliken charges with hydrogens summed into heavy atoms:
               1
     1  O   -0.489385
     2  N    0.483953
     3  O   -0.467711
     4  C    0.008093
     5  C    0.472481
     6  N   -0.377603
     7  C    0.241457
     9  C    0.049916
    10  C   -0.004135
    11  C    0.042510
    12  C    0.030779
    13  C    0.151131
    15  N   -0.509794
    16  C    0.368307
 Electronic spatial extent (au):  <R**2>=           3003.6665
 Charge=             -0.0000 electrons
 Dipole moment (field-independent basis, Debye):
    X=              5.2825    Y=              4.5736    Z=              1.6553  Tot=              7.1807
 Quadrupole moment (field-independent basis, Debye-Ang):
   XX=           -105.6044   YY=            -77.7620   ZZ=            -83.1551
   XY=             -1.8536   XZ=              0.1107   YZ=              0.8889
 Traceless Quadrupole moment (field-independent basis, Debye-Ang):
   XX=            -16.7639   YY=             11.0785   ZZ=              5.6854
   XY=             -1.8536   XZ=              0.1107   YZ=              0.8889
 Octapole moment (field-independent basis, Debye-Ang**2):
  XXX=             89.4581  YYY=             30.8334  ZZZ=              2.1968  XYY=            -11.6695
  XXY=             10.5005  XXZ=              3.9119  XZZ=             -2.8122  YZZ=              1.9898
  YYZ=             11.9307  XYZ=              4.8099
 Hexadecapole moment (field-independent basis, Debye-Ang**3):
 XXXX=          -3368.7274 YYYY=           -574.7744 ZZZZ=           -335.5160 XXXY=            -29.7536
 XXXZ=             -0.8824 YYYX=             -3.0207 YYYZ=              3.8967 ZZZX=              0.8187
 ZZZY=            -17.2889 XXYY=           -596.9043 XXZZ=           -554.3679 YYZZ=           -154.9783
 XXYZ=            -30.9360 YYXZ=             -0.3656 ZZXY=              1.2496
 N-N= 9.310712281852D+02 E-N=-3.408841584014D+03  KE= 6.596216416738D+02
 Unable to Open any file for archive entry.
 1\1\GINC-LOTUS\FOpt\RMP2-FC\6-31G(d)\C9H13N3O2\ALEXEY\30-Jun-2023\0\\#
 MP2/6-31G* SCF=Tight Opt=(ModRedun, MaxCycle=20 ) NoSymm\\MolName:\\0,
 1\O,-3.8699614365,0.4916947888,0.5537714008\N,-3.12061112,-0.210850279
 ,-0.1529582075\O,-3.5295478815,-1.0908284965,-0.934378229\C,-1.6831864
 617,-0.0219435172,-0.0447729201\C,-1.3023304591,1.2247762489,0.3784685
 37\N,-0.0589145253,1.7132224473,0.5159821199\C,1.2055562386,0.99353338
 82,0.4339308883\H,1.8495528483,1.4589120403,1.1955153084\C,1.916846583
 4,1.1182568188,-0.911972251\C,3.3132559295,0.4968236868,-0.7922150223\
 C,3.259029127,-0.9473519379,-0.2868174378\C,2.4563887235,-1.0671148771
 ,1.0104620034\C,1.0487591654,-0.493004525,0.812146007\H,0.4650372448,-
 0.5507752895,1.7445116871\N,0.4082366046,-1.3045582358,-0.2181995626\C
 ,-0.8377734191,-1.1025388174,-0.5075235788\H,-2.0980041064,1.927070534
 1,0.612906113\H,-0.0038736714,2.6740959847,0.8321875368\H,1.3257737385
 ,0.6047423173,-1.6778546492\H,1.9865528391,2.1743251388,-1.2009229508\
 H,3.8228883912,0.5403043921,-1.7615589649\H,3.9105289873,1.1052019699,
 -0.0981857258\H,2.7839358833,-1.5814119348,-1.0420011321\H,4.276441409
 8,-1.3271873569,-0.1357506226\H,2.3676258713,-2.1176114766,1.306203241
 2\H,2.9621946756,-0.5367765132,1.8291291114\H,-1.2993911803,-1.8050164
 992,-1.2010927\\Version=ES64L-G16RevC.02\HF=-661.2982845\MP2=-663.3335
 976\RMSD=4.798e-09\RMSF=6.026e-04\Dipole=1.9330476,1.6161129,0.6031734
 \PG=C01 [X(C9H13N3O2)]\\@
 The archive entry for this job was punched.


 THOSE WHO ASPIRE NOT TO GUESS AND DIVINE,
 BUT TO DISCOVER AND KNOW, WHO PROPOSE NOT TO DEVISE 
 MIMIC AND FABULOUS WORLDS OF THEIR OWN, BUT TO 
 EXAMINE AND DISSECT THE NATURE OF THIS VERY WORLD 
 ITSELF, MUST GO TO THE FACTS THEMSELVES FOR EVERYTHING.

                               -- FRANCIS BACON, 1620
 Job cpu time:       0 days  1 hours 30 minutes  9.6 seconds.
 Elapsed time:       0 days  0 hours 26 minutes 44.7 seconds.
 File lengths (MBytes):  RWF=     36 Int=      0 D2E=      0 Chk=      7 Scr=      1
 Normal termination of Gaussian 16 at Fri Jun 30 07:10:21 2023.
