 Entering Gaussian System, Link 0=g16
 Initial command:
 /home/alexey/programs//g16/l1.exe "/home/alexey/tmp/Gau-1098606.inp" -scrdir="/home/alexey/tmp/"
 Entering Link 1 = /home/alexey/programs//g16/l1.exe PID=   1098608.
  
 Copyright (c) 1988-2021, Gaussian, Inc.  All Rights Reserved.
  
 This is part of the Gaussian(R) 16 program.  It is based on
 the Gaussian(R) 09 system (copyright 2009, Gaussian, Inc.),
 the Gaussian(R) 03 system (copyright 2003, Gaussian, Inc.),
 the Gaussian(R) 98 system (copyright 1998, Gaussian, Inc.),
 the Gaussian(R) 94 system (copyright 1995, Gaussian, Inc.),
 the Gaussian 92(TM) system (copyright 1992, Gaussian, Inc.),
 the Gaussian 90(TM) system (copyright 1990, Gaussian, Inc.),
 the Gaussian 88(TM) system (copyright 1988, Gaussian, Inc.),
 the Gaussian 86(TM) system (copyright 1986, Carnegie Mellon
 University), and the Gaussian 82(TM) system (copyright 1983,
 Carnegie Mellon University). Gaussian is a federally registered
 trademark of Gaussian, Inc.
  
 This software contains proprietary and confidential information,
 including trade secrets, belonging to Gaussian, Inc.
  
 This software is provided under written license and may be
 used, copied, transmitted, or stored only in accord with that
 written license.
  
 The following legend is applicable only to US Government
 contracts under FAR:
  
                    RESTRICTED RIGHTS LEGEND
  
 Use, reproduction and disclosure by the US Government is
 subject to restrictions as set forth in subparagraphs (a)
 and (c) of the Commercial Computer Software - Restricted
 Rights clause in FAR 52.227-19.
  
 Gaussian, Inc.
 340 Quinnipiac St., Bldg. 40, Wallingford CT 06492
  
  
 ---------------------------------------------------------------
 Warning -- This program may not be used in any manner that
 competes with the business of Gaussian, Inc. or will provide
 assistance to any competitor of Gaussian, Inc.  The licensee
 of this program is prohibited from giving any competitor of
 Gaussian, Inc. access to this program.  By using this program,
 the user acknowledges that Gaussian, Inc. is engaged in the
 business of creating and licensing software in the field of
 computational chemistry and represents and warrants to the
 licensee that it is not a competitor of Gaussian, Inc. and that
 it will not use this program in any manner prohibited above.
 ---------------------------------------------------------------
  

 Cite this work as:
 Gaussian 16, Revision C.02,
 M. J. Frisch, G. W. Trucks, H. B. Schlegel, G. E. Scuseria, 
 M. A. Robb, J. R. Cheeseman, G. Scalmani, V. Barone, 
 G. A. Petersson, H. Nakatsuji, X. Li, M. Caricato, A. V. Marenich, 
 J. Bloino, B. G. Janesko, R. Gomperts, B. Mennucci, H. P. Hratchian, 
 J. V. Ortiz, A. F. Izmaylov, J. L. Sonnenberg, D. Williams-Young, 
 F. Ding, F. Lipparini, F. Egidi, J. Goings, B. Peng, A. Petrone, 
 T. Henderson, D. Ranasinghe, V. G. Zakrzewski, J. Gao, N. Rega, 
 G. Zheng, W. Liang, M. Hada, M. Ehara, K. Toyota, R. Fukuda, 
 J. Hasegawa, M. Ishida, T. Nakajima, Y. Honda, O. Kitao, H. Nakai, 
 T. Vreven, K. Throssell, J. A. Montgomery, Jr., J. E. Peralta, 
 F. Ogliaro, M. J. Bearpark, J. J. Heyd, E. N. Brothers, K. N. Kudin, 
 V. N. Staroverov, T. A. Keith, R. Kobayashi, J. Normand, 
 K. Raghavachari, A. P. Rendell, J. C. Burant, S. S. Iyengar, 
 J. Tomasi, M. Cossi, J. M. Millam, M. Klene, C. Adamo, R. Cammi, 
 J. W. Ochterski, R. L. Martin, K. Morokuma, O. Farkas, 
 J. B. Foresman, and D. J. Fox, Gaussian, Inc., Wallingford CT, 2019.
 
 ******************************************
 Gaussian 16:  ES64L-G16RevC.02  7-Dec-2021
                30-Jun-2023 
 ******************************************
 %mem=8GB
 %NPROCS=4
 Will use up to    4 processors via shared memory.
 %NoSave
 ---------------------------------------------------------
 #MP2/6-31G* SCF=Tight Opt=(ModRedun, MaxCycle=20 ) NoSymm
 ---------------------------------------------------------
 1/6=20,18=120,19=15,38=1/1,3;
 2/9=110,12=2,15=1,17=6,18=5,40=1/2;
 3/5=1,6=6,7=1,11=9,25=1,30=1,71=1/1,2,3;
 4//1;
 5/5=2,32=2,38=5/2;
 8/6=4,10=2/1;
 9/15=2,16=-3/6;
 10/5=1,31=1/2;
 6/7=2,8=2,9=2,10=2/1;
 7/12=2,30=1/1,2,3,16;
 1/6=20,18=20,19=15/3(2);
 2/9=110,15=1/2;
 99//99;
 2/9=110,15=1/2;
 3/5=1,6=6,7=1,11=9,25=1,30=1,71=1/1,2,3;
 4/5=5,16=3,69=1/1;
 5/5=2,32=2,38=5/2;
 8/6=4,10=2/1;
 9/15=2,16=-3/6;
 10/5=1,31=1/2;
 7/12=2,30=1/1,2,3,16;
 1/6=20,18=20,19=15/3(-8);
 2/9=110,15=1/2;
 6/7=2,8=2,9=2,10=2/1;
 99/9=10/99;
 --------
 MolName:
 --------
 Symbolic Z-matrix:
 Charge =  0 Multiplicity = 1
 8                    0    -4.00804   0.51073   0.52196 
 7                    0    -3.25729  -0.27459  -0.05805 
 8                    0    -3.64687  -1.27563  -0.65674 
 6                    0    -1.75761   0.01172  -0.05339 
 6                    0    -1.37058   1.28577   0.37753 
 7                    0    -0.08232   1.72898   0.53103 
 6                    0     1.19621   0.9601    0.43912 
 1                    0     1.8557    1.38574   1.23949 
 6                    0     1.96942   1.13326  -0.89199 
 6                    0     3.37937   0.5291   -0.74848 
 6                    0     3.31161  -0.93537  -0.28723 
 6                    0     2.45499  -1.08578   0.98849 
 6                    0     1.0204   -0.52656   0.78358 
 1                    0     0.46599  -0.65332   1.74297 
 7                    0     0.36916  -1.3008   -0.2758 
 6                    0    -0.87017  -1.06832  -0.56049 
 1                    0    -2.15895   2.00039   0.66695 
 1                    0     0.15024   2.7221    0.45444 
 1                    0     1.42416   0.63137  -1.71944 
 1                    0     2.05952   2.21097  -1.14514 
 1                    0     3.9203    0.59379  -1.7179 
 1                    0     3.95292   1.11543   0.00379 
 1                    0     2.86817  -1.55171  -1.10164 
 1                    0     4.33763  -1.31975  -0.09817 
 1                    0     2.3927   -2.16177   1.26248 
 1                    0     2.94511  -0.55045   1.82857 
 1                    0    -1.36579  -1.75039  -1.26795 
 
 The following ModRedundant input section has been read:
 D       1       2       4      16 F                                           
 D       7      13      15      16 F                                           
 D       7       9      10      11 F                                           
 D       9      10      11      12 F                                           
 D       6       7      13      15 F                                           
 

 GradGradGradGradGradGradGradGradGradGradGradGradGradGradGradGradGradGrad
 Berny optimization.
 Initialization pass.
                           ----------------------------
                           !    Initial Parameters    !
                           ! (Angstroms and Degrees)  !
 --------------------------                            --------------------------
 ! Name  Definition              Value          Derivative Info.                !
 --------------------------------------------------------------------------------
 ! R1    R(1,2)                  1.2316         estimate D2E/DX2                !
 ! R2    R(2,3)                  1.2297         estimate D2E/DX2                !
 ! R3    R(2,4)                  1.5268         estimate D2E/DX2                !
 ! R4    R(4,5)                  1.3995         estimate D2E/DX2                !
 ! R5    R(4,16)                 1.487          estimate D2E/DX2                !
 ! R6    R(5,6)                  1.371          estimate D2E/DX2                !
 ! R7    R(5,17)                 1.1027         estimate D2E/DX2                !
 ! R8    R(6,7)                  1.4947         estimate D2E/DX2                !
 ! R9    R(6,18)                 1.0229         estimate D2E/DX2                !
 ! R10   R(7,8)                  1.121          estimate D2E/DX2                !
 ! R11   R(7,9)                  1.5491         estimate D2E/DX2                !
 ! R12   R(7,13)                 1.5361         estimate D2E/DX2                !
 ! R13   R(9,10)                 1.5406         estimate D2E/DX2                !
 ! R14   R(9,19)                 1.1108         estimate D2E/DX2                !
 ! R15   R(9,20)                 1.1107         estimate D2E/DX2                !
 ! R16   R(10,11)                1.5369         estimate D2E/DX2                !
 ! R17   R(10,21)                1.112          estimate D2E/DX2                !
 ! R18   R(10,22)                1.1129         estimate D2E/DX2                !
 ! R19   R(11,12)                1.544          estimate D2E/DX2                !
 ! R20   R(11,23)                1.1135         estimate D2E/DX2                !
 ! R21   R(11,24)                1.1118         estimate D2E/DX2                !
 ! R22   R(12,13)                1.5533         estimate D2E/DX2                !
 ! R23   R(12,25)                1.1121         estimate D2E/DX2                !
 ! R24   R(12,26)                1.1102         estimate D2E/DX2                !
 ! R25   R(13,14)                1.1153         estimate D2E/DX2                !
 ! R26   R(13,15)                1.4649         estimate D2E/DX2                !
 ! R27   R(15,16)                1.2927         estimate D2E/DX2                !
 ! R28   R(16,27)                1.1006         estimate D2E/DX2                !
 ! A1    A(1,2,3)              123.7264         estimate D2E/DX2                !
 ! A2    A(1,2,4)              118.5389         estimate D2E/DX2                !
 ! A3    A(3,2,4)              117.7303         estimate D2E/DX2                !
 ! A4    A(2,4,5)              116.3138         estimate D2E/DX2                !
 ! A5    A(2,4,16)             116.6771         estimate D2E/DX2                !
 ! A6    A(5,4,16)             126.9529         estimate D2E/DX2                !
 ! A7    A(4,5,6)              126.0593         estimate D2E/DX2                !
 ! A8    A(4,5,17)             118.2328         estimate D2E/DX2                !
 ! A9    A(6,5,17)             115.6523         estimate D2E/DX2                !
 ! A10   A(5,6,7)              129.0915         estimate D2E/DX2                !
 ! A11   A(5,6,18)             121.2745         estimate D2E/DX2                !
 ! A12   A(7,6,18)             107.4789         estimate D2E/DX2                !
 ! A13   A(6,7,8)              105.3068         estimate D2E/DX2                !
 ! A14   A(6,7,9)              114.9782         estimate D2E/DX2                !
 ! A15   A(6,7,13)             112.7144         estimate D2E/DX2                !
 ! A16   A(8,7,9)              106.1061         estimate D2E/DX2                !
 ! A17   A(8,7,13)             105.9437         estimate D2E/DX2                !
 ! A18   A(9,7,13)             110.9768         estimate D2E/DX2                !
 ! A19   A(7,9,10)             109.4461         estimate D2E/DX2                !
 ! A20   A(7,9,19)             110.1558         estimate D2E/DX2                !
 ! A21   A(7,9,20)             110.1694         estimate D2E/DX2                !
 ! A22   A(10,9,19)            109.9645         estimate D2E/DX2                !
 ! A23   A(10,9,20)            109.1167         estimate D2E/DX2                !
 ! A24   A(19,9,20)            107.9656         estimate D2E/DX2                !
 ! A25   A(9,10,11)            111.1788         estimate D2E/DX2                !
 ! A26   A(9,10,21)            109.9477         estimate D2E/DX2                !
 ! A27   A(9,10,22)            109.1472         estimate D2E/DX2                !
 ! A28   A(11,10,21)           109.7865         estimate D2E/DX2                !
 ! A29   A(11,10,22)           108.7758         estimate D2E/DX2                !
 ! A30   A(21,10,22)           107.934          estimate D2E/DX2                !
 ! A31   A(10,11,12)           111.4238         estimate D2E/DX2                !
 ! A32   A(10,11,23)           108.9959         estimate D2E/DX2                !
 ! A33   A(10,11,24)           109.8629         estimate D2E/DX2                !
 ! A34   A(12,11,23)           109.2361         estimate D2E/DX2                !
 ! A35   A(12,11,24)           109.7434         estimate D2E/DX2                !
 ! A36   A(23,11,24)           107.4889         estimate D2E/DX2                !
 ! A37   A(11,12,13)           111.6132         estimate D2E/DX2                !
 ! A38   A(11,12,25)           109.2022         estimate D2E/DX2                !
 ! A39   A(11,12,26)           109.4701         estimate D2E/DX2                !
 ! A40   A(13,12,25)           109.2146         estimate D2E/DX2                !
 ! A41   A(13,12,26)           109.509          estimate D2E/DX2                !
 ! A42   A(25,12,26)           107.7488         estimate D2E/DX2                !
 ! A43   A(7,13,12)            105.8013         estimate D2E/DX2                !
 ! A44   A(7,13,14)            111.0868         estimate D2E/DX2                !
 ! A45   A(7,13,15)            113.5925         estimate D2E/DX2                !
 ! A46   A(12,13,14)           107.7407         estimate D2E/DX2                !
 ! A47   A(12,13,15)           108.4038         estimate D2E/DX2                !
 ! A48   A(14,13,15)           109.9398         estimate D2E/DX2                !
 ! A49   A(13,15,16)           119.3693         estimate D2E/DX2                !
 ! A50   A(4,16,15)            128.8794         estimate D2E/DX2                !
 ! A51   A(4,16,27)            113.6138         estimate D2E/DX2                !
 ! A52   A(15,16,27)           117.5056         estimate D2E/DX2                !
 ! D1    D(1,2,4,5)            -12.5327         estimate D2E/DX2                !
 ! D2    D(1,2,4,16)           170.0001         Frozen                          !
 ! D3    D(3,2,4,5)            166.7403         estimate D2E/DX2                !
 ! D4    D(3,2,4,16)           -10.7269         estimate D2E/DX2                !
 ! D5    D(2,4,5,6)            176.1659         estimate D2E/DX2                !
 ! D6    D(2,4,5,17)            -0.9915         estimate D2E/DX2                !
 ! D7    D(16,4,5,6)            -6.6665         estimate D2E/DX2                !
 ! D8    D(16,4,5,17)          176.1761         estimate D2E/DX2                !
 ! D9    D(2,4,16,15)         -154.3121         estimate D2E/DX2                !
 ! D10   D(2,4,16,27)           25.2778         estimate D2E/DX2                !
 ! D11   D(5,4,16,15)           28.5293         estimate D2E/DX2                !
 ! D12   D(5,4,16,27)         -151.8809         estimate D2E/DX2                !
 ! D13   D(4,5,6,7)             -7.6712         estimate D2E/DX2                !
 ! D14   D(4,5,6,18)           153.4579         estimate D2E/DX2                !
 ! D15   D(17,5,6,7)           169.5505         estimate D2E/DX2                !
 ! D16   D(17,5,6,18)          -29.3203         estimate D2E/DX2                !
 ! D17   D(5,6,7,8)           -141.8891         estimate D2E/DX2                !
 ! D18   D(5,6,7,9)            101.7006         estimate D2E/DX2                !
 ! D19   D(5,6,7,13)           -26.8452         estimate D2E/DX2                !
 ! D20   D(18,6,7,8)            54.9581         estimate D2E/DX2                !
 ! D21   D(18,6,7,9)           -61.4523         estimate D2E/DX2                !
 ! D22   D(18,6,7,13)          170.0019         estimate D2E/DX2                !
 ! D23   D(6,7,9,10)           168.7035         estimate D2E/DX2                !
 ! D24   D(6,7,9,19)           -70.2786         estimate D2E/DX2                !
 ! D25   D(6,7,9,20)            48.7247         estimate D2E/DX2                !
 ! D26   D(8,7,9,10)            52.7503         estimate D2E/DX2                !
 ! D27   D(8,7,9,19)           173.7682         estimate D2E/DX2                !
 ! D28   D(8,7,9,20)           -67.2286         estimate D2E/DX2                !
 ! D29   D(13,7,9,10)          -61.8897         estimate D2E/DX2                !
 ! D30   D(13,7,9,19)           59.1282         estimate D2E/DX2                !
 ! D31   D(13,7,9,20)          178.1314         estimate D2E/DX2                !
 ! D32   D(6,7,13,12)         -166.1853         estimate D2E/DX2                !
 ! D33   D(6,7,13,14)          -49.536          estimate D2E/DX2                !
 ! D34   D(6,7,13,15)           75.0227         Frozen                          !
 ! D35   D(8,7,13,12)          -51.526          estimate D2E/DX2                !
 ! D36   D(8,7,13,14)           65.1233         estimate D2E/DX2                !
 ! D37   D(8,7,13,15)         -170.318          estimate D2E/DX2                !
 ! D38   D(9,7,13,12)           63.2154         estimate D2E/DX2                !
 ! D39   D(9,7,13,14)          179.8647         estimate D2E/DX2                !
 ! D40   D(9,7,13,15)          -55.5765         estimate D2E/DX2                !
 ! D41   D(7,9,10,11)           54.8121         Frozen                          !
 ! D42   D(7,9,10,21)          176.6033         estimate D2E/DX2                !
 ! D43   D(7,9,10,22)          -65.1824         estimate D2E/DX2                !
 ! D44   D(19,9,10,11)         -66.3217         estimate D2E/DX2                !
 ! D45   D(19,9,10,21)          55.4695         estimate D2E/DX2                !
 ! D46   D(19,9,10,22)         173.6838         estimate D2E/DX2                !
 ! D47   D(20,9,10,11)         175.434          estimate D2E/DX2                !
 ! D48   D(20,9,10,21)         -62.7747         estimate D2E/DX2                !
 ! D49   D(20,9,10,22)          55.4395         estimate D2E/DX2                !
 ! D50   D(9,10,11,12)         -52.822          Frozen                          !
 ! D51   D(9,10,11,23)          67.8001         estimate D2E/DX2                !
 ! D52   D(9,10,11,24)        -174.6645         estimate D2E/DX2                !
 ! D53   D(21,10,11,12)       -174.7071         estimate D2E/DX2                !
 ! D54   D(21,10,11,23)        -54.085          estimate D2E/DX2                !
 ! D55   D(21,10,11,24)         63.4504         estimate D2E/DX2                !
 ! D56   D(22,10,11,12)         67.3926         estimate D2E/DX2                !
 ! D57   D(22,10,11,23)       -171.9853         estimate D2E/DX2                !
 ! D58   D(22,10,11,24)        -54.4499         estimate D2E/DX2                !
 ! D59   D(10,11,12,13)         56.5959         estimate D2E/DX2                !
 ! D60   D(10,11,12,25)        177.449          estimate D2E/DX2                !
 ! D61   D(10,11,12,26)        -64.8077         estimate D2E/DX2                !
 ! D62   D(23,11,12,13)        -63.8852         estimate D2E/DX2                !
 ! D63   D(23,11,12,25)         56.9679         estimate D2E/DX2                !
 ! D64   D(23,11,12,26)        174.7112         estimate D2E/DX2                !
 ! D65   D(24,11,12,13)        178.5075         estimate D2E/DX2                !
 ! D66   D(24,11,12,25)        -60.6394         estimate D2E/DX2                !
 ! D67   D(24,11,12,26)         57.1039         estimate D2E/DX2                !
 ! D68   D(11,12,13,7)         -60.29           estimate D2E/DX2                !
 ! D69   D(11,12,13,14)       -179.1792         estimate D2E/DX2                !
 ! D70   D(11,12,13,15)         61.8864         estimate D2E/DX2                !
 ! D71   D(25,12,13,7)         178.8642         estimate D2E/DX2                !
 ! D72   D(25,12,13,14)         59.9749         estimate D2E/DX2                !
 ! D73   D(25,12,13,15)        -58.9594         estimate D2E/DX2                !
 ! D74   D(26,12,13,7)          61.0911         estimate D2E/DX2                !
 ! D75   D(26,12,13,14)        -57.7981         estimate D2E/DX2                !
 ! D76   D(26,12,13,15)       -176.7325         estimate D2E/DX2                !
 ! D77   D(7,13,15,16)         -67.1601         Frozen                          !
 ! D78   D(12,13,15,16)        175.5516         estimate D2E/DX2                !
 ! D79   D(14,13,15,16)         58.0146         estimate D2E/DX2                !
 ! D80   D(13,15,16,4)           7.2246         estimate D2E/DX2                !
 ! D81   D(13,15,16,27)       -172.3517         estimate D2E/DX2                !
 --------------------------------------------------------------------------------
 Trust Radius=3.00D-01 FncErr=1.00D-07 GrdErr=1.00D-07 EigMax=2.50D+02 EigMin=1.00D-04
 Number of steps in this run=     20 maximum allowed number of steps=    162.
 GradGradGradGradGradGradGradGradGradGradGradGradGradGradGradGradGradGrad

                          Input orientation:                          
 ---------------------------------------------------------------------
 Center     Atomic      Atomic             Coordinates (Angstroms)
 Number     Number       Type             X           Y           Z
 ---------------------------------------------------------------------
      1          8           0       -4.008040    0.510730    0.521960
      2          7           0       -3.257290   -0.274590   -0.058050
      3          8           0       -3.646870   -1.275630   -0.656740
      4          6           0       -1.757610    0.011720   -0.053390
      5          6           0       -1.370580    1.285770    0.377530
      6          7           0       -0.082320    1.728980    0.531030
      7          6           0        1.196210    0.960100    0.439120
      8          1           0        1.855700    1.385740    1.239490
      9          6           0        1.969420    1.133260   -0.891990
     10          6           0        3.379370    0.529100   -0.748480
     11          6           0        3.311610   -0.935370   -0.287230
     12          6           0        2.454990   -1.085780    0.988490
     13          6           0        1.020400   -0.526560    0.783580
     14          1           0        0.465990   -0.653320    1.742970
     15          7           0        0.369160   -1.300800   -0.275800
     16          6           0       -0.870170   -1.068320   -0.560490
     17          1           0       -2.158950    2.000390    0.666950
     18          1           0        0.150240    2.722100    0.454440
     19          1           0        1.424160    0.631370   -1.719440
     20          1           0        2.059520    2.210970   -1.145140
     21          1           0        3.920300    0.593790   -1.717900
     22          1           0        3.952920    1.115430    0.003790
     23          1           0        2.868170   -1.551710   -1.101640
     24          1           0        4.337630   -1.319750   -0.098170
     25          1           0        2.392700   -2.161770    1.262480
     26          1           0        2.945110   -0.550450    1.828570
     27          1           0       -1.365790   -1.750390   -1.267950
 ---------------------------------------------------------------------
                    Distance matrix (angstroms):
                    1          2          3          4          5
     1  O    0.000000
     2  N    1.231570   0.000000
     3  O    2.170451   1.229749   0.000000
     4  C    2.375810   1.526773   2.364446   0.000000
     5  C    2.752770   2.486791   3.579383   1.399531   0.000000
     6  N    4.110413   3.800229   4.810873   2.469236   1.370989
     7  C    5.224272   4.648150   5.445624   3.141185   2.588101
     8  H    5.971929   5.530187   6.399754   4.076209   3.340936
     9  C    6.173883   5.476860   6.115620   3.981439   3.576386
    10  C    7.495878   6.720704   7.254896   5.209549   4.939886
    11  C    7.504883   6.606028   6.976586   5.162233   5.224775
    12  C    6.673624   5.863738   6.322620   4.476161   4.542302
    13  C    5.140975   4.366974   4.941562   2.950865   3.027574
    14  H    4.781508   4.153303   4.802239   2.934891   2.999581
    15  N    4.803951   3.775137   4.034135   2.509049   3.184946
    16  C    3.675775   2.565306   2.786091   1.487006   2.583028
    17  H    2.378916   2.628214   3.833845   2.152852   1.102712
    18  H    4.710203   4.566624   5.624465   3.353199   2.093287
    19  H    5.877689   5.049451   5.520990   3.644633   3.554728
    20  H    6.518077   5.968940   6.705058   4.538623   3.865243
    21  H    8.239080   7.418018   7.866566   5.945424   5.732632
    22  H    8.000690   7.343236   7.994390   5.816494   5.339321
    23  H    7.360163   6.343609   6.536046   4.994095   5.310955
    24  H    8.566529   7.666602   8.004136   6.239132   6.292749
    25  H    6.975679   6.101445   6.398832   4.866276   5.179860
    26  H    7.153994   6.488852   7.082150   5.096409   4.909420
    27  H    3.911256   2.686934   2.408797   2.175709   3.453389
                    6          7          8          9         10
     6  N    0.000000
     7  C    1.494745   0.000000
     8  H    2.091806   1.121021   0.000000
     9  C    2.567003   1.549094   2.149392   0.000000
    10  C    3.880742   2.522368   2.647155   1.540637   0.000000
    11  C    4.391705   2.931776   3.136574   2.538984   1.536885
    12  C    3.817078   2.464135   2.555496   2.948919   2.545463
    13  C    2.523338   1.536138   2.135994   2.542278   3.004391
    14  H    2.728515   2.199175   2.518442   3.520679   4.011636
    15  N    3.167708   2.511333   3.423945   2.977444   3.554339
    16  C    3.104354   3.063272   4.085671   3.608340   4.543752
    17  H    2.098697   3.520115   4.101586   4.497293   5.902637
    18  H    1.022858   2.049130   2.304508   2.765267   4.084550
    19  H    2.922130   2.195315   3.083921   1.110800   2.185422
    20  H    2.762126   2.195418   2.531602   1.110703   2.174403
    21  H    4.729409   3.493935   3.692684   2.186113   1.112010
    22  H    4.115530   2.795190   2.449154   2.176468   1.112948
    23  H    4.704671   3.388005   3.890321   2.839149   2.171593
    24  H    5.406164   3.918535   3.907555   3.500832   2.181608
    25  H    4.668906   3.443194   3.587997   3.959562   3.501180
    26  H    4.005589   2.696476   2.298404   3.344891   2.827578
    27  H    4.121849   4.101791   5.147870   4.424976   5.289846
                   11         12         13         14         15
    11  C    0.000000
    12  C    1.543983   0.000000
    13  C    2.561914   1.553307   0.000000
    14  H    3.506967   2.170802   1.115288   0.000000
    15  N    2.965077   2.448540   1.464871   2.122272   0.000000
    16  C    4.192807   3.668287   2.382075   2.695084   1.292685
    17  H    6.281415   5.560241   4.062923   3.884624   4.263563
    18  H    4.890953   4.482971   3.379246   3.626771   4.094496
    19  H    2.840487   3.368100   2.787281   3.815338   2.632566
    20  H    3.493307   3.946813   3.506252   4.368601   3.993194
    21  H    2.180745   3.506086   3.990239   5.046302   4.275479
    22  H    2.168352   2.838794   3.450200   4.279241   4.331244
    23  H    1.113453   2.180929   2.831826   3.830063   2.643864
    24  H    1.111849   2.186299   3.522875   4.338608   3.972489
    25  H    2.179462   1.112072   2.187799   2.493693   2.683708
    26  H    2.181535   1.110194   2.190225   2.482729   3.409826
    27  H    4.848107   4.486824   3.376453   3.691154   2.048547
                   16         17         18         19         20
    16  C    0.000000
    17  H    3.547470   0.000000
    18  H    4.054455   2.428659   0.000000
    19  H    3.081568   4.517494   3.274107   0.000000
    20  H    4.436062   4.596031   2.542688   1.796841   0.000000
    21  H    5.201039   6.680068   4.843771   2.496423   2.530974
    22  H    5.324413   6.211110   4.152692   3.098139   2.470873
    23  H    3.808109   6.404472   5.298488   2.689364   3.848840
    24  H    5.234323   7.335822   5.846038   3.863120   4.330348
    25  H    3.894249   6.196430   5.434496   4.198994   5.002849
    26  H    4.531242   5.823021   4.517645   4.037123   4.153632
    27  H    1.100617   4.294332   5.026743   3.696004   5.238340
                   21         22         23         24         25
    21  H    0.000000
    22  H    1.799275   0.000000
    23  H    2.467777   3.084201   0.000000
    24  H    2.541520   2.467488   1.794455   0.000000
    25  H    4.336973   3.841696   2.487430   2.518555   0.000000
    26  H    3.851977   2.668456   3.097511   2.498652   1.794984
    27  H    5.800033   6.174052   4.241880   5.838051   4.549567
                   26         27
    26  H    0.000000
    27  H    5.441705   0.000000
 Symmetry turned off by external request.
 Stoichiometry    C9H13N3O2
 Framework group  C1[X(C9H13N3O2)]
 Deg. of freedom    75
 Full point group                 C1      NOp   1
 Rotational constants (GHZ):           1.6759516           0.3981322           0.3569105
 Standard basis: 6-31G(d) (6D, 7F)
   236 basis functions,   444 primitive gaussians,   236 cartesian basis functions
    52 alpha electrons       52 beta electrons
       nuclear repulsion energy       917.4598029520 Hartrees.
 NAtoms=   27 NActive=   27 NUniq=   27 SFac= 1.00D+00 NAtFMM=   60 NAOKFM=F Big=F
 Integral buffers will be    131072 words long.
 Raffenetti 1 integral format.
 Two-electron integral symmetry is turned off.
 One-electron integrals computed using PRISM.
 NBasis=   236 RedAO= T EigKep=  1.32D-03  NBF=   236
 NBsUse=   236 1.00D-06 EigRej= -1.00D+00 NBFU=   236
 ExpMin= 1.61D-01 ExpMax= 5.48D+03 ExpMxC= 8.25D+02 IAcc=3 IRadAn=         5 AccDes= 0.00D+00
 Harris functional with IExCor=  205 and IRadAn=       5 diagonalized for initial guess.
 HarFok:  IExCor=  205 AccDes= 0.00D+00 IRadAn=         5 IDoV= 1 UseB2=F ITyADJ=14
 ICtDFT=  3500011 ScaDFX=  1.000000  1.000000  1.000000  1.000000
 FoFCou: FMM=F IPFlag=           0 FMFlag=      100000 FMFlg1=           0
         NFxFlg=           0 DoJE=T BraDBF=F KetDBF=T FulRan=T
         wScrn=  0.000000 ICntrl=       500 IOpCl=  0 I1Cent=   200000004 NGrid=           0
         NMat0=    1 NMatS0=      1 NMatT0=    0 NMatD0=    1 NMtDS0=    0 NMtDT0=    0
 Symmetry not used in FoFCou.
 Keep R1 ints in memory in canonical form, NReq=397720213.
 Requested convergence on RMS density matrix=1.00D-08 within 128 cycles.
 Requested convergence on MAX density matrix=1.00D-06.
 Requested convergence on             energy=1.00D-06.
 No special actions if energy rises.
 SCF Done:  E(RHF) =  -661.281013873     A.U. after   16 cycles
            NFock= 16  Conv=0.43D-08     -V/T= 2.0037
 ExpMin= 1.61D-01 ExpMax= 5.48D+03 ExpMxC= 8.25D+02 IAcc=3 IRadAn=         5 AccDes= 0.00D+00
 HarFok:  IExCor=  205 AccDes= 0.00D+00 IRadAn=         5 IDoV=-2 UseB2=F ITyADJ=14
 ICtDFT= 12500011 ScaDFX=  1.000000  1.000000  1.000000  1.000000
 Range of M.O.s used for correlation:    15   236
 NBasis=   236 NAE=    52 NBE=    52 NFC=    14 NFV=     0
 NROrb=    222 NOA=    38 NOB=    38 NVA=   184 NVB=   184
 Fully direct method using O(ONN) memory.
 JobTyp=1 Pass  1:  I=  15 to  52 NPSUse=  4 ParTrn=T ParDer=T DoDerP=T.
 Spin components of T(2) and E(2):
     alpha-alpha T2 =       0.9199486511D-01 E2=     -0.2718007741D+00
     alpha-beta  T2 =       0.4997226002D+00 E2=     -0.1493836465D+01
     beta-beta   T2 =       0.9199486511D-01 E2=     -0.2718007741D+00
 ANorm=    0.1297579412D+01
 E2 =    -0.2037438013D+01 EUMP2 =    -0.66331845188532D+03
          IDoAtm=111111111111111111111111111
          Differentiating once with respect to electric field.
                with respect to dipole field.
          Differentiating once with respect to nuclear coordinates.
 Keep R1 ints in memory in canonical form, NReq=397723379.
          There are     1 degrees of freedom in the 1st order CPHF.  IDoFFX=0 NUNeed=     1.
 LinEq1:  Iter=  0 NonCon=     1 RMS=4.61D-03 Max=1.23D-01 NDo=     1
 AX will form     1 AO Fock derivatives at one time.
 LinEq1:  Iter=  1 NonCon=     1 RMS=1.57D-03 Max=3.42D-02 NDo=     1
 LinEq1:  Iter=  2 NonCon=     1 RMS=6.39D-04 Max=1.95D-02 NDo=     1
 LinEq1:  Iter=  3 NonCon=     1 RMS=2.93D-04 Max=8.92D-03 NDo=     1
 LinEq1:  Iter=  4 NonCon=     1 RMS=8.98D-05 Max=2.03D-03 NDo=     1
 LinEq1:  Iter=  5 NonCon=     1 RMS=3.73D-05 Max=1.87D-03 NDo=     1
 LinEq1:  Iter=  6 NonCon=     1 RMS=1.55D-05 Max=6.01D-04 NDo=     1
 LinEq1:  Iter=  7 NonCon=     1 RMS=6.05D-06 Max=1.12D-04 NDo=     1
 LinEq1:  Iter=  8 NonCon=     1 RMS=2.42D-06 Max=6.31D-05 NDo=     1
 LinEq1:  Iter=  9 NonCon=     1 RMS=9.32D-07 Max=2.61D-05 NDo=     1
 LinEq1:  Iter= 10 NonCon=     1 RMS=4.41D-07 Max=1.33D-05 NDo=     1
 LinEq1:  Iter= 11 NonCon=     1 RMS=1.53D-07 Max=5.81D-06 NDo=     1
 LinEq1:  Iter= 12 NonCon=     1 RMS=5.36D-08 Max=8.25D-07 NDo=     1
 LinEq1:  Iter= 13 NonCon=     1 RMS=1.70D-08 Max=3.26D-07 NDo=     1
 LinEq1:  Iter= 14 NonCon=     1 RMS=5.40D-09 Max=1.54D-07 NDo=     1
 LinEq1:  Iter= 15 NonCon=     1 RMS=2.00D-09 Max=4.41D-08 NDo=     1
 LinEq1:  Iter= 16 NonCon=     1 RMS=7.50D-10 Max=1.24D-08 NDo=     1
 LinEq1:  Iter= 17 NonCon=     1 RMS=2.53D-10 Max=3.86D-09 NDo=     1
 LinEq1:  Iter= 18 NonCon=     1 RMS=8.79D-11 Max=1.11D-09 NDo=     1
 LinEq1:  Iter= 19 NonCon=     0 RMS=2.84D-11 Max=3.00D-10 NDo=     1
 Linear equations converged to 1.000D-10 1.000D-09 after    19 iterations.
 End of Minotr F.D. properties file   721 does not exist.
 End of Minotr F.D. properties file   722 does not exist.
 End of Minotr F.D. properties file   788 does not exist.

 **********************************************************************

            Population analysis using the SCF Density.

 **********************************************************************

 Alpha  occ. eigenvalues --  -20.59771 -20.59495 -15.85316 -15.63357 -15.56828
 Alpha  occ. eigenvalues --  -11.35876 -11.30400 -11.30096 -11.30080 -11.27676
 Alpha  occ. eigenvalues --  -11.24626 -11.23877 -11.23397 -11.22850  -1.58515
 Alpha  occ. eigenvalues --   -1.38025  -1.28583  -1.22719  -1.13278  -1.08387
 Alpha  occ. eigenvalues --   -1.01807  -1.00670  -0.93585  -0.88964  -0.84930
 Alpha  occ. eigenvalues --   -0.81536  -0.78027  -0.76967  -0.74296  -0.71186
 Alpha  occ. eigenvalues --   -0.70278  -0.69829  -0.67453  -0.64310  -0.63259
 Alpha  occ. eigenvalues --   -0.61645  -0.60369  -0.57420  -0.56456  -0.54866
 Alpha  occ. eigenvalues --   -0.53582  -0.50776  -0.49262  -0.48391  -0.47960
 Alpha  occ. eigenvalues --   -0.47675  -0.46229  -0.45645  -0.44060  -0.42074
 Alpha  occ. eigenvalues --   -0.39941  -0.33745
 Alpha virt. eigenvalues --    0.07475   0.11818   0.18122   0.21426   0.23220
 Alpha virt. eigenvalues --    0.24131   0.26166   0.27681   0.28568   0.28870
 Alpha virt. eigenvalues --    0.30147   0.31267   0.31840   0.32285   0.33365
 Alpha virt. eigenvalues --    0.33792   0.34207   0.35453   0.37554   0.38584
 Alpha virt. eigenvalues --    0.40576   0.41951   0.44746   0.45354   0.45717
 Alpha virt. eigenvalues --    0.45886   0.49716   0.53319   0.57590   0.59151
 Alpha virt. eigenvalues --    0.63211   0.69166   0.69257   0.72204   0.73928
 Alpha virt. eigenvalues --    0.74873   0.75743   0.75863   0.77799   0.79329
 Alpha virt. eigenvalues --    0.80016   0.83738   0.85021   0.85453   0.87954
 Alpha virt. eigenvalues --    0.89074   0.90139   0.90791   0.91962   0.93829
 Alpha virt. eigenvalues --    0.95320   0.97146   0.99039   1.00311   1.01852
 Alpha virt. eigenvalues --    1.02801   1.05113   1.06434   1.07021   1.08709
 Alpha virt. eigenvalues --    1.09116   1.10471   1.11431   1.12028   1.13265
 Alpha virt. eigenvalues --    1.13766   1.14131   1.15530   1.16399   1.17356
 Alpha virt. eigenvalues --    1.18181   1.20007   1.20989   1.21895   1.22310
 Alpha virt. eigenvalues --    1.23341   1.25313   1.26073   1.27230   1.28052
 Alpha virt. eigenvalues --    1.29319   1.31380   1.33275   1.36138   1.39179
 Alpha virt. eigenvalues --    1.42971   1.45941   1.47483   1.49863   1.50367
 Alpha virt. eigenvalues --    1.54618   1.56960   1.60041   1.60912   1.66698
 Alpha virt. eigenvalues --    1.68135   1.69808   1.72767   1.72908   1.76635
 Alpha virt. eigenvalues --    1.77642   1.80690   1.84462   1.89180   1.92838
 Alpha virt. eigenvalues --    1.94000   1.95505   1.98747   1.99489   2.00362
 Alpha virt. eigenvalues --    2.01139   2.03623   2.06105   2.08672   2.11837
 Alpha virt. eigenvalues --    2.13133   2.13679   2.17799   2.19075   2.19581
 Alpha virt. eigenvalues --    2.20951   2.22823   2.23877   2.25388   2.26510
 Alpha virt. eigenvalues --    2.29111   2.32208   2.33784   2.35553   2.36038
 Alpha virt. eigenvalues --    2.38320   2.40197   2.41704   2.43680   2.45546
 Alpha virt. eigenvalues --    2.48595   2.49756   2.50283   2.56269   2.57722
 Alpha virt. eigenvalues --    2.60729   2.62558   2.66097   2.68462   2.68642
 Alpha virt. eigenvalues --    2.69674   2.70244   2.74459   2.76058   2.82410
 Alpha virt. eigenvalues --    2.85644   2.86630   2.89096   2.92182   2.93830
 Alpha virt. eigenvalues --    2.98101   2.98473   3.02649   3.03204   3.05767
 Alpha virt. eigenvalues --    3.07019   3.12613   3.19378   3.22012   3.26422
 Alpha virt. eigenvalues --    3.31393   3.33790   3.37776   3.43131   3.59775
 Alpha virt. eigenvalues --    4.10028   4.22830   4.31677   4.35178   4.44492
 Alpha virt. eigenvalues --    4.52870   4.59631   4.60345   4.70911   4.77922
 Alpha virt. eigenvalues --    4.96176   4.99237   5.02791   5.09915
          Condensed to atoms (all electrons):
               1          2          3          4          5          6
     1  O    8.325147   0.312468  -0.089391  -0.087976   0.007916   0.000433
     2  N    0.312468   5.679658   0.310934   0.264180  -0.045082   0.000906
     3  O   -0.089391   0.310934   8.303895  -0.078756   0.003220  -0.000013
     4  C   -0.087976   0.264180  -0.078756   5.248926   0.566117  -0.048186
     5  C    0.007916  -0.045082   0.003220   0.566117   4.669667   0.308991
     6  N    0.000433   0.000906  -0.000013  -0.048186   0.308991   7.187729
     7  C    0.000004  -0.000092   0.000002   0.004058  -0.030194   0.199296
     8  H   -0.000000   0.000002  -0.000000  -0.000195   0.002380  -0.050055
     9  C    0.000000  -0.000003  -0.000000   0.000506   0.001597  -0.056139
    10  C   -0.000000   0.000000  -0.000000  -0.000019  -0.000061   0.003327
    11  C   -0.000000  -0.000000  -0.000000  -0.000015   0.000014  -0.000153
    12  C   -0.000000   0.000002  -0.000000  -0.000093  -0.000119   0.003587
    13  C   -0.000005  -0.000035  -0.000012  -0.010681   0.000660  -0.044510
    14  H   -0.000001  -0.000060   0.000000   0.003045   0.004990  -0.005629
    15  N   -0.000007   0.001483   0.000325  -0.061238  -0.004161   0.001999
    16  C    0.002185  -0.027546   0.002810   0.318661  -0.041544  -0.001536
    17  H    0.011786  -0.004112   0.000141  -0.028796   0.378369  -0.033978
    18  H    0.000005  -0.000035   0.000000   0.000860  -0.023920   0.328126
    19  H    0.000000  -0.000000   0.000000  -0.000749   0.000695   0.000640
    20  H    0.000000  -0.000000   0.000000  -0.000027   0.000038  -0.001717
    21  H    0.000000  -0.000000  -0.000000   0.000000   0.000001  -0.000059
    22  H   -0.000000   0.000000  -0.000000  -0.000000  -0.000002  -0.000098
    23  H    0.000000  -0.000000   0.000000   0.000025  -0.000000  -0.000024
    24  H    0.000000   0.000000   0.000000   0.000000  -0.000000   0.000004
    25  H    0.000000  -0.000000   0.000000   0.000019  -0.000000  -0.000071
    26  H    0.000000  -0.000000   0.000000   0.000006  -0.000000  -0.000066
    27  H    0.000047  -0.000497   0.006454  -0.063139   0.001939   0.000031
               7          8          9         10         11         12
     1  O    0.000004  -0.000000   0.000000  -0.000000  -0.000000  -0.000000
     2  N   -0.000092   0.000002  -0.000003   0.000000  -0.000000   0.000002
     3  O    0.000002  -0.000000  -0.000000  -0.000000  -0.000000  -0.000000
     4  C    0.004058  -0.000195   0.000506  -0.000019  -0.000015  -0.000093
     5  C   -0.030194   0.002380   0.001597  -0.000061   0.000014  -0.000119
     6  N    0.199296  -0.050055  -0.056139   0.003327  -0.000153   0.003587
     7  C    5.003435   0.416666   0.340737  -0.049299  -0.007713  -0.064231
     8  H    0.416666   0.547599  -0.060640   0.001479  -0.000335  -0.002808
     9  C    0.340737  -0.060640   5.181454   0.317892  -0.053035  -0.006246
    10  C   -0.049299   0.001479   0.317892   5.126691   0.332767  -0.060127
    11  C   -0.007713  -0.000335  -0.053035   0.332767   5.123943   0.330644
    12  C   -0.064231  -0.002808  -0.006246  -0.060127   0.330644   5.137014
    13  C    0.332535  -0.040413  -0.050413  -0.001725  -0.047860   0.368179
    14  H   -0.040109  -0.000941   0.003858  -0.000391   0.003957  -0.040694
    15  N   -0.058650   0.004060  -0.012880   0.001461  -0.007727  -0.074186
    16  C   -0.002164   0.000009  -0.000835  -0.000026   0.000007   0.002452
    17  H    0.001438  -0.000015  -0.000069   0.000001   0.000000   0.000001
    18  H   -0.028354  -0.002653   0.000822  -0.000120   0.000011  -0.000135
    19  H   -0.034982   0.004098   0.385956  -0.032541  -0.002266   0.000635
    20  H   -0.041675  -0.001854   0.397224  -0.037369   0.004140  -0.000361
    21  H    0.004042  -0.000080  -0.035828   0.400150  -0.035840   0.004210
    22  H   -0.004214   0.003514  -0.045697   0.395973  -0.045622  -0.001230
    23  H    0.000432   0.000033  -0.002005  -0.040091   0.396692  -0.036632
    24  H   -0.000141  -0.000098   0.004396  -0.038486   0.400283  -0.037869
    25  H    0.004986  -0.000005  -0.000369   0.004099  -0.033938   0.395403
    26  H   -0.004443   0.001601   0.001040  -0.002402  -0.042323   0.394710
    27  H   -0.000393   0.000009  -0.000059   0.000005   0.000005  -0.000017
              13         14         15         16         17         18
     1  O   -0.000005  -0.000001  -0.000007   0.002185   0.011786   0.000005
     2  N   -0.000035  -0.000060   0.001483  -0.027546  -0.004112  -0.000035
     3  O   -0.000012   0.000000   0.000325   0.002810   0.000141   0.000000
     4  C   -0.010681   0.003045  -0.061238   0.318661  -0.028796   0.000860
     5  C    0.000660   0.004990  -0.004161  -0.041544   0.378369  -0.023920
     6  N   -0.044510  -0.005629   0.001999  -0.001536  -0.033978   0.328126
     7  C    0.332535  -0.040109  -0.058650  -0.002164   0.001438  -0.028354
     8  H   -0.040413  -0.000941   0.004060   0.000009  -0.000015  -0.002653
     9  C   -0.050413   0.003858  -0.012880  -0.000835  -0.000069   0.000822
    10  C   -0.001725  -0.000391   0.001461  -0.000026   0.000001  -0.000120
    11  C   -0.047860   0.003957  -0.007727   0.000007   0.000000   0.000011
    12  C    0.368179  -0.040694  -0.074186   0.002452   0.000001  -0.000135
    13  C    5.024648   0.402102   0.239568  -0.068922  -0.000042   0.003663
    14  H    0.402102   0.519042  -0.035617  -0.005094   0.000067   0.000007
    15  N    0.239568  -0.035617   6.937176   0.586916  -0.000062  -0.000115
    16  C   -0.068922  -0.005094   0.586916   4.708742   0.001578  -0.000230
    17  H   -0.000042   0.000067  -0.000062   0.001578   0.388143  -0.001805
    18  H    0.003663   0.000007  -0.000115  -0.000230  -0.001805   0.324425
    19  H   -0.006273   0.000065   0.006929   0.002497   0.000012  -0.000125
    20  H    0.003860  -0.000049   0.000079  -0.000032  -0.000001   0.002862
    21  H   -0.000376   0.000009  -0.000029   0.000002  -0.000000  -0.000000
    22  H    0.000318  -0.000044   0.000003  -0.000001   0.000000   0.000002
    23  H   -0.005866   0.000008   0.006777   0.000062   0.000000   0.000000
    24  H    0.004141  -0.000058   0.000044   0.000005   0.000000  -0.000000
    25  H   -0.034470  -0.002656   0.000770  -0.000065  -0.000000   0.000002
    26  H   -0.044819  -0.000917   0.004190  -0.000054   0.000000  -0.000001
    27  H    0.004781  -0.000179  -0.040679   0.401827  -0.000061   0.000002
              19         20         21         22         23         24
     1  O    0.000000   0.000000   0.000000  -0.000000   0.000000   0.000000
     2  N   -0.000000  -0.000000  -0.000000   0.000000  -0.000000   0.000000
     3  O    0.000000   0.000000  -0.000000  -0.000000   0.000000   0.000000
     4  C   -0.000749  -0.000027   0.000000  -0.000000   0.000025   0.000000
     5  C    0.000695   0.000038   0.000001  -0.000002  -0.000000  -0.000000
     6  N    0.000640  -0.001717  -0.000059  -0.000098  -0.000024   0.000004
     7  C   -0.034982  -0.041675   0.004042  -0.004214   0.000432  -0.000141
     8  H    0.004098  -0.001854  -0.000080   0.003514   0.000033  -0.000098
     9  C    0.385956   0.397224  -0.035828  -0.045697  -0.002005   0.004396
    10  C   -0.032541  -0.037369   0.400150   0.395973  -0.040091  -0.038486
    11  C   -0.002266   0.004140  -0.035840  -0.045622   0.396692   0.400283
    12  C    0.000635  -0.000361   0.004210  -0.001230  -0.036632  -0.037869
    13  C   -0.006273   0.003860  -0.000376   0.000318  -0.005866   0.004141
    14  H    0.000065  -0.000049   0.000009  -0.000044   0.000008  -0.000058
    15  N    0.006929   0.000079  -0.000029   0.000003   0.006777   0.000044
    16  C    0.002497  -0.000032   0.000002  -0.000001   0.000062   0.000005
    17  H    0.000012  -0.000001  -0.000000   0.000000   0.000000   0.000000
    18  H   -0.000125   0.002862  -0.000000   0.000002   0.000000  -0.000000
    19  H    0.506565  -0.024026  -0.002593   0.003756   0.001641  -0.000069
    20  H   -0.024026   0.550340  -0.002615  -0.002968  -0.000050  -0.000090
    21  H   -0.002593  -0.002615   0.526056  -0.024698  -0.002814  -0.002059
    22  H    0.003756  -0.002968  -0.024698   0.568840   0.004061  -0.003596
    23  H    0.001641  -0.000050  -0.002814   0.004061   0.509618  -0.024990
    24  H   -0.000069  -0.000090  -0.002059  -0.003596  -0.024990   0.541090
    25  H   -0.000027   0.000011  -0.000086  -0.000082  -0.002093  -0.002381
    26  H    0.000023  -0.000035  -0.000074   0.002466   0.003821  -0.002768
    27  H    0.000072  -0.000000  -0.000000   0.000000  -0.000022  -0.000000
              25         26         27
     1  O    0.000000   0.000000   0.000047
     2  N   -0.000000  -0.000000  -0.000497
     3  O    0.000000   0.000000   0.006454
     4  C    0.000019   0.000006  -0.063139
     5  C   -0.000000  -0.000000   0.001939
     6  N   -0.000071  -0.000066   0.000031
     7  C    0.004986  -0.004443  -0.000393
     8  H   -0.000005   0.001601   0.000009
     9  C   -0.000369   0.001040  -0.000059
    10  C    0.004099  -0.002402   0.000005
    11  C   -0.033938  -0.042323   0.000005
    12  C    0.395403   0.394710  -0.000017
    13  C   -0.034470  -0.044819   0.004781
    14  H   -0.002656  -0.000917  -0.000179
    15  N    0.000770   0.004190  -0.040679
    16  C   -0.000065  -0.000054   0.401827
    17  H   -0.000000   0.000000  -0.000061
    18  H    0.000002  -0.000001   0.000002
    19  H   -0.000027   0.000023   0.000072
    20  H    0.000011  -0.000035  -0.000000
    21  H   -0.000086  -0.000074  -0.000000
    22  H   -0.000082   0.002466   0.000000
    23  H   -0.002093   0.003821  -0.000022
    24  H   -0.002381  -0.002768  -0.000000
    25  H    0.510708  -0.023112  -0.000010
    26  H   -0.023112   0.560927   0.000001
    27  H   -0.000010   0.000001   0.443374
 Mulliken charges:
               1
     1  O   -0.482612
     2  N    0.507829
     3  O   -0.459610
     4  C   -0.026532
     5  C    0.198489
     6  N   -0.792836
     7  C    0.059025
     8  H    0.178644
     9  C   -0.311264
    10  C   -0.321190
    11  C   -0.315635
    12  C   -0.312088
    13  C   -0.028033
    14  H    0.195291
    15  N   -0.496429
    16  C    0.120295
    17  H    0.287406
    18  H    0.396700
    19  H    0.190069
    20  H    0.154314
    21  H    0.172681
    22  H    0.149320
    23  H    0.191416
    24  H    0.162642
    25  H    0.183367
    26  H    0.152231
    27  H    0.246510
 Sum of Mulliken charges =  -0.00000
 Mulliken charges with hydrogens summed into heavy atoms:
               1
     1  O   -0.482612
     2  N    0.507829
     3  O   -0.459610
     4  C   -0.026532
     5  C    0.485895
     6  N   -0.396136
     7  C    0.237668
     9  C    0.033118
    10  C    0.000812
    11  C    0.038423
    12  C    0.023510
    13  C    0.167258
    15  N   -0.496429
    16  C    0.366804
 Electronic spatial extent (au):  <R**2>=           3125.3253
 Charge=             -0.0000 electrons
 Dipole moment (field-independent basis, Debye):
    X=              5.3414    Y=              4.4457    Z=              0.8661  Tot=              7.0032
 Quadrupole moment (field-independent basis, Debye-Ang):
   XX=           -105.3507   YY=            -79.0934   ZZ=            -83.4622
   XY=             -2.2001   XZ=              1.0642   YZ=             -0.9469
 Traceless Quadrupole moment (field-independent basis, Debye-Ang):
   XX=            -16.0486   YY=             10.2087   ZZ=              5.8399
   XY=             -2.2001   XZ=              1.0642   YZ=             -0.9469
 Octapole moment (field-independent basis, Debye-Ang**2):
  XXX=            100.5657  YYY=             34.3032  ZZZ=             -3.6057  XYY=             -5.4288
  XXY=             13.5046  XXZ=             -0.6292  XZZ=             -3.9278  YZZ=             -1.5376
  YYZ=              5.8752  XYZ=              3.4555
 Hexadecapole moment (field-independent basis, Debye-Ang**3):
 XXXX=          -3554.4212 YYYY=           -600.9565 ZZZZ=           -317.3510 XXXY=            -54.4592
 XXXZ=             32.9722 YYYX=            -19.6237 YYYZ=             -9.9401 ZZZX=             21.9970
 ZZZY=            -17.6813 XXYY=           -638.3773 XXZZ=           -563.7148 YYZZ=           -164.3436
 XXYZ=            -26.1678 YYXZ=              5.5385 ZZXY=              0.0103
 N-N= 9.174598029520D+02 E-N=-3.380931398140D+03  KE= 6.588567197798D+02
 Calling FoFJK, ICntrl=  10002127 FMM=F ISym2X=0 I1Cent= 0 IOpClX= 0 NMat=1 NMatS=1 NMatT=0.
 -------------------------------------------------------------------
 Center     Atomic                   Forces (Hartrees/Bohr)
 Number     Number              X              Y              Z
 -------------------------------------------------------------------
      1        8          -0.004687890    0.013850951    0.008944977
      2        7           0.039634920    0.013188666    0.000184422
      3        8           0.000859445   -0.016603211   -0.009717724
      4        6          -0.002969738    0.006618278    0.009885023
      5        6           0.003433699   -0.016063383   -0.005569600
      6        7           0.014188229   -0.009516769   -0.007556895
      7        6          -0.004550382    0.004925676    0.003689328
      8        1          -0.010010429   -0.000952945   -0.007835463
      9        6          -0.004019216    0.000375183   -0.002149871
     10        6           0.002830070   -0.000962796    0.000938418
     11        6          -0.001058482   -0.004382752   -0.002824396
     12        6           0.000852682   -0.008379853   -0.003621317
     13        6           0.009018646   -0.002279637    0.004351879
     14        1           0.000920519    0.005345606   -0.009404982
     15        7           0.000510221    0.000903365    0.002337830
     16        6          -0.020508940    0.007679714    0.002173843
     17        1           0.007226759   -0.005468148   -0.006030702
     18        1          -0.017506348   -0.002266523    0.005594206
     19        1           0.003080985    0.005153334    0.008206709
     20        1          -0.003259681   -0.007543011    0.001915379
     21        1          -0.004412619    0.001530348    0.009773651
     22        1          -0.003954285   -0.003286242   -0.007750172
     23        1           0.003940336    0.005255996    0.009828933
     24        1          -0.009366858    0.002814674   -0.001934228
     25        1          -0.000763129    0.010764372   -0.001444540
     26        1          -0.004747594   -0.004395095   -0.004808177
     27        1           0.005319077    0.003694203    0.002823469
 -------------------------------------------------------------------
 Cartesian Forces:  Max     0.039634920 RMS     0.008315210

 GradGradGradGradGradGradGradGradGradGradGradGradGradGradGradGradGradGrad
 Berny optimization.
 FormGI is forming the generalized inverse of G from B-inverse, IUseBI=4.
 Internal  Forces:  Max     0.037126390 RMS     0.006844413
 Search for a local minimum.
 Step number   1 out of a maximum of   20
 All quantities printed in internal units (Hartrees-Bohrs-Radians)
 Mixed Optimization -- RFO/linear search
 Second derivative matrix not updated -- first step.
 ITU=  0
     Eigenvalues ---    0.00231   0.00770   0.01043   0.01145   0.01196
     Eigenvalues ---    0.01484   0.01530   0.01599   0.01971   0.02016
     Eigenvalues ---    0.02088   0.02688   0.03662   0.04506   0.04694
     Eigenvalues ---    0.04838   0.05081   0.05138   0.05304   0.05892
     Eigenvalues ---    0.06265   0.07216   0.07701   0.07725   0.07872
     Eigenvalues ---    0.07993   0.08050   0.08057   0.10459   0.11739
     Eigenvalues ---    0.12269   0.13494   0.15265   0.15745   0.15991
     Eigenvalues ---    0.16000   0.20083   0.21944   0.23133   0.24976
     Eigenvalues ---    0.25000   0.25000   0.25369   0.26196   0.26651
     Eigenvalues ---    0.27980   0.28084   0.28470   0.29723   0.31460
     Eigenvalues ---    0.31624   0.32046   0.32237   0.32290   0.32382
     Eigenvalues ---    0.32388   0.32405   0.32516   0.32526   0.32580
     Eigenvalues ---    0.33306   0.33384   0.33614   0.35352   0.43885
     Eigenvalues ---    0.44248   0.49145   0.66977   0.90435   0.91191
     Eigenvalues --- 1000.000001000.000001000.000001000.000001000.00000
     Eigenvalues --- 1000.000001000.000001000.000001000.000001000.00000
     Eigenvalues --- 1000.000001000.000001000.000001000.000001000.00000
     Eigenvalues --- 1000.000001000.000001000.000001000.000001000.00000
     Eigenvalues --- 1000.000001000.000001000.000001000.000001000.00000
     Eigenvalues --- 1000.000001000.000001000.000001000.000001000.00000
     Eigenvalues --- 1000.000001000.000001000.000001000.000001000.00000
     Eigenvalues --- 1000.000001000.000001000.000001000.000001000.00000
     Eigenvalues --- 1000.000001000.000001000.000001000.000001000.00000
     Eigenvalues --- 1000.000001000.000001000.000001000.000001000.00000
     Eigenvalues --- 1000.000001000.000001000.000001000.000001000.00000
     Eigenvalues --- 1000.000001000.000001000.000001000.000001000.00000
     Eigenvalues --- 1000.000001000.000001000.000001000.000001000.00000
     Eigenvalues --- 1000.000001000.000001000.000001000.000001000.00000
     Eigenvalues --- 1000.000001000.000001000.000001000.000001000.00000
     Eigenvalues --- 1000.000001000.000001000.000001000.000001000.00000
     Eigenvalues --- 1000.000001000.000001000.000001000.000001000.00000
     Eigenvalues --- 1000.000001000.000001000.000001000.000001000.00000
     Eigenvalues --- 1000.00000
 RFO step:  Lambda=-2.33922619D-02 EMin= 2.30580970D-03
 Linear search not attempted -- first point.
 Iteration  1 RMS(Cart)=  0.05514352 RMS(Int)=  0.00107208
 Iteration  2 RMS(Cart)=  0.00117032 RMS(Int)=  0.00024254
 Iteration  3 RMS(Cart)=  0.00000087 RMS(Int)=  0.00024254
 Iteration  1 RMS(Cart)=  0.00003076 RMS(Int)=  0.00002318
 Iteration  2 RMS(Cart)=  0.00001447 RMS(Int)=  0.00002573
 Iteration  3 RMS(Cart)=  0.00000770 RMS(Int)=  0.00002852
 Iteration  4 RMS(Cart)=  0.00000485 RMS(Int)=  0.00003030
 Iteration  5 RMS(Cart)=  0.00000352 RMS(Int)=  0.00003144
 Iteration  6 RMS(Cart)=  0.00000278 RMS(Int)=  0.00003223
 Iteration  7 RMS(Cart)=  0.00000229 RMS(Int)=  0.00003282
 Iteration  8 RMS(Cart)=  0.00000192 RMS(Int)=  0.00003330
 Iteration  9 RMS(Cart)=  0.00000162 RMS(Int)=  0.00003370
 Iteration 10 RMS(Cart)=  0.00000138 RMS(Int)=  0.00003403
 Iteration 11 RMS(Cart)=  0.00000117 RMS(Int)=  0.00003432
 Iteration 12 RMS(Cart)=  0.00000100 RMS(Int)=  0.00003457
 Variable       Old X    -DE/DX   Delta X   Delta X   Delta X     New X
                                 (Linear)    (Quad)   (Total)
    R1        2.32733   0.01590   0.00000   0.01714   0.01714   2.34447
    R2        2.32389   0.01797   0.00000   0.01922   0.01922   2.34311
    R3        2.88518  -0.03713   0.00000  -0.11579  -0.11579   2.76939
    R4        2.64473  -0.03423   0.00000  -0.07403  -0.07379   2.57095
    R5        2.81003  -0.02189   0.00000  -0.06297  -0.06274   2.74730
    R6        2.59079  -0.02491   0.00000  -0.04824  -0.04815   2.54265
    R7        2.08382  -0.01029   0.00000  -0.02881  -0.02881   2.05501
    R8        2.82466  -0.01949   0.00000  -0.05408  -0.05418   2.77048
    R9        1.93292  -0.00660   0.00000  -0.01428  -0.01428   1.91864
   R10        2.11842  -0.01185   0.00000  -0.03505  -0.03505   2.08338
   R11        2.92736  -0.01303   0.00000  -0.04442  -0.04444   2.88292
   R12        2.90288  -0.00457   0.00000  -0.00927  -0.00928   2.89360
   R13        2.91138  -0.00464   0.00000  -0.01440  -0.01443   2.89696
   R14        2.09911  -0.00995   0.00000  -0.02856  -0.02856   2.07055
   R15        2.09893  -0.00802   0.00000  -0.02300  -0.02300   2.07592
   R16        2.90429  -0.00181   0.00000  -0.00714  -0.00719   2.89711
   R17        2.10139  -0.01058   0.00000  -0.03046  -0.03046   2.07093
   R18        2.10317  -0.00901   0.00000  -0.02601  -0.02601   2.07715
   R19        2.91770  -0.00908   0.00000  -0.02882  -0.02880   2.88890
   R20        2.10412  -0.01167   0.00000  -0.03375  -0.03375   2.07038
   R21        2.10109  -0.00995   0.00000  -0.02863  -0.02863   2.07246
   R22        2.93533  -0.01057   0.00000  -0.03645  -0.03643   2.89889
   R23        2.10151  -0.01073   0.00000  -0.03090  -0.03090   2.07061
   R24        2.09796  -0.00785   0.00000  -0.02249  -0.02249   2.07547
   R25        2.10759  -0.00916   0.00000  -0.02663  -0.02663   2.08096
   R26        2.76821  -0.00524   0.00000  -0.01083  -0.01117   2.75703
   R27        2.44282  -0.00501   0.00000  -0.00681  -0.00686   2.43596
   R28        2.07987  -0.00650   0.00000  -0.01808  -0.01808   2.06179
    A1        2.15943   0.01027   0.00000   0.03776   0.03734   2.19677
    A2        2.06889  -0.00461   0.00000  -0.01667  -0.01710   2.05179
    A3        2.05478  -0.00565   0.00000  -0.02048  -0.02090   2.03388
    A4        2.03006  -0.00889   0.00000  -0.03015  -0.03057   1.99948
    A5        2.03640  -0.00130   0.00000  -0.00232  -0.00280   2.03360
    A6        2.21575   0.01011   0.00000   0.03084   0.03106   2.24681
    A7        2.20015   0.00639   0.00000   0.02018   0.02054   2.22069
    A8        2.06355  -0.00325   0.00000  -0.01017  -0.01043   2.05312
    A9        2.01851  -0.00309   0.00000  -0.00919  -0.00946   2.00905
   A10        2.25307  -0.00537   0.00000  -0.01838  -0.01840   2.23467
   A11        2.11664  -0.01258   0.00000  -0.07195  -0.07236   2.04428
   A12        1.87586   0.01815   0.00000   0.09792   0.09804   1.97390
   A13        1.83795  -0.00157   0.00000  -0.01728  -0.01708   1.82087
   A14        2.00675  -0.00106   0.00000  -0.01253  -0.01259   1.99416
   A15        1.96724   0.00088   0.00000   0.00020  -0.00025   1.96699
   A16        1.85190   0.00265   0.00000   0.02403   0.02387   1.87577
   A17        1.84907   0.00087   0.00000   0.01934   0.01913   1.86820
   A18        1.93691  -0.00144   0.00000  -0.00926  -0.00895   1.92796
   A19        1.91019   0.00010   0.00000  -0.00513  -0.00526   1.90493
   A20        1.92258  -0.00072   0.00000  -0.01290  -0.01287   1.90971
   A21        1.92282  -0.00164   0.00000  -0.00696  -0.00695   1.91587
   A22        1.91924  -0.00041   0.00000   0.00566   0.00561   1.92485
   A23        1.90444   0.00308   0.00000   0.02468   0.02469   1.92913
   A24        1.88436  -0.00039   0.00000  -0.00491  -0.00516   1.87919
   A25        1.94044  -0.00088   0.00000   0.00555   0.00543   1.94587
   A26        1.91895  -0.00071   0.00000  -0.00689  -0.00690   1.91205
   A27        1.90498   0.00032   0.00000  -0.00293  -0.00299   1.90199
   A28        1.91614   0.00080   0.00000   0.00717   0.00722   1.92335
   A29        1.89850   0.00171   0.00000   0.01120   0.01123   1.90972
   A30        1.88380  -0.00122   0.00000  -0.01458  -0.01467   1.86914
   A31        1.94471   0.00064   0.00000   0.00519   0.00533   1.95004
   A32        1.90234   0.00062   0.00000   0.00584   0.00580   1.90813
   A33        1.91747   0.00039   0.00000   0.00529   0.00526   1.92273
   A34        1.90653  -0.00112   0.00000  -0.01422  -0.01427   1.89226
   A35        1.91538  -0.00048   0.00000   0.00015   0.00006   1.91545
   A36        1.87603  -0.00007   0.00000  -0.00264  -0.00267   1.87336
   A37        1.94802  -0.00298   0.00000  -0.01836  -0.01839   1.92963
   A38        1.90594   0.00255   0.00000   0.01684   0.01669   1.92262
   A39        1.91061   0.00139   0.00000   0.01344   0.01342   1.92403
   A40        1.90616   0.00019   0.00000  -0.00302  -0.00286   1.90329
   A41        1.91129  -0.00019   0.00000  -0.00452  -0.00446   1.90683
   A42        1.88057  -0.00087   0.00000  -0.00387  -0.00406   1.87651
   A43        1.84658   0.00454   0.00000   0.02328   0.02333   1.86991
   A44        1.93883  -0.00433   0.00000  -0.03120  -0.03162   1.90721
   A45        1.98256   0.00077   0.00000   0.01100   0.01119   1.99376
   A46        1.88043   0.00224   0.00000   0.03044   0.03074   1.91117
   A47        1.89200  -0.00381   0.00000  -0.02831  -0.02835   1.86366
   A48        1.91881   0.00082   0.00000  -0.00288  -0.00275   1.91606
   A49        2.08339  -0.00593   0.00000  -0.01273  -0.01313   2.07026
   A50        2.24937  -0.00525   0.00000  -0.02214  -0.02213   2.22724
   A51        1.98294   0.00505   0.00000   0.02436   0.02393   2.00687
   A52        2.05086   0.00021   0.00000  -0.00196  -0.00239   2.04847
    D1       -0.21874  -0.00037   0.00000  -0.03584  -0.03514  -0.25387
    D2        2.96706   0.00099   0.00000   0.00000  -0.00000   2.96706
    D3        2.91017   0.00019   0.00000   0.01620   0.01655   2.92671
    D4       -0.18722   0.00156   0.00000   0.05204   0.05168  -0.13554
    D5        3.07467   0.00105   0.00000   0.02501   0.02498   3.09965
    D6       -0.01731   0.00004   0.00000   0.00454   0.00441  -0.01289
    D7       -0.11635  -0.00088   0.00000  -0.01628  -0.01663  -0.13298
    D8        3.07485  -0.00189   0.00000  -0.03675  -0.03720   3.03766
    D9       -2.69325  -0.00219   0.00000  -0.04918  -0.04980  -2.74305
   D10        0.44118  -0.00002   0.00000  -0.00362  -0.00403   0.43715
   D11        0.49793  -0.00006   0.00000  -0.00708  -0.00684   0.49109
   D12       -2.65082   0.00210   0.00000   0.03848   0.03892  -2.61190
   D13       -0.13389  -0.00047   0.00000   0.01542   0.01565  -0.11824
   D14        2.67835   0.00342   0.00000   0.06390   0.06287   2.74122
   D15        2.95922   0.00050   0.00000   0.03538   0.03572   2.99494
   D16       -0.51174   0.00439   0.00000   0.08386   0.08295  -0.42879
   D17       -2.47643  -0.00072   0.00000  -0.01604  -0.01566  -2.49209
   D18        1.77501  -0.00237   0.00000  -0.02745  -0.02710   1.74791
   D19       -0.46854  -0.00017   0.00000  -0.00306  -0.00307  -0.47160
   D20        0.95920  -0.00012   0.00000  -0.03642  -0.03696   0.92224
   D21       -1.07255  -0.00177   0.00000  -0.04783  -0.04840  -1.12094
   D22        2.96709   0.00043   0.00000  -0.02344  -0.02436   2.94273
   D23        2.94443   0.00241   0.00000   0.02682   0.02670   2.97113
   D24       -1.22659   0.00152   0.00000   0.02238   0.02228  -1.20432
   D25        0.85041  -0.00043   0.00000   0.00393   0.00391   0.85431
   D26        0.92067   0.00318   0.00000   0.03914   0.03914   0.95980
   D27        3.03283   0.00229   0.00000   0.03470   0.03471   3.06754
   D28       -1.17336   0.00034   0.00000   0.01626   0.01634  -1.15702
   D29       -1.08018   0.00140   0.00000   0.00759   0.00759  -1.07259
   D30        1.03198   0.00051   0.00000   0.00315   0.00317   1.03515
   D31        3.10898  -0.00144   0.00000  -0.01530  -0.01521   3.09377
   D32       -2.90048  -0.00100   0.00000  -0.01334  -0.01312  -2.91360
   D33       -0.86457   0.00205   0.00000   0.02022   0.02006  -0.84450
   D34        1.30939   0.00029   0.00000   0.00000  -0.00001   1.30938
   D35       -0.89930  -0.00191   0.00000  -0.02248  -0.02238  -0.92168
   D36        1.13662   0.00113   0.00000   0.01108   0.01080   1.14741
   D37       -2.97261  -0.00063   0.00000  -0.00913  -0.00927  -2.98188
   D38        1.10332   0.00098   0.00000   0.01199   0.01210   1.11541
   D39        3.13923   0.00403   0.00000   0.04556   0.04527  -3.09868
   D40       -0.96999   0.00227   0.00000   0.02534   0.02520  -0.94479
   D41        0.95665   0.00065   0.00000   0.00000   0.00001   0.95666
   D42        3.08231   0.00059   0.00000   0.00807   0.00803   3.09034
   D43       -1.13765  -0.00113   0.00000  -0.01546  -0.01543  -1.15308
   D44       -1.15753   0.00173   0.00000   0.01566   0.01573  -1.14180
   D45        0.96813   0.00167   0.00000   0.02373   0.02376   0.99188
   D46        3.03135  -0.00005   0.00000   0.00020   0.00030   3.03165
   D47        3.06190   0.00060   0.00000   0.00353   0.00349   3.06540
   D48       -1.09563   0.00054   0.00000   0.01161   0.01152  -1.08411
   D49        0.96760  -0.00118   0.00000  -0.01193  -0.01194   0.95566
   D50       -0.92192  -0.00083   0.00000   0.00000   0.00001  -0.92191
   D51        1.18334  -0.00142   0.00000  -0.01059  -0.01060   1.17274
   D52       -3.04847  -0.00091   0.00000  -0.00730  -0.00734  -3.05581
   D53       -3.04921   0.00012   0.00000   0.00012   0.00014  -3.04907
   D54       -0.94396  -0.00047   0.00000  -0.01047  -0.01046  -0.95442
   D55        1.10742   0.00003   0.00000  -0.00718  -0.00720   1.10022
   D56        1.17622   0.00013   0.00000   0.00704   0.00708   1.18330
   D57       -3.00171  -0.00046   0.00000  -0.00355  -0.00353  -3.00524
   D58       -0.95033   0.00005   0.00000  -0.00026  -0.00027  -0.95060
   D59        0.98778  -0.00083   0.00000  -0.01173  -0.01177   0.97601
   D60        3.09707  -0.00080   0.00000  -0.01604  -0.01619   3.08088
   D61       -1.13111   0.00043   0.00000  -0.00313  -0.00310  -1.13420
   D62       -1.11501  -0.00126   0.00000  -0.01294  -0.01292  -1.12793
   D63        0.99428  -0.00123   0.00000  -0.01724  -0.01734   0.97693
   D64        3.04929  -0.00000   0.00000  -0.00433  -0.00425   3.04504
   D65        3.11554  -0.00024   0.00000  -0.00147  -0.00147   3.11407
   D66       -1.05836  -0.00021   0.00000  -0.00578  -0.00589  -1.06425
   D67        0.99665   0.00102   0.00000   0.00714   0.00721   1.00386
   D68       -1.05226   0.00006   0.00000  -0.00050  -0.00041  -1.05267
   D69       -3.12727   0.00161   0.00000   0.00843   0.00807  -3.11920
   D70        1.08012   0.00148   0.00000   0.01045   0.01036   1.09048
   D71        3.12177  -0.00134   0.00000  -0.00777  -0.00761   3.11416
   D72        1.04676   0.00021   0.00000   0.00116   0.00087   1.04763
   D73       -1.02904   0.00008   0.00000   0.00318   0.00316  -1.02588
   D74        1.06624  -0.00029   0.00000   0.00130   0.00150   1.06774
   D75       -1.00877   0.00127   0.00000   0.01023   0.00998  -0.99879
   D76       -3.08456   0.00114   0.00000   0.01225   0.01227  -3.07229
   D77       -1.17216   0.00388   0.00000   0.00000  -0.00001  -1.17217
   D78        3.06395   0.00030   0.00000  -0.01682  -0.01671   3.04725
   D79        1.01255  -0.00063   0.00000  -0.03535  -0.03561   0.97693
   D80        0.12609   0.00150   0.00000   0.01657   0.01628   0.14237
   D81       -3.00810  -0.00075   0.00000  -0.03058  -0.03052  -3.03863
         Item               Value     Threshold  Converged?
 Maximum Force            0.037126     0.000450     NO 
 RMS     Force            0.006918     0.000300     NO 
 Maximum Displacement     0.287563     0.001800     NO 
 RMS     Displacement     0.055288     0.001200     NO 
 Predicted change in Energy=-1.302972D-02
 GradGradGradGradGradGradGradGradGradGradGradGradGradGradGradGradGradGrad

                          Input orientation:                          
 ---------------------------------------------------------------------
 Center     Atomic      Atomic             Coordinates (Angstroms)
 Number     Number       Type             X           Y           Z
 ---------------------------------------------------------------------
      1          8           0       -3.855868    0.580233    0.510020
      2          7           0       -3.130222   -0.234951   -0.079981
      3          8           0       -3.513868   -1.258699   -0.664922
      4          6           0       -1.683473   -0.003801   -0.045739
      5          6           0       -1.319232    1.241058    0.364841
      6          7           0       -0.069209    1.709652    0.532942
      7          6           0        1.192506    0.967696    0.449521
      8          1           0        1.822389    1.411028    1.238291
      9          6           0        1.931420    1.134695   -0.874676
     10          6           0        3.330704    0.520952   -0.750476
     11          6           0        3.264450   -0.939579   -0.289172
     12          6           0        2.436182   -1.093156    0.986537
     13          6           0        1.028565   -0.516719    0.787591
     14          1           0        0.455351   -0.615433    1.722641
     15          7           0        0.395796   -1.304285   -0.264978
     16          6           0       -0.842318   -1.079495   -0.544629
     17          1           0       -2.112287    1.942376    0.613427
     18          1           0        0.057242    2.716233    0.492401
     19          1           0        1.367723    0.637088   -1.671647
     20          1           0        1.999666    2.200903   -1.130242
     21          1           0        3.848480    0.590397   -1.713836
     22          1           0        3.914934    1.106651   -0.026712
     23          1           0        2.804506   -1.547809   -1.075835
     24          1           0        4.275843   -1.329972   -0.123547
     25          1           0        2.354143   -2.151450    1.258364
     26          1           0        2.925296   -0.574265    1.821860
     27          1           0       -1.322739   -1.744337   -1.264054
 ---------------------------------------------------------------------
                    Distance matrix (angstroms):
                    1          2          3          4          5
     1  O    0.000000
     2  N    1.240641   0.000000
     3  O    2.208873   1.239919   0.000000
     4  C    2.317166   1.465498   2.304019   0.000000
     5  C    2.625317   2.378267   3.482187   1.360486   0.000000
     6  N    3.951570   3.677901   4.702304   2.424179   1.345510
     7  C    5.063583   4.518043   5.324357   3.075768   2.527989
     8  H    5.784739   5.382884   6.263010   3.992686   3.265209
     9  C    5.976414   5.303555   5.951764   3.879532   3.480583
    10  C    7.296518   6.539458   7.072668   5.090579   4.835741
    11  C    7.324443   6.436776   6.796221   5.041517   5.117915
    12  C    6.528185   5.732262   6.177202   4.384501   4.465221
    13  C    5.013785   4.257650   4.826389   2.883171   2.963216
    14  H    4.635372   4.031197   4.676425   2.841801   2.905052
    15  N    4.714730   3.689241   3.930332   2.462253   3.133172
    16  C    3.598397   2.482671   2.680255   1.453806   2.537627
    17  H    2.214994   2.501551   3.720952   2.099044   1.087464
    18  H    4.458165   4.381442   5.467385   3.273876   2.021656
    19  H    5.661167   4.850295   5.332676   3.516265   3.425170
    20  H    6.293195   5.775134   6.525674   4.427457   3.764526
    21  H    8.018891   7.214773   7.663129   5.808453   5.607986
    22  H    7.807084   7.171956   7.822359   5.707507   5.250512
    23  H    7.169664   6.159246   6.338319   4.856647   5.182523
    24  H    8.377053   7.486706   7.808826   6.105591   6.176859
    25  H    6.825419   5.961744   6.239358   4.755568   5.079486
    26  H    7.002712   6.356212   6.936525   5.005408   4.840902
    27  H    3.868812   2.635767   2.322897   2.154969   3.400867
                    6          7          8          9         10
     6  N    0.000000
     7  C    1.466077   0.000000
     8  H    2.040793   1.102476   0.000000
     9  C    2.512863   1.525575   2.133748   0.000000
    10  C    3.823555   2.492280   2.649989   1.533004   0.000000
    11  C    4.336771   2.911412   3.152466   2.534245   1.533083
    12  C    3.786616   2.466218   2.590571   2.946560   2.534310
    13  C    2.495332   1.531227   2.132954   2.511065   2.956730
    14  H    2.663938   2.161141   2.491974   3.462338   3.959209
    15  N    3.152257   2.511405   3.415832   2.945929   3.490112
    16  C    3.088397   3.052840   4.059824   3.564434   4.474138
    17  H    2.057865   3.449424   4.019262   4.383877   5.788508
    18  H    1.015302   2.085196   2.318546   2.807616   4.132741
    19  H    2.841721   2.153917   3.045233   1.095687   2.171483
    20  H    2.699583   2.160545   2.503053   1.098531   2.176722
    21  H    4.652851   3.446253   3.673354   2.162306   1.095891
    22  H    4.068196   2.767259   2.464067   2.157350   1.099183
    23  H    4.632219   3.354553   3.882583   2.828175   2.159286
    24  H    5.343198   3.887757   3.922642   3.483547   2.170771
    25  H    4.615948   3.425303   3.602001   3.940470   3.482935
    26  H    3.980533   2.695092   2.344855   3.343597   2.825025
    27  H    4.090303   4.076509   5.109784   4.362338   5.200945
                   11         12         13         14         15
    11  C    0.000000
    12  C    1.528740   0.000000
    13  C    2.517422   1.534029   0.000000
    14  H    3.470375   2.166509   1.101198   0.000000
    15  N    2.891846   2.402923   1.458958   2.104446   0.000000
    16  C    4.117084   3.618455   2.364684   2.653265   1.289055
    17  H    6.166819   5.481080   3.992798   3.790186   4.195579
    18  H    4.925648   4.518293   3.388596   3.573791   4.105217
    19  H    2.827489   3.346833   2.737545   3.731277   2.586947
    20  H    3.488510   3.939812   3.465052   4.295998   3.950623
    21  H    2.170619   3.481515   3.928710   4.977622   4.196431
    22  H    2.163117   2.837699   3.410212   4.241996   4.272437
    23  H    1.095596   2.143770   2.772990   3.770852   2.553170
    24  H    1.096701   2.161647   3.469347   4.302922   3.882709
    25  H    2.166139   1.095722   2.156648   2.486023   2.621714
    26  H    2.169087   1.098292   2.161160   2.472280   3.359493
    27  H    4.758186   4.429299   3.353346   3.654638   2.035967
                   16         17         18         19         20
    16  C    0.000000
    17  H    3.476438   0.000000
    18  H    4.036358   2.306590   0.000000
    19  H    3.016804   4.363005   3.274646   0.000000
    20  H    4.379591   4.473855   2.582933   1.771436   0.000000
    21  H    5.114603   6.540240   4.874438   2.481555   2.520401
    22  H    5.261076   6.118465   4.212128   3.068320   2.466459
    23  H    3.714946   6.261778   5.309320   2.681998   3.834523
    24  H    5.141558   7.215234   5.877734   3.837070   4.319895
    25  H    3.823249   6.092976   5.436615   4.163405   4.977355
    26  H    4.477772   5.759431   4.562957   4.012232   4.156110
    27  H    1.091051   4.211909   4.988604   3.616063   5.159573
                   21         22         23         24         25
    21  H    0.000000
    22  H    1.765593   0.000000
    23  H    2.463504   3.062657   0.000000
    24  H    2.529719   2.465110   1.766108   0.000000
    25  H    4.311002   3.834412   2.452692   2.505481   0.000000
    26  H    3.835342   2.687394   3.059251   2.485896   1.769535
    27  H    5.691643   6.090351   4.136207   5.728575   4.477477
                   26         27
    26  H    0.000000
    27  H    5.379381   0.000000
 Symmetry turned off by external request.
 Stoichiometry    C9H13N3O2
 Framework group  C1[X(C9H13N3O2)]
 Deg. of freedom    75
 Full point group                 C1      NOp   1
 Rotational constants (GHZ):           1.6890370           0.4191451           0.3738334
 Standard basis: 6-31G(d) (6D, 7F)
   236 basis functions,   444 primitive gaussians,   236 cartesian basis functions
    52 alpha electrons       52 beta electrons
       nuclear repulsion energy       932.0385681290 Hartrees.
 NAtoms=   27 NActive=   27 NUniq=   27 SFac= 1.00D+00 NAtFMM=   60 NAOKFM=F Big=F
 Integral buffers will be    131072 words long.
 Raffenetti 1 integral format.
 Two-electron integral symmetry is turned off.
 One-electron integrals computed using PRISM.
 NBasis=   236 RedAO= T EigKep=  1.08D-03  NBF=   236
 NBsUse=   236 1.00D-06 EigRej= -1.00D+00 NBFU=   236
 Initial guess from the checkpoint file:  "/home/alexey/tmp/Gau-1098608.chk"
 B after Tr=     0.054973    0.006096   -0.000159
         Rot=    0.999999    0.000284    0.000676    0.001375 Ang=   0.18 deg.
 ExpMin= 1.61D-01 ExpMax= 5.48D+03 ExpMxC= 8.25D+02 IAcc=3 IRadAn=         5 AccDes= 0.00D+00
 Harris functional with IExCor=  205 and IRadAn=       5 diagonalized for initial guess.
 HarFok:  IExCor=  205 AccDes= 0.00D+00 IRadAn=         5 IDoV= 1 UseB2=F ITyADJ=14
 ICtDFT=  3500011 ScaDFX=  1.000000  1.000000  1.000000  1.000000
 FoFCou: FMM=F IPFlag=           0 FMFlag=      100000 FMFlg1=           0
         NFxFlg=           0 DoJE=T BraDBF=F KetDBF=T FulRan=T
         wScrn=  0.000000 ICntrl=       500 IOpCl=  0 I1Cent=   200000004 NGrid=           0
         NMat0=    1 NMatS0=      1 NMatT0=    0 NMatD0=    1 NMtDS0=    0 NMtDT0=    0
 Symmetry not used in FoFCou.
 Keep R1 ints in memory in canonical form, NReq=397720213.
 Requested convergence on RMS density matrix=1.00D-08 within 128 cycles.
 Requested convergence on MAX density matrix=1.00D-06.
 Requested convergence on             energy=1.00D-06.
 No special actions if energy rises.
 SCF Done:  E(RHF) =  -661.297816746     A.U. after   14 cycles
            NFock= 14  Conv=0.98D-08     -V/T= 2.0024
 ExpMin= 1.61D-01 ExpMax= 5.48D+03 ExpMxC= 8.25D+02 IAcc=3 IRadAn=         5 AccDes= 0.00D+00
 HarFok:  IExCor=  205 AccDes= 0.00D+00 IRadAn=         5 IDoV=-2 UseB2=F ITyADJ=14
 ICtDFT= 12500011 ScaDFX=  1.000000  1.000000  1.000000  1.000000
 Range of M.O.s used for correlation:    15   236
 NBasis=   236 NAE=    52 NBE=    52 NFC=    14 NFV=     0
 NROrb=    222 NOA=    38 NOB=    38 NVA=   184 NVB=   184
 Fully direct method using O(ONN) memory.
 JobTyp=1 Pass  1:  I=  15 to  52 NPSUse=  4 ParTrn=T ParDer=T DoDerP=T.
 Spin components of T(2) and E(2):
     alpha-alpha T2 =       0.9128168179D-01 E2=     -0.2723806557D+00
     alpha-beta  T2 =       0.4913948427D+00 E2=     -0.1488185484D+01
     beta-beta   T2 =       0.9128168179D-01 E2=     -0.2723806557D+00
 ANorm=    0.1293815368D+01
 E2 =    -0.2032946796D+01 EUMP2 =    -0.66333076354158D+03
          IDoAtm=111111111111111111111111111
          Differentiating once with respect to electric field.
                with respect to dipole field.
          Differentiating once with respect to nuclear coordinates.
 Keep R1 ints in memory in canonical form, NReq=397723379.
          There are     1 degrees of freedom in the 1st order CPHF.  IDoFFX=0 NUNeed=     1.
 LinEq1:  Iter=  0 NonCon=     1 RMS=4.57D-03 Max=1.24D-01 NDo=     1
 AX will form     1 AO Fock derivatives at one time.
 LinEq1:  Iter=  1 NonCon=     1 RMS=1.54D-03 Max=2.65D-02 NDo=     1
 LinEq1:  Iter=  2 NonCon=     1 RMS=6.41D-04 Max=1.99D-02 NDo=     1
 LinEq1:  Iter=  3 NonCon=     1 RMS=2.80D-04 Max=8.00D-03 NDo=     1
 LinEq1:  Iter=  4 NonCon=     1 RMS=8.68D-05 Max=1.87D-03 NDo=     1
 LinEq1:  Iter=  5 NonCon=     1 RMS=3.63D-05 Max=1.77D-03 NDo=     1
 LinEq1:  Iter=  6 NonCon=     1 RMS=1.42D-05 Max=5.48D-04 NDo=     1
 LinEq1:  Iter=  7 NonCon=     1 RMS=5.48D-06 Max=1.05D-04 NDo=     1
 LinEq1:  Iter=  8 NonCon=     1 RMS=2.20D-06 Max=5.74D-05 NDo=     1
[...]
    26  H    2.175742   1.098787   2.167142   2.497737   3.362481
    27  H    4.725505   4.419739   3.358490   3.657102   2.031129
                   16         17         18         19         20
    16  C    0.000000
    17  H    3.465072   0.000000
    18  H    4.088881   2.234270   0.000000
    19  H    2.992193   4.318640   3.508787   0.000000
    20  H    4.377778   4.466142   2.880552   1.768561   0.000000
    21  H    5.097507   6.522207   5.085947   2.499241   2.521084
    22  H    5.250605   6.103720   4.314804   3.070264   2.461582
    23  H    3.694102   6.235978   5.419957   2.703934   3.842799
    24  H    5.133743   7.198075   5.937426   3.849456   4.317148
    25  H    3.821439   6.073661   5.370491   4.171465   4.985128
    26  H    4.496464   5.766879   4.487403   4.035783   4.182209
    27  H    1.089376   4.220621   5.079910   3.587479   5.152491
                   21         22         23         24         25
    21  H    0.000000
    22  H    1.758862   0.000000
    23  H    2.469481   3.062288   0.000000
    24  H    2.517275   2.459972   1.764539   0.000000
    25  H    4.312021   3.839519   2.444093   2.519635   0.000000
    26  H    3.846727   2.704382   3.060414   2.492004   1.767988
    27  H    5.655958   6.063581   4.091219   5.695635   4.454359
                   26         27
    26  H    0.000000
    27  H    5.379801   0.000000
 Symmetry turned off by external request.
 Stoichiometry    C9H13N3O2
 Framework group  C1[X(C9H13N3O2)]
 Deg. of freedom    75
 Full point group                 C1      NOp   1
 Rotational constants (GHZ):           1.6827750           0.4167168           0.3737509

 **********************************************************************

            Population analysis using the SCF Density.

 **********************************************************************

 Alpha  occ. eigenvalues --  -20.59284 -20.59023 -15.84784 -15.64050 -15.56136
 Alpha  occ. eigenvalues --  -11.35006 -11.29593 -11.29547 -11.28664 -11.27126
 Alpha  occ. eigenvalues --  -11.23706 -11.23195 -11.22682 -11.22082  -1.57187
 Alpha  occ. eigenvalues --   -1.36779  -1.30920  -1.23050  -1.14702  -1.09813
 Alpha  occ. eigenvalues --   -1.02785  -1.01293  -0.94444  -0.89715  -0.85549
 Alpha  occ. eigenvalues --   -0.82451  -0.78592  -0.77439  -0.75166  -0.72041
 Alpha  occ. eigenvalues --   -0.69827  -0.69390  -0.67904  -0.64837  -0.63794
 Alpha  occ. eigenvalues --   -0.62324  -0.60320  -0.57700  -0.56974  -0.55041
 Alpha  occ. eigenvalues --   -0.54543  -0.50823  -0.50040  -0.48732  -0.48115
 Alpha  occ. eigenvalues --   -0.47373  -0.46273  -0.45968  -0.43726  -0.41702
 Alpha  occ. eigenvalues --   -0.39832  -0.33761
 Alpha virt. eigenvalues --    0.07620   0.11665   0.17351   0.21878   0.24063
 Alpha virt. eigenvalues --    0.25392   0.27021   0.28564   0.29077   0.29552
 Alpha virt. eigenvalues --    0.30818   0.31853   0.32055   0.32795   0.33998
 Alpha virt. eigenvalues --    0.34402   0.35843   0.37336   0.38605   0.40249
 Alpha virt. eigenvalues --    0.41263   0.42572   0.45335   0.46274   0.46632
 Alpha virt. eigenvalues --    0.47094   0.48919   0.54093   0.57661   0.59608
 Alpha virt. eigenvalues --    0.63834   0.69641   0.69955   0.72809   0.74272
 Alpha virt. eigenvalues --    0.74756   0.75799   0.76594   0.78617   0.79640
 Alpha virt. eigenvalues --    0.80854   0.84712   0.85685   0.85877   0.88522
 Alpha virt. eigenvalues --    0.89457   0.91031   0.92134   0.92909   0.94428
 Alpha virt. eigenvalues --    0.95780   0.97953   0.99809   1.01482   1.02650
 Alpha virt. eigenvalues --    1.03079   1.05905   1.06882   1.07933   1.09137
 Alpha virt. eigenvalues --    1.09777   1.11434   1.11863   1.12665   1.13946
 Alpha virt. eigenvalues --    1.14783   1.14946   1.15865   1.17024   1.18805
 Alpha virt. eigenvalues --    1.19173   1.21078   1.22288   1.23524   1.23953
 Alpha virt. eigenvalues --    1.25281   1.25619   1.27553   1.28772   1.29490
 Alpha virt. eigenvalues --    1.29774   1.33054   1.35857   1.37166   1.39967
 Alpha virt. eigenvalues --    1.41542   1.46946   1.49084   1.51476   1.53858
 Alpha virt. eigenvalues --    1.55152   1.58608   1.60762   1.63528   1.65068
 Alpha virt. eigenvalues --    1.67803   1.68555   1.72888   1.74467   1.77175
 Alpha virt. eigenvalues --    1.80094   1.84698   1.87654   1.90913   1.93735
 Alpha virt. eigenvalues --    1.94674   1.96066   2.00155   2.01972   2.02797
 Alpha virt. eigenvalues --    2.03206   2.05391   2.08473   2.09469   2.12895
 Alpha virt. eigenvalues --    2.13331   2.15485   2.19055   2.19995   2.22614
 Alpha virt. eigenvalues --    2.23832   2.24597   2.25547   2.28244   2.29625
 Alpha virt. eigenvalues --    2.31548   2.33776   2.35256   2.36030   2.38804
 Alpha virt. eigenvalues --    2.40295   2.42414   2.43062   2.45677   2.46567
 Alpha virt. eigenvalues --    2.50260   2.51625   2.52995   2.55479   2.61204
 Alpha virt. eigenvalues --    2.62113   2.65059   2.68080   2.69960   2.70465
 Alpha virt. eigenvalues --    2.72361   2.72395   2.75493   2.78305   2.86586
 Alpha virt. eigenvalues --    2.88408   2.89362   2.91607   2.93803   2.95331
 Alpha virt. eigenvalues --    2.99627   3.01068   3.04612   3.05184   3.08287
 Alpha virt. eigenvalues --    3.09345   3.14865   3.21679   3.23822   3.26574
 Alpha virt. eigenvalues --    3.33613   3.37607   3.39027   3.51364   3.65719
 Alpha virt. eigenvalues --    4.12868   4.26963   4.32811   4.38392   4.47154
 Alpha virt. eigenvalues --    4.56340   4.61778   4.62558   4.73586   4.79838
 Alpha virt. eigenvalues --    4.99210   5.00889   5.04991   5.11138
          Condensed to atoms (all electrons):
               1          2          3          4          5          6
     1  O    8.346132   0.301713  -0.082174  -0.092112   0.003764   0.000741
     2  N    0.301713   5.727347   0.307178   0.255712  -0.049164   0.001102
     3  O   -0.082174   0.307178   8.315891  -0.083989   0.003890  -0.000016
     4  C   -0.092112   0.255712  -0.083989   5.236206   0.554263  -0.049278
     5  C    0.003764  -0.049164   0.003890   0.554263   4.709943   0.320132
     6  N    0.000741   0.001102  -0.000016  -0.049278   0.320132   7.194559
     7  C    0.000005  -0.000132   0.000002   0.003990  -0.031354   0.170804
     8  H   -0.000000   0.000002  -0.000000  -0.000260   0.003070  -0.050823
     9  C    0.000000  -0.000004  -0.000000   0.000899   0.000674  -0.061517
    10  C   -0.000000   0.000000  -0.000000  -0.000037  -0.000054   0.003738
    11  C   -0.000000  -0.000000  -0.000000  -0.000031   0.000024  -0.000188
    12  C   -0.000000   0.000002   0.000000  -0.000111  -0.000166   0.003881
    13  C   -0.000006  -0.000053  -0.000015  -0.011524  -0.000364  -0.048193
    14  H   -0.000002  -0.000108  -0.000001   0.002720   0.006477  -0.007111
    15  N   -0.000011   0.002199   0.000507  -0.062735  -0.006853   0.001748
    16  C    0.002741  -0.029154   0.001347   0.331824  -0.050202  -0.001953
    17  H    0.016355  -0.006641   0.000226  -0.026643   0.377561  -0.034066
    18  H    0.000010  -0.000052   0.000001   0.001609  -0.031126   0.338337
    19  H    0.000000  -0.000004   0.000001  -0.001178   0.001230  -0.000310
    20  H    0.000000  -0.000000   0.000000  -0.000083   0.000159  -0.000469
    21  H    0.000000   0.000000  -0.000000   0.000001   0.000001  -0.000076
    22  H   -0.000000   0.000000   0.000000  -0.000000  -0.000003  -0.000117
    23  H    0.000000  -0.000000   0.000000   0.000041   0.000000  -0.000031
    24  H    0.000000   0.000000   0.000000   0.000000  -0.000000   0.000006
    25  H    0.000000  -0.000000   0.000000   0.000024   0.000000  -0.000091
    26  H    0.000000  -0.000000   0.000000   0.000006  -0.000002  -0.000058
    27  H    0.000048  -0.001048   0.007010  -0.060574   0.002103   0.000001
               7          8          9         10         11         12
     1  O    0.000005  -0.000000   0.000000  -0.000000  -0.000000  -0.000000
     2  N   -0.000132   0.000002  -0.000004   0.000000  -0.000000   0.000002
     3  O    0.000002  -0.000000  -0.000000  -0.000000  -0.000000   0.000000
     4  C    0.003990  -0.000260   0.000899  -0.000037  -0.000031  -0.000111
     5  C   -0.031354   0.003070   0.000674  -0.000054   0.000024  -0.000166
     6  N    0.170804  -0.050823  -0.061517   0.003738  -0.000188   0.003881
     7  C    5.016144   0.418472   0.350419  -0.054668  -0.009026  -0.061327
     8  H    0.418472   0.538379  -0.055250   0.000797  -0.000323  -0.002210
     9  C    0.350419  -0.055250   5.158659   0.324663  -0.050421  -0.005354
    10  C   -0.054668   0.000797   0.324663   5.119458   0.337010  -0.060948
    11  C   -0.009026  -0.000323  -0.050421   0.337010   5.120064   0.335955
    12  C   -0.061327  -0.002210  -0.005354  -0.060948   0.335955   5.118743
    13  C    0.339299  -0.037895  -0.060204  -0.000324  -0.050684   0.372059
    14  H   -0.046460  -0.000735   0.004413  -0.000404   0.004192  -0.036231
    15  N   -0.058408   0.003915  -0.014653   0.001586  -0.013086  -0.082255
    16  C   -0.001500  -0.000021  -0.001114  -0.000035   0.000041   0.002494
    17  H    0.001694  -0.000042  -0.000078   0.000001   0.000000   0.000000
    18  H   -0.021221  -0.004417   0.001304  -0.000084   0.000004  -0.000114
    19  H   -0.036805   0.004368   0.390189  -0.032087  -0.002215   0.000693
    20  H   -0.042341  -0.002067   0.399410  -0.035312   0.003933  -0.000414
    21  H    0.004594  -0.000078  -0.036335   0.402436  -0.034902   0.004345
    22  H   -0.004840   0.003564  -0.046929   0.397715  -0.045402  -0.001024
    23  H    0.000585   0.000035  -0.001959  -0.039034   0.399178  -0.037902
    24  H   -0.000131  -0.000101   0.004386  -0.038428   0.402314  -0.038669
    25  H    0.005157  -0.000024  -0.000424   0.004192  -0.033413   0.398234
    26  H   -0.003894   0.001673   0.000968  -0.002231  -0.041459   0.396735
    27  H   -0.000385   0.000009  -0.000056   0.000006   0.000012  -0.000032
              13         14         15         16         17         18
     1  O   -0.000006  -0.000002  -0.000011   0.002741   0.016355   0.000010
     2  N   -0.000053  -0.000108   0.002199  -0.029154  -0.006641  -0.000052
     3  O   -0.000015  -0.000001   0.000507   0.001347   0.000226   0.000001
     4  C   -0.011524   0.002720  -0.062735   0.331824  -0.026643   0.001609
     5  C   -0.000364   0.006477  -0.006853  -0.050202   0.377561  -0.031126
     6  N   -0.048193  -0.007111   0.001748  -0.001953  -0.034066   0.338337
     7  C    0.339299  -0.046460  -0.058408  -0.001500   0.001694  -0.021221
     8  H   -0.037895  -0.000735   0.003915  -0.000021  -0.000042  -0.004417
     9  C   -0.060204   0.004413  -0.014653  -0.001114  -0.000078   0.001304
    10  C   -0.000324  -0.000404   0.001586  -0.000035   0.000001  -0.000084
    11  C   -0.050684   0.004192  -0.013086   0.000041   0.000000   0.000004
    12  C    0.372059  -0.036231  -0.082255   0.002494   0.000000  -0.000114
    13  C    5.040205   0.402937   0.244748  -0.069925  -0.000009   0.002993
    14  H    0.402937   0.526292  -0.037240  -0.004975   0.000101  -0.000105
    15  N    0.244748  -0.037240   6.966258   0.583553  -0.000082  -0.000131
    16  C   -0.069925  -0.004975   0.583553   4.713573   0.001849  -0.000187
    17  H   -0.000009   0.000101  -0.000082   0.001849   0.380183  -0.002906
    18  H    0.002993  -0.000105  -0.000131  -0.000187  -0.002906   0.310981
    19  H   -0.007569   0.000107   0.007694   0.002897   0.000017  -0.000148
    20  H    0.004340  -0.000066   0.000127  -0.000038   0.000003   0.000821
    21  H   -0.000430   0.000010  -0.000041   0.000004  -0.000000   0.000001
    22  H    0.000041  -0.000055   0.000020  -0.000002   0.000000   0.000001
    23  H   -0.007554   0.000003   0.008623   0.000109   0.000000   0.000000
    24  H    0.004698  -0.000056   0.000134   0.000007   0.000000  -0.000000
    25  H   -0.035575  -0.002811   0.000434  -0.000025  -0.000000   0.000002
    26  H   -0.047391  -0.001052   0.004908  -0.000059   0.000000  -0.000000
    27  H    0.004899  -0.000184  -0.040760   0.402826  -0.000081   0.000001
              19         20         21         22         23         24
     1  O    0.000000   0.000000   0.000000  -0.000000   0.000000   0.000000
     2  N   -0.000004  -0.000000   0.000000   0.000000  -0.000000   0.000000
     3  O    0.000001   0.000000  -0.000000   0.000000   0.000000   0.000000
     4  C   -0.001178  -0.000083   0.000001  -0.000000   0.000041   0.000000
     5  C    0.001230   0.000159   0.000001  -0.000003   0.000000  -0.000000
     6  N   -0.000310  -0.000469  -0.000076  -0.000117  -0.000031   0.000006
     7  C   -0.036805  -0.042341   0.004594  -0.004840   0.000585  -0.000131
     8  H    0.004368  -0.002067  -0.000078   0.003564   0.000035  -0.000101
     9  C    0.390189   0.399410  -0.036335  -0.046929  -0.001959   0.004386
    10  C   -0.032087  -0.035312   0.402436   0.397715  -0.039034  -0.038428
    11  C   -0.002215   0.003933  -0.034902  -0.045402   0.399178   0.402314
    12  C    0.000693  -0.000414   0.004345  -0.001024  -0.037902  -0.038669
    13  C   -0.007569   0.004340  -0.000430   0.000041  -0.007554   0.004698
    14  H    0.000107  -0.000066   0.000010  -0.000055   0.000003  -0.000056
    15  N    0.007694   0.000127  -0.000041   0.000020   0.008623   0.000134
    16  C    0.002897  -0.000038   0.000004  -0.000002   0.000109   0.000007
    17  H    0.000017   0.000003  -0.000000   0.000000   0.000000   0.000000
    18  H   -0.000148   0.000821   0.000001   0.000001   0.000000  -0.000000
    19  H    0.504829  -0.024717  -0.002788   0.003959   0.001517  -0.000066
    20  H   -0.024717   0.541375  -0.002689  -0.002988  -0.000045  -0.000083
    21  H   -0.002788  -0.002689   0.524045  -0.027411  -0.002899  -0.002241
    22  H    0.003959  -0.002988  -0.027411   0.571336   0.004138  -0.003654
    23  H    0.001517  -0.000045  -0.002899   0.004138   0.499079  -0.025455
    24  H   -0.000066  -0.000083  -0.002241  -0.003654  -0.025455   0.538167
    25  H   -0.000028   0.000012  -0.000087  -0.000080  -0.002318  -0.002295
    26  H    0.000019  -0.000030  -0.000081   0.002378   0.004067  -0.003031
    27  H    0.000077   0.000000  -0.000000   0.000000  -0.000035  -0.000000
              25         26         27
     1  O    0.000000   0.000000   0.000048
     2  N   -0.000000  -0.000000  -0.001048
     3  O    0.000000   0.000000   0.007010
     4  C    0.000024   0.000006  -0.060574
     5  C    0.000000  -0.000002   0.002103
     6  N   -0.000091  -0.000058   0.000001
     7  C    0.005157  -0.003894  -0.000385
     8  H   -0.000024   0.001673   0.000009
     9  C   -0.000424   0.000968  -0.000056
    10  C    0.004192  -0.002231   0.000006
    11  C   -0.033413  -0.041459   0.000012
    12  C    0.398234   0.396735  -0.000032
    13  C   -0.035575  -0.047391   0.004899
    14  H   -0.002811  -0.001052  -0.000184
    15  N    0.000434   0.004908  -0.040760
    16  C   -0.000025  -0.000059   0.402826
    17  H   -0.000000   0.000000  -0.000081
    18  H    0.000002  -0.000000   0.000001
    19  H   -0.000028   0.000019   0.000077
    20  H    0.000012  -0.000030   0.000000
    21  H   -0.000087  -0.000081  -0.000000
    22  H   -0.000080   0.002378   0.000000
    23  H   -0.002318   0.004067  -0.000035
    24  H   -0.002295  -0.003031  -0.000000
    25  H    0.506468  -0.024092  -0.000012
    26  H   -0.024092   0.562178   0.000001
    27  H   -0.000012   0.000001   0.431977
 Mulliken charges:
               1
     1  O   -0.497204
     2  N    0.491106
     3  O   -0.469856
     4  C    0.001261
     5  C    0.185997
     6  N   -0.780750
     7  C    0.061327
     8  H    0.179963
     9  C   -0.301685
    10  C   -0.327958
    11  C   -0.321576
    12  C   -0.306384
    13  C   -0.038505
    14  H    0.190345
    15  N   -0.510201
    16  C    0.115926
    17  H    0.292560
    18  H    0.404426
    19  H    0.190319
    20  H    0.161162
    21  H    0.174620
    22  H    0.149353
    23  H    0.199860
    24  H    0.164499
    25  H    0.186753
    26  H    0.150446
    27  H    0.254199
 Sum of Mulliken charges =  -0.00000
 Mulliken charges with hydrogens summed into heavy atoms:
               1
     1  O   -0.497204
     2  N    0.491106
     3  O   -0.469856
     4  C    0.001261
     5  C    0.478557
     6  N   -0.376324
     7  C    0.241290
     9  C    0.049796
    10  C   -0.003985
    11  C    0.042782
    12  C    0.030814
    13  C    0.151840
    15  N   -0.510201
    16  C    0.370126
 Electronic spatial extent (au):  <R**2>=           3006.5213
 Charge=             -0.0000 electrons
 Dipole moment (field-independent basis, Debye):
    X=              5.3721    Y=              4.6067    Z=              1.6743  Tot=              7.2722
 Quadrupole moment (field-independent basis, Debye-Ang):
   XX=           -106.0146   YY=            -78.4428   ZZ=            -82.3510
   XY=             -1.7693   XZ=             -0.0103   YZ=              1.0401
 Traceless Quadrupole moment (field-independent basis, Debye-Ang):
   XX=            -17.0784   YY=             10.4933   ZZ=              6.5851
   XY=             -1.7693   XZ=             -0.0103   YZ=              1.0401
 Octapole moment (field-independent basis, Debye-Ang**2):
  XXX=             91.8408  YYY=             31.7068  ZZZ=              1.6183  XYY=             -8.8312
  XXY=              9.5757  XXZ=              4.7336  XZZ=             -5.5383  YZZ=              1.8042
  YYZ=             12.0271  XYZ=              4.1307
 Hexadecapole moment (field-independent basis, Debye-Ang**3):
 XXXX=          -3382.1109 YYYY=           -586.9288 ZZZZ=           -322.5000 XXXY=            -23.6298
 XXXZ=             -5.9443 YYYX=             -4.5242 YYYZ=              4.2899 ZZZX=              1.4736
 ZZZY=            -16.0098 XXYY=           -609.0100 XXZZ=           -543.3282 YYZZ=           -154.6123
 XXYZ=            -28.3737 YYXZ=             -0.7951 ZZXY=              2.5618
 N-N= 9.310791580241D+02 E-N=-3.408866917390D+03  KE= 6.596253610500D+02
 Unable to Open any file for archive entry.
 1\1\GINC-LOTUS\FOpt\RMP2-FC\6-31G(d)\C9H13N3O2\ALEXEY\30-Jun-2023\0\\#
 MP2/6-31G* SCF=Tight Opt=(ModRedun, MaxCycle=20 ) NoSymm\\MolName:\\0,
 1\O,-3.8860774351,0.5965246026,0.4127878764\N,-3.1234722934,-0.2112937
 939,-0.1527136427\O,-3.5227777995,-1.1959215132,-0.803357464\C,-1.6861
 079649,-0.0230950909,-0.0337128476\C,-1.3020106846,1.2259243085,0.3814
 639403\N,-0.0582665859,1.7085267242,0.5279412514\C,1.2056716765,0.9889
 522137,0.4406914541\H,1.8499953808,1.4503146154,1.2044496339\C,1.91612
 26543,1.1224560714,-0.9048561179\C,3.3129581813,0.5011461299,-0.789486
 5098\C,3.2599175009,-0.9461474822,-0.2928998084\C,2.4579425169,-1.0745
 345144,1.0040094671\C,1.0501237635,-0.499268206,0.8111314817\H,0.46796
 32534,-0.5627436264,1.7441625174\N,0.4082258686,-1.3021617738,-0.22506
 80047\C,-0.8377966517,-1.096586578,-0.5113992179\H,-2.0968490151,1.931
 5406618,0.6075083087\H,-0.0012597585,2.670614307,0.8403972622\H,1.3250
 641654,0.6134792054,-1.6736918875\H,1.9852689473,2.180393362,-1.187154
 0642\H,3.8220715286,0.5508998368,-1.7587956731\H,3.9101465292,1.105693
 5547,-0.0920494312\H,2.7850055106,-1.5758289561,-1.0517908639\H,4.2776
 723433,-1.3261035077,-0.144497343\H,2.36945823,-2.127009896,1.29280113
 26\H,2.9643283633,-0.5497639096,1.8259108385\H,-1.2973382254,-1.790996
 7454,-1.2137922881\\Version=ES64L-G16RevC.02\HF=-661.2996337\MP2=-663.
 3342467\RMSD=8.025e-09\RMSF=3.097e-04\Dipole=1.962646,1.6252959,0.6109
 199\PG=C01 [X(C9H13N3O2)]\\@
 The archive entry for this job was punched.


 Everything starts as somebody's daydream.
                           -- Larry Niven
 Job cpu time:       0 days  1 hours 38 minutes  4.4 seconds.
 Elapsed time:       0 days  0 hours 29 minutes 28.6 seconds.
 File lengths (MBytes):  RWF=     36 Int=      0 D2E=      0 Chk=      7 Scr=      1
 Normal termination of Gaussian 16 at Fri Jun 30 07:40:19 2023.
