 Entering Gaussian System, Link 0=g16
 Initial command:
 /home/alexey/programs//g16/l1.exe "/home/alexey/tmp/Gau-1103195.inp" -scrdir="/home/alexey/tmp/"
 Entering Link 1 = /home/alexey/programs//g16/l1.exe PID=   1103200.
  
 Copyright (c) 1988-2021, Gaussian, Inc.  All Rights Reserved.
  
 This is part of the Gaussian(R) 16 program.  It is based on
 the Gaussian(R) 09 system (copyright 2009, Gaussian, Inc.),
 the Gaussian(R) 03 system (copyright 2003, Gaussian, Inc.),
 the Gaussian(R) 98 system (copyright 1998, Gaussian, Inc.),
 the Gaussian(R) 94 system (copyright 1995, Gaussian, Inc.),
 the Gaussian 92(TM) system (copyright 1992, Gaussian, Inc.),
 the Gaussian 90(TM) system (copyright 1990, Gaussian, Inc.),
 the Gaussian 88(TM) system (copyright 1988, Gaussian, Inc.),
 the Gaussian 86(TM) system (copyright 1986, Carnegie Mellon
 University), and the Gaussian 82(TM) system (copyright 1983,
 Carnegie Mellon University). Gaussian is a federally registered
 trademark of Gaussian, Inc.
  
 This software contains proprietary and confidential information,
 including trade secrets, belonging to Gaussian, Inc.
  
 This software is provided under written license and may be
 used, copied, transmitted, or stored only in accord with that
 written license.
  
 The following legend is applicable only to US Government
 contracts under FAR:
  
                    RESTRICTED RIGHTS LEGEND
  
 Use, reproduction and disclosure by the US Government is
 subject to restrictions as set forth in subparagraphs (a)
 and (c) of the Commercial Computer Software - Restricted
 Rights clause in FAR 52.227-19.
  
 Gaussian, Inc.
 340 Quinnipiac St., Bldg. 40, Wallingford CT 06492
  
  
 ---------------------------------------------------------------
 Warning -- This program may not be used in any manner that
 competes with the business of Gaussian, Inc. or will provide
 assistance to any competitor of Gaussian, Inc.  The licensee
 of this program is prohibited from giving any competitor of
 Gaussian, Inc. access to this program.  By using this program,
 the user acknowledges that Gaussian, Inc. is engaged in the
 business of creating and licensing software in the field of
 computational chemistry and represents and warrants to the
 licensee that it is not a competitor of Gaussian, Inc. and that
 it will not use this program in any manner prohibited above.
 ---------------------------------------------------------------
  

 Cite this work as:
 Gaussian 16, Revision C.02,
 M. J. Frisch, G. W. Trucks, H. B. Schlegel, G. E. Scuseria, 
 M. A. Robb, J. R. Cheeseman, G. Scalmani, V. Barone, 
 G. A. Petersson, H. Nakatsuji, X. Li, M. Caricato, A. V. Marenich, 
 J. Bloino, B. G. Janesko, R. Gomperts, B. Mennucci, H. P. Hratchian, 
 J. V. Ortiz, A. F. Izmaylov, J. L. Sonnenberg, D. Williams-Young, 
 F. Ding, F. Lipparini, F. Egidi, J. Goings, B. Peng, A. Petrone, 
 T. Henderson, D. Ranasinghe, V. G. Zakrzewski, J. Gao, N. Rega, 
 G. Zheng, W. Liang, M. Hada, M. Ehara, K. Toyota, R. Fukuda, 
 J. Hasegawa, M. Ishida, T. Nakajima, Y. Honda, O. Kitao, H. Nakai, 
 T. Vreven, K. Throssell, J. A. Montgomery, Jr., J. E. Peralta, 
 F. Ogliaro, M. J. Bearpark, J. J. Heyd, E. N. Brothers, K. N. Kudin, 
 V. N. Staroverov, T. A. Keith, R. Kobayashi, J. Normand, 
 K. Raghavachari, A. P. Rendell, J. C. Burant, S. S. Iyengar, 
 J. Tomasi, M. Cossi, J. M. Millam, M. Klene, C. Adamo, R. Cammi, 
 J. W. Ochterski, R. L. Martin, K. Morokuma, O. Farkas, 
 J. B. Foresman, and D. J. Fox, Gaussian, Inc., Wallingford CT, 2019.
 
 ******************************************
 Gaussian 16:  ES64L-G16RevC.02  7-Dec-2021
                30-Jun-2023 
 ******************************************
 %mem=8GB
 %NPROCS=4
 Will use up to    4 processors via shared memory.
 %NoSave
 ---------------------------------------------------------
 #MP2/6-31G* SCF=Tight Opt=(ModRedun, MaxCycle=20 ) NoSymm
 ---------------------------------------------------------
 1/6=20,18=120,19=15,38=1/1,3;
 2/9=110,12=2,15=1,17=6,18=5,40=1/2;
 3/5=1,6=6,7=1,11=9,25=1,30=1,71=1/1,2,3;
 4//1;
 5/5=2,32=2,38=5/2;
 8/6=4,10=2/1;
 9/15=2,16=-3/6;
 10/5=1,31=1/2;
 6/7=2,8=2,9=2,10=2/1;
 7/12=2,30=1/1,2,3,16;
 1/6=20,18=20,19=15/3(2);
 2/9=110,15=1/2;
 99//99;
 2/9=110,15=1/2;
 3/5=1,6=6,7=1,11=9,25=1,30=1,71=1/1,2,3;
 4/5=5,16=3,69=1/1;
 5/5=2,32=2,38=5/2;
 8/6=4,10=2/1;
 9/15=2,16=-3/6;
 10/5=1,31=1/2;
 7/12=2,30=1/1,2,3,16;
 1/6=20,18=20,19=15/3(-8);
 2/9=110,15=1/2;
 6/7=2,8=2,9=2,10=2/1;
 99/9=10/99;
 --------
 MolName:
 --------
 Symbolic Z-matrix:
 Charge =  0 Multiplicity = 1
 8                    0    -4.02995   0.59331   0.3527 
 7                    0    -3.26003  -0.27324  -0.06345 
 8                    0    -3.63101  -1.36598  -0.48858 
 6                    0    -1.75873   0.01497  -0.0559 
 6                    0    -1.36954   1.28556   0.38432 
 7                    0    -0.0809    1.72678   0.54058 
 6                    0     1.19715   0.9578    0.44428 
 1                    0     1.85673   1.37815   1.24739 
 6                    0     1.97086   1.13851  -0.88554 
 6                    0     3.38032   0.53247  -0.7453 
 6                    0     3.31134  -0.93474  -0.29299 
 6                    0     2.45422  -1.09226   0.98153 
 6                    0     1.02014  -0.53063   0.77969 
 1                    0     0.4653   -0.66292   1.73809 
 7                    0     0.36861  -1.29763  -0.28458 
 6                    0    -0.87044  -1.06225  -0.56809 
 1                    0    -2.15612   1.99968   0.67949 
 1                    0     0.15238   2.72008   0.46849 
 1                    0     1.42549   0.6421   -1.71622 
 1                    0     2.06183   2.21769  -1.13207 
 1                    0     3.9216    0.60266  -1.71414 
 1                    0     3.95407   1.11378   0.01071 
 1                    0     2.86768  -1.54579  -1.11126 
 1                    0     4.33701  -1.32103  -0.10597 
 1                    0     2.39096  -2.16987   1.24889 
 1                    0     2.94453  -0.56251   1.82503 
 1                    0    -1.36747  -1.73969  -1.27911 
 
 The following ModRedundant input section has been read:
 D       1       2       4      16 F                                           
 D       7      13      15      16 F                                           
 D       7       9      10      11 F                                           
 D       9      10      11      12 F                                           
 D       6       7      13      15 F                                           
 

 GradGradGradGradGradGradGradGradGradGradGradGradGradGradGradGradGradGrad
 Berny optimization.
 Initialization pass.
                           ----------------------------
                           !    Initial Parameters    !
                           ! (Angstroms and Degrees)  !
 --------------------------                            --------------------------
 ! Name  Definition              Value          Derivative Info.                !
 --------------------------------------------------------------------------------
 ! R1    R(1,2)                  1.2316         estimate D2E/DX2                !
 ! R2    R(2,3)                  1.2298         estimate D2E/DX2                !
 ! R3    R(2,4)                  1.5287         estimate D2E/DX2                !
 ! R4    R(4,5)                  1.3999         estimate D2E/DX2                !
 ! R5    R(4,16)                 1.4872         estimate D2E/DX2                !
 ! R6    R(5,6)                  1.371          estimate D2E/DX2                !
 ! R7    R(5,17)                 1.1026         estimate D2E/DX2                !
 ! R8    R(6,7)                  1.4947         estimate D2E/DX2                !
 ! R9    R(6,18)                 1.0229         estimate D2E/DX2                !
 ! R10   R(7,8)                  1.121          estimate D2E/DX2                !
 ! R11   R(7,9)                  1.5491         estimate D2E/DX2                !
 ! R12   R(7,13)                 1.536          estimate D2E/DX2                !
 ! R13   R(9,10)                 1.5406         estimate D2E/DX2                !
 ! R14   R(9,19)                 1.1108         estimate D2E/DX2                !
 ! R15   R(9,20)                 1.1107         estimate D2E/DX2                !
 ! R16   R(10,11)                1.5369         estimate D2E/DX2                !
 ! R17   R(10,21)                1.112          estimate D2E/DX2                !
 ! R18   R(10,22)                1.113          estimate D2E/DX2                !
 ! R19   R(11,12)                1.544          estimate D2E/DX2                !
 ! R20   R(11,23)                1.1135         estimate D2E/DX2                !
 ! R21   R(11,24)                1.1118         estimate D2E/DX2                !
 ! R22   R(12,13)                1.5533         estimate D2E/DX2                !
 ! R23   R(12,25)                1.1121         estimate D2E/DX2                !
 ! R24   R(12,26)                1.1102         estimate D2E/DX2                !
 ! R25   R(13,14)                1.1153         estimate D2E/DX2                !
 ! R26   R(13,15)                1.4647         estimate D2E/DX2                !
 ! R27   R(15,16)                1.2927         estimate D2E/DX2                !
 ! R28   R(16,27)                1.1007         estimate D2E/DX2                !
 ! A1    A(1,2,3)              123.6005         estimate D2E/DX2                !
 ! A2    A(1,2,4)              118.6592         estimate D2E/DX2                !
 ! A3    A(3,2,4)              117.7403         estimate D2E/DX2                !
 ! A4    A(2,4,5)              116.468          estimate D2E/DX2                !
 ! A5    A(2,4,16)             116.6354         estimate D2E/DX2                !
 ! A6    A(5,4,16)             126.8464         estimate D2E/DX2                !
 ! A7    A(4,5,6)              126.1039         estimate D2E/DX2                !
 ! A8    A(4,5,17)             118.274          estimate D2E/DX2                !
 ! A9    A(6,5,17)             115.567          estimate D2E/DX2                !
 ! A10   A(5,6,7)              129.1081         estimate D2E/DX2                !
 ! A11   A(5,6,18)             121.2548         estimate D2E/DX2                !
 ! A12   A(7,6,18)             107.4611         estimate D2E/DX2                !
 ! A13   A(6,7,8)              105.3091         estimate D2E/DX2                !
 ! A14   A(6,7,9)              114.9841         estimate D2E/DX2                !
 ! A15   A(6,7,13)             112.7024         estimate D2E/DX2                !
 ! A16   A(8,7,9)              106.1042         estimate D2E/DX2                !
 ! A17   A(8,7,13)             105.9454         estimate D2E/DX2                !
 ! A18   A(9,7,13)             110.981          estimate D2E/DX2                !
 ! A19   A(7,9,10)             109.4451         estimate D2E/DX2                !
 ! A20   A(7,9,19)             110.1582         estimate D2E/DX2                !
 ! A21   A(7,9,20)             110.1689         estimate D2E/DX2                !
 ! A22   A(10,9,19)            109.965          estimate D2E/DX2                !
 ! A23   A(10,9,20)            109.1159         estimate D2E/DX2                !
 ! A24   A(19,9,20)            107.9649         estimate D2E/DX2                !
 ! A25   A(9,10,11)            111.1779         estimate D2E/DX2                !
 ! A26   A(9,10,21)            109.9487         estimate D2E/DX2                !
 ! A27   A(9,10,22)            109.1475         estimate D2E/DX2                !
 ! A28   A(11,10,21)           109.7865         estimate D2E/DX2                !
 ! A29   A(11,10,22)           108.7752         estimate D2E/DX2                !
 ! A30   A(21,10,22)           107.9342         estimate D2E/DX2                !
 ! A31   A(10,11,12)           111.4231         estimate D2E/DX2                !
 ! A32   A(10,11,23)           108.9964         estimate D2E/DX2                !
 ! A33   A(10,11,24)           109.8634         estimate D2E/DX2                !
 ! A34   A(12,11,23)           109.2356         estimate D2E/DX2                !
 ! A35   A(12,11,24)           109.7438         estimate D2E/DX2                !
 ! A36   A(23,11,24)           107.4888         estimate D2E/DX2                !
 ! A37   A(11,12,13)           111.6154         estimate D2E/DX2                !
 ! A38   A(11,12,25)           109.2017         estimate D2E/DX2                !
 ! A39   A(11,12,26)           109.4707         estimate D2E/DX2                !
 ! A40   A(13,12,25)           109.2133         estimate D2E/DX2                !
 ! A41   A(13,12,26)           109.5082         estimate D2E/DX2                !
 ! A42   A(25,12,26)           107.7485         estimate D2E/DX2                !
 ! A43   A(7,13,12)            105.8045         estimate D2E/DX2                !
 ! A44   A(7,13,14)            111.0954         estimate D2E/DX2                !
 ! A45   A(7,13,15)            113.5799         estimate D2E/DX2                !
 ! A46   A(12,13,14)           107.7431         estimate D2E/DX2                !
 ! A47   A(12,13,15)           108.4061         estimate D2E/DX2                !
 ! A48   A(14,13,15)           109.9368         estimate D2E/DX2                !
 ! A49   A(13,15,16)           119.3645         estimate D2E/DX2                !
 ! A50   A(4,16,15)            128.9661         estimate D2E/DX2                !
 ! A51   A(4,16,27)            113.4881         estimate D2E/DX2                !
 ! A52   A(15,16,27)           117.5443         estimate D2E/DX2                !
 ! D1    D(1,2,4,5)             -2.3996         estimate D2E/DX2                !
 ! D2    D(1,2,4,16)           179.9997         Frozen                          !
 ! D3    D(3,2,4,5)            177.587          estimate D2E/DX2                !
 ! D4    D(3,2,4,16)            -0.0136         estimate D2E/DX2                !
 ! D5    D(2,4,5,6)            176.1801         estimate D2E/DX2                !
 ! D6    D(2,4,5,17)            -0.9911         estimate D2E/DX2                !
 ! D7    D(16,4,5,6)            -6.5001         estimate D2E/DX2                !
 ! D8    D(16,4,5,17)          176.3286         estimate D2E/DX2                !
 ! D9    D(2,4,16,15)         -154.2784         estimate D2E/DX2                !
 ! D10   D(2,4,16,27)           25.2701         estimate D2E/DX2                !
 ! D11   D(5,4,16,15)           28.4057         estimate D2E/DX2                !
 ! D12   D(5,4,16,27)         -152.0457         estimate D2E/DX2                !
 ! D13   D(4,5,6,7)             -7.7596         estimate D2E/DX2                !
 ! D14   D(4,5,6,18)           153.2766         estimate D2E/DX2                !
 ! D15   D(17,5,6,7)           169.4788         estimate D2E/DX2                !
 ! D16   D(17,5,6,18)          -29.485          estimate D2E/DX2                !
 ! D17   D(5,6,7,8)           -141.8791         estimate D2E/DX2                !
 ! D18   D(5,6,7,9)            101.7081         estimate D2E/DX2                !
 ! D19   D(5,6,7,13)           -26.8378         estimate D2E/DX2                !
 ! D20   D(18,6,7,8)            55.0523         estimate D2E/DX2                !
 ! D21   D(18,6,7,9)           -61.3605         estimate D2E/DX2                !
 ! D22   D(18,6,7,13)          170.0936         estimate D2E/DX2                !
 ! D23   D(6,7,9,10)           168.7115         estimate D2E/DX2                !
 ! D24   D(6,7,9,19)           -70.269          estimate D2E/DX2                !
 ! D25   D(6,7,9,20)            48.7346         estimate D2E/DX2                !
 ! D26   D(8,7,9,10)            52.7535         estimate D2E/DX2                !
 ! D27   D(8,7,9,19)           173.773          estimate D2E/DX2                !
 ! D28   D(8,7,9,20)           -67.2235         estimate D2E/DX2                !
 ! D29   D(13,7,9,10)          -61.8896         estimate D2E/DX2                !
 ! D30   D(13,7,9,19)           59.1299         estimate D2E/DX2                !
 ! D31   D(13,7,9,20)          178.1334         estimate D2E/DX2                !
 ! D32   D(6,7,13,12)         -166.1881         estimate D2E/DX2                !
 ! D33   D(6,7,13,14)          -49.5298         estimate D2E/DX2                !
 ! D34   D(6,7,13,15)           75.0221         Frozen                          !
 ! D35   D(8,7,13,12)          -51.5312         estimate D2E/DX2                !
 ! D36   D(8,7,13,14)           65.1271         estimate D2E/DX2                !
 ! D37   D(8,7,13,15)         -170.3209         estimate D2E/DX2                !
 ! D38   D(9,7,13,12)           63.2111         estimate D2E/DX2                !
 ! D39   D(9,7,13,14)          179.8694         estimate D2E/DX2                !
 ! D40   D(9,7,13,15)          -55.5786         estimate D2E/DX2                !
 ! D41   D(7,9,10,11)           54.8121         Frozen                          !
 ! D42   D(7,9,10,21)          176.6035         estimate D2E/DX2                !
 ! D43   D(7,9,10,22)          -65.1812         estimate D2E/DX2                !
 ! D44   D(19,9,10,11)         -66.3244         estimate D2E/DX2                !
 ! D45   D(19,9,10,21)          55.467          estimate D2E/DX2                !
 ! D46   D(19,9,10,22)         173.6822         estimate D2E/DX2                !
 ! D47   D(20,9,10,11)         175.4323         estimate D2E/DX2                !
 ! D48   D(20,9,10,21)         -62.7763         estimate D2E/DX2                !
 ! D49   D(20,9,10,22)          55.439          estimate D2E/DX2                !
 ! D50   D(9,10,11,12)         -52.8218         Frozen                          !
 ! D51   D(9,10,11,23)          67.7995         estimate D2E/DX2                !
 ! D52   D(9,10,11,24)        -174.6646         estimate D2E/DX2                !
 ! D53   D(21,10,11,12)       -174.7076         estimate D2E/DX2                !
 ! D54   D(21,10,11,23)        -54.0863         estimate D2E/DX2                !
 ! D55   D(21,10,11,24)         63.4496         estimate D2E/DX2                !
 ! D56   D(22,10,11,12)         67.3922         estimate D2E/DX2                !
 ! D57   D(22,10,11,23)       -171.9865         estimate D2E/DX2                !
 ! D58   D(22,10,11,24)        -54.4507         estimate D2E/DX2                !
 ! D59   D(10,11,12,13)         56.5905         estimate D2E/DX2                !
 ! D60   D(10,11,12,25)        177.4429         estimate D2E/DX2                !
 ! D61   D(10,11,12,26)        -64.8141         estimate D2E/DX2                !
 ! D62   D(23,11,12,13)        -63.8904         estimate D2E/DX2                !
 ! D63   D(23,11,12,25)         56.9621         estimate D2E/DX2                !
 ! D64   D(23,11,12,26)        174.7051         estimate D2E/DX2                !
 ! D65   D(24,11,12,13)        178.5025         estimate D2E/DX2                !
 ! D66   D(24,11,12,25)        -60.645          estimate D2E/DX2                !
 ! D67   D(24,11,12,26)         57.098          estimate D2E/DX2                !
 ! D68   D(11,12,13,7)         -60.2837         estimate D2E/DX2                !
 ! D69   D(11,12,13,14)       -179.1857         estimate D2E/DX2                !
 ! D70   D(11,12,13,15)         61.8808         estimate D2E/DX2                !
 ! D71   D(25,12,13,7)         178.8706         estimate D2E/DX2                !
 ! D72   D(25,12,13,14)         59.9685         estimate D2E/DX2                !
 ! D73   D(25,12,13,15)        -58.9649         estimate D2E/DX2                !
 ! D74   D(26,12,13,7)          61.0991         estimate D2E/DX2                !
 ! D75   D(26,12,13,14)        -57.8029         estimate D2E/DX2                !
 ! D76   D(26,12,13,15)       -176.7364         estimate D2E/DX2                !
 ! D77   D(7,13,15,16)         -67.1602         Frozen                          !
 ! D78   D(12,13,15,16)        175.5536         estimate D2E/DX2                !
 ! D79   D(14,13,15,16)         58.0141         estimate D2E/DX2                !
 ! D80   D(13,15,16,4)           7.242          estimate D2E/DX2                !
 ! D81   D(13,15,16,27)       -172.291          estimate D2E/DX2                !
 --------------------------------------------------------------------------------
 Trust Radius=3.00D-01 FncErr=1.00D-07 GrdErr=1.00D-07 EigMax=2.50D+02 EigMin=1.00D-04
 Number of steps in this run=     20 maximum allowed number of steps=    162.
 GradGradGradGradGradGradGradGradGradGradGradGradGradGradGradGradGradGrad

                          Input orientation:                          
 ---------------------------------------------------------------------
 Center     Atomic      Atomic             Coordinates (Angstroms)
 Number     Number       Type             X           Y           Z
 ---------------------------------------------------------------------
      1          8           0       -4.029950    0.593310    0.352700
      2          7           0       -3.260030   -0.273240   -0.063450
      3          8           0       -3.631010   -1.365980   -0.488580
      4          6           0       -1.758730    0.014970   -0.055900
      5          6           0       -1.369540    1.285560    0.384320
      6          7           0       -0.080900    1.726780    0.540580
      7          6           0        1.197150    0.957800    0.444280
      8          1           0        1.856730    1.378150    1.247390
      9          6           0        1.970860    1.138510   -0.885540
     10          6           0        3.380320    0.532470   -0.745300
     11          6           0        3.311340   -0.934740   -0.292990
     12          6           0        2.454220   -1.092260    0.981530
     13          6           0        1.020140   -0.530630    0.779690
     14          1           0        0.465300   -0.662920    1.738090
     15          7           0        0.368610   -1.297630   -0.284580
     16          6           0       -0.870440   -1.062250   -0.568090
     17          1           0       -2.156120    1.999680    0.679490
     18          1           0        0.152380    2.720080    0.468490
     19          1           0        1.425490    0.642100   -1.716220
     20          1           0        2.061830    2.217690   -1.132070
     21          1           0        3.921600    0.602660   -1.714140
     22          1           0        3.954070    1.113780    0.010710
     23          1           0        2.867680   -1.545790   -1.111260
     24          1           0        4.337010   -1.321030   -0.105970
     25          1           0        2.390960   -2.169870    1.248890
     26          1           0        2.944530   -0.562510    1.825030
     27          1           0       -1.367470   -1.739690   -1.279110
 ---------------------------------------------------------------------
                    Distance matrix (angstroms):
                    1          2          3          4          5
     1  O    0.000000
     2  N    1.231611   0.000000
     3  O    2.169268   1.229814   0.000000
     4  C    2.379048   1.528733   2.366362   0.000000
     5  C    2.749180   2.490845   3.592613   1.399879   0.000000
     6  N    4.112791   3.804182   4.819504   2.470060   1.371016
     7  C    5.240593   4.651849   5.438870   3.142664   2.588227
     8  H    6.005784   5.534133   6.376451   4.077791   3.341000
     9  C    6.151439   5.480062   6.149065   3.982523   3.576652
    10  C    7.491422   6.723714   7.268340   5.210846   4.940077
    11  C    7.526380   6.608568   6.958480   5.163697   5.224856
    12  C    6.729118   5.866467   6.266272   4.477853   4.542227
    13  C    5.191240   4.370010   4.892802   2.952627   3.027447
    14  H    4.868746   4.156378   4.715094   2.936706   2.999317
    15  N    4.830022   3.776943   4.005402   2.510137   3.184566
    16  C    3.683916   2.566581   2.778367   1.487212   2.582324
    17  H    2.365567   2.633770   3.855821   2.153553   1.102634
    18  H    4.693447   4.570281   5.650302   3.353349   2.093125
    19  H    5.834778   5.052088   5.577426   3.645437   3.555067
    20  H    6.477109   5.972342   6.757603   4.539471   3.865567
    21  H    8.215781   7.420767   7.900599   5.946536   5.732892
    22  H    8.008272   7.346602   7.995745   5.817895   5.339468
    23  H    7.368597   6.345559   6.530929   4.995340   5.311058
    24  H    8.595411   7.669074   7.977327   6.240629   6.292806
    25  H    7.047440   6.103534   6.318953   4.867847   5.179656
    26  H    7.221291   6.492041   7.016843   5.098238   4.909400
    27  H    3.898011   2.685161   2.426563   2.174433   3.452411
                    6          7          8          9         10
     6  N    0.000000
     7  C    1.494662   0.000000
     8  H    2.091778   1.121038   0.000000
     9  C    2.567021   1.549098   2.149382   0.000000
    10  C    3.880710   2.522348   2.647133   1.540626   0.000000
    11  C    4.391562   2.931736   3.136578   2.538970   1.536895
    12  C    3.816839   2.464063   2.555504   2.948885   2.545457
    13  C    2.522967   1.535987   2.135900   2.542221   3.004368
    14  H    2.728192   2.199155   2.518498   3.520695   4.011674
    15  N    3.167018   2.510912   3.423628   2.977102   3.554142
    16  C    3.103419   3.062748   4.085214   3.607923   4.543511
    17  H    2.097691   3.519269   4.100216   4.496988   5.902110
    18  H    1.022869   2.048844   2.304836   2.764350   4.083934
    19  H    2.922138   2.195351   3.083946   1.110802   2.185421
    20  H    2.762253   2.195421   2.531546   1.110712   2.174390
    21  H    4.729420   3.493927   3.692659   2.186115   1.112008
    22  H    4.115521   2.795160   2.449103   2.176464   1.112952
    23  H    4.704510   3.387970   3.890331   2.839138   2.171610
    24  H    5.406025   3.918490   3.907550   3.500819   2.181619
    25  H    4.668584   3.443094   3.588015   3.959502   3.501181
    26  H    4.005482   2.696507   2.298508   3.344950   2.827630
    27  H    4.121037   4.101683   5.147776   4.425311   5.290480
                   11         12         13         14         15
    11  C    0.000000
    12  C    1.543978   0.000000
    13  C    2.561942   1.553304   0.000000
    14  H    3.507010   2.170834   1.115293   0.000000
    15  N    2.965033   2.448465   1.464736   2.122122   0.000000
    16  C    4.192758   3.668186   2.381895   2.694834   1.292682
    17  H    6.280896   5.559367   4.062159   3.883544   4.263326
    18  H    4.890459   4.482813   3.378900   3.626912   4.093393
    19  H    2.840500   3.368107   2.787323   3.815403   2.632326
    20  H    3.493300   3.946776   3.506167   4.368597   3.992832
    21  H    2.180753   3.506080   3.990239   5.046345   4.275334
    22  H    2.168356   2.838777   3.450125   4.279255   4.331007
    23  H    1.113455   2.180919   2.831898   3.830102   2.643924
    24  H    1.111843   2.186296   3.522890   4.338641   3.972486
    25  H    2.179459   1.112082   2.187785   2.493668   2.683698
    26  H    2.181539   1.110194   2.190212   2.482785   3.409724
    27  H    4.848880   4.487201   3.376561   3.690796   2.049019
                   16         17         18         19         20
    16  C    0.000000
    17  H    3.547512   0.000000
    18  H    4.052984   2.427482   0.000000
    19  H    3.081283   4.517785   3.272884   0.000000
    20  H    4.435571   4.595691   2.541690   1.796843   0.000000
    21  H    5.200866   6.679806   4.842970   2.496422   2.530982
    22  H    5.324097   6.210194   4.152422   3.098142   2.470857
    23  H    3.808200   6.404351   5.297746   2.689377   3.848845
    24  H    5.234315   7.335175   5.845657   3.863125   4.330342
    25  H    3.894222   6.195587   5.434324   4.198950   5.002797
    26  H    4.531088   5.821830   4.517931   4.037204   4.153687
    27  H    1.100688   4.294295   5.025296   3.696568   5.238566
                   21         22         23         24         25
    21  H    0.000000
    22  H    1.799279   0.000000
    23  H    2.467802   3.084213   0.000000
    24  H    2.541527   2.467500   1.794451   0.000000
    25  H    4.336972   3.841713   2.487377   2.518588   0.000000
    26  H    3.852014   2.668497   3.097506   2.498622   1.794988
    27  H    5.800872   6.174521   4.242908   5.838889   4.549905
                   26         27
    26  H    0.000000
    27  H    5.441947   0.000000
 Symmetry turned off by external request.
 Stoichiometry    C9H13N3O2
 Framework group  C1[X(C9H13N3O2)]
 Deg. of freedom    75
 Full point group                 C1      NOp   1
 Rotational constants (GHZ):           1.6766473           0.3991245           0.3555119
 Standard basis: 6-31G(d) (6D, 7F)
   236 basis functions,   444 primitive gaussians,   236 cartesian basis functions
    52 alpha electrons       52 beta electrons
       nuclear repulsion energy       917.3485894204 Hartrees.
 NAtoms=   27 NActive=   27 NUniq=   27 SFac= 1.00D+00 NAtFMM=   60 NAOKFM=F Big=F
 Integral buffers will be    131072 words long.
 Raffenetti 1 integral format.
 Two-electron integral symmetry is turned off.
 One-electron integrals computed using PRISM.
 NBasis=   236 RedAO= T EigKep=  1.24D-03  NBF=   236
 NBsUse=   236 1.00D-06 EigRej= -1.00D+00 NBFU=   236
 ExpMin= 1.61D-01 ExpMax= 5.48D+03 ExpMxC= 8.25D+02 IAcc=3 IRadAn=         5 AccDes= 0.00D+00
 Harris functional with IExCor=  205 and IRadAn=       5 diagonalized for initial guess.
 HarFok:  IExCor=  205 AccDes= 0.00D+00 IRadAn=         5 IDoV= 1 UseB2=F ITyADJ=14
 ICtDFT=  3500011 ScaDFX=  1.000000  1.000000  1.000000  1.000000
 FoFCou: FMM=F IPFlag=           0 FMFlag=      100000 FMFlg1=           0
         NFxFlg=           0 DoJE=T BraDBF=F KetDBF=T FulRan=T
         wScrn=  0.000000 ICntrl=       500 IOpCl=  0 I1Cent=   200000004 NGrid=           0
         NMat0=    1 NMatS0=      1 NMatT0=    0 NMatD0=    1 NMtDS0=    0 NMtDT0=    0
 Symmetry not used in FoFCou.
 Keep R1 ints in memory in canonical form, NReq=397720213.
 Requested convergence on RMS density matrix=1.00D-08 within 128 cycles.
 Requested convergence on MAX density matrix=1.00D-06.
 Requested convergence on             energy=1.00D-06.
 No special actions if energy rises.
 SCF Done:  E(RHF) =  -661.281037425     A.U. after   16 cycles
            NFock= 16  Conv=0.53D-08     -V/T= 2.0037
 ExpMin= 1.61D-01 ExpMax= 5.48D+03 ExpMxC= 8.25D+02 IAcc=3 IRadAn=         5 AccDes= 0.00D+00
 HarFok:  IExCor=  205 AccDes= 0.00D+00 IRadAn=         5 IDoV=-2 UseB2=F ITyADJ=14
 ICtDFT= 12500011 ScaDFX=  1.000000  1.000000  1.000000  1.000000
 Range of M.O.s used for correlation:    15   236
 NBasis=   236 NAE=    52 NBE=    52 NFC=    14 NFV=     0
 NROrb=    222 NOA=    38 NOB=    38 NVA=   184 NVB=   184
 Fully direct method using O(ONN) memory.
 JobTyp=1 Pass  1:  I=  15 to  52 NPSUse=  4 ParTrn=T ParDer=T DoDerP=T.
 Spin components of T(2) and E(2):
     alpha-alpha T2 =       0.9198484563D-01 E2=     -0.2717719333D+00
     alpha-beta  T2 =       0.4996789983D+00 E2=     -0.1493754397D+01
     beta-beta   T2 =       0.9198484563D-01 E2=     -0.2717719333D+00
 ANorm=    0.1297554889D+01
 E2 =    -0.2037298263D+01 EUMP2 =    -0.66331833568831D+03
          IDoAtm=111111111111111111111111111
          Differentiating once with respect to electric field.
                with respect to dipole field.
          Differentiating once with respect to nuclear coordinates.
 Keep R1 ints in memory in canonical form, NReq=397723379.
          There are     1 degrees of freedom in the 1st order CPHF.  IDoFFX=0 NUNeed=     1.
 LinEq1:  Iter=  0 NonCon=     1 RMS=4.62D-03 Max=1.25D-01 NDo=     1
 AX will form     1 AO Fock derivatives at one time.
 LinEq1:  Iter=  1 NonCon=     1 RMS=1.57D-03 Max=3.15D-02 NDo=     1
 LinEq1:  Iter=  2 NonCon=     1 RMS=6.41D-04 Max=1.98D-02 NDo=     1
 LinEq1:  Iter=  3 NonCon=     1 RMS=2.94D-04 Max=9.12D-03 NDo=     1
 LinEq1:  Iter=  4 NonCon=     1 RMS=9.03D-05 Max=2.09D-03 NDo=     1
 LinEq1:  Iter=  5 NonCon=     1 RMS=3.75D-05 Max=1.90D-03 NDo=     1
 LinEq1:  Iter=  6 NonCon=     1 RMS=1.55D-05 Max=5.91D-04 NDo=     1
 LinEq1:  Iter=  7 NonCon=     1 RMS=5.99D-06 Max=1.07D-04 NDo=     1
 LinEq1:  Iter=  8 NonCon=     1 RMS=2.40D-06 Max=6.19D-05 NDo=     1
 LinEq1:  Iter=  9 NonCon=     1 RMS=9.07D-07 Max=2.60D-05 NDo=     1
 LinEq1:  Iter= 10 NonCon=     1 RMS=4.37D-07 Max=1.43D-05 NDo=     1
 LinEq1:  Iter= 11 NonCon=     1 RMS=1.53D-07 Max=5.79D-06 NDo=     1
 LinEq1:  Iter= 12 NonCon=     1 RMS=5.30D-08 Max=8.28D-07 NDo=     1
 LinEq1:  Iter= 13 NonCon=     1 RMS=1.66D-08 Max=3.10D-07 NDo=     1
 LinEq1:  Iter= 14 NonCon=     1 RMS=5.09D-09 Max=1.18D-07 NDo=     1
 LinEq1:  Iter= 15 NonCon=     1 RMS=1.85D-09 Max=3.87D-08 NDo=     1
 LinEq1:  Iter= 16 NonCon=     1 RMS=7.21D-10 Max=1.28D-08 NDo=     1
 LinEq1:  Iter= 17 NonCon=     1 RMS=2.45D-10 Max=3.70D-09 NDo=     1
 LinEq1:  Iter= 18 NonCon=     1 RMS=8.56D-11 Max=1.11D-09 NDo=     1
 LinEq1:  Iter= 19 NonCon=     0 RMS=2.81D-11 Max=3.86D-10 NDo=     1
 Linear equations converged to 1.000D-10 1.000D-09 after    19 iterations.
 End of Minotr F.D. properties file   721 does not exist.
 End of Minotr F.D. properties file   722 does not exist.
 End of Minotr F.D. properties file   788 does not exist.

 **********************************************************************

            Population analysis using the SCF Density.

 **********************************************************************

 Alpha  occ. eigenvalues --  -20.59790 -20.59411 -15.85313 -15.63365 -15.56840
 Alpha  occ. eigenvalues --  -11.35885 -11.30428 -11.30115 -11.30086 -11.27685
 Alpha  occ. eigenvalues --  -11.24634 -11.23883 -11.23402 -11.22855  -1.58486
 Alpha  occ. eigenvalues --   -1.37980  -1.28594  -1.22727  -1.13270  -1.08359
 Alpha  occ. eigenvalues --   -1.01812  -1.00668  -0.93581  -0.88963  -0.84939
 Alpha  occ. eigenvalues --   -0.81528  -0.78020  -0.76952  -0.74315  -0.71140
 Alpha  occ. eigenvalues --   -0.70219  -0.69896  -0.67439  -0.64339  -0.63266
 Alpha  occ. eigenvalues --   -0.61640  -0.60367  -0.57424  -0.56469  -0.54882
 Alpha  occ. eigenvalues --   -0.53587  -0.50749  -0.49269  -0.48424  -0.47872
 Alpha  occ. eigenvalues --   -0.47677  -0.46180  -0.45680  -0.44035  -0.42086
 Alpha  occ. eigenvalues --   -0.39956  -0.33786
 Alpha virt. eigenvalues --    0.07367   0.11832   0.18145   0.21410   0.23349
 Alpha virt. eigenvalues --    0.24200   0.26273   0.27749   0.28557   0.28873
 Alpha virt. eigenvalues --    0.30059   0.31171   0.31844   0.32276   0.33351
 Alpha virt. eigenvalues --    0.33785   0.34171   0.35446   0.37561   0.38575
 Alpha virt. eigenvalues --    0.40601   0.41843   0.44537   0.45286   0.45685
 Alpha virt. eigenvalues --    0.45949   0.49789   0.53222   0.57593   0.59071
 Alpha virt. eigenvalues --    0.63262   0.69155   0.69254   0.72206   0.73979
 Alpha virt. eigenvalues --    0.74919   0.75699   0.75859   0.77783   0.79314
 Alpha virt. eigenvalues --    0.80325   0.83699   0.85031   0.85393   0.87956
 Alpha virt. eigenvalues --    0.89065   0.90133   0.90824   0.91927   0.93877
 Alpha virt. eigenvalues --    0.95269   0.97182   0.98932   1.00340   1.01972
 Alpha virt. eigenvalues --    1.02688   1.05108   1.06443   1.06995   1.08719
 Alpha virt. eigenvalues --    1.09394   1.10465   1.11403   1.11965   1.13260
 Alpha virt. eigenvalues --    1.13805   1.14179   1.15466   1.16392   1.17333
 Alpha virt. eigenvalues --    1.18107   1.20061   1.21202   1.22406   1.22884
 Alpha virt. eigenvalues --    1.23426   1.25059   1.25764   1.26336   1.27679
 Alpha virt. eigenvalues --    1.29379   1.31477   1.33054   1.36023   1.39550
 Alpha virt. eigenvalues --    1.43013   1.46220   1.47580   1.49922   1.52148
 Alpha virt. eigenvalues --    1.54616   1.57482   1.59170   1.60833   1.67217
 Alpha virt. eigenvalues --    1.68425   1.69833   1.72811   1.73103   1.76918
 Alpha virt. eigenvalues --    1.77665   1.80660   1.84388   1.89154   1.92865
 Alpha virt. eigenvalues --    1.94377   1.95835   1.98374   1.98968   2.01211
 Alpha virt. eigenvalues --    2.02305   2.03235   2.06105   2.08771   2.11549
 Alpha virt. eigenvalues --    2.13020   2.13614   2.17755   2.18970   2.19421
 Alpha virt. eigenvalues --    2.20832   2.22346   2.24007   2.25173   2.26448
 Alpha virt. eigenvalues --    2.29129   2.32234   2.33662   2.35713   2.35818
 Alpha virt. eigenvalues --    2.38392   2.40000   2.41766   2.43529   2.46351
 Alpha virt. eigenvalues --    2.48588   2.50141   2.50449   2.56532   2.57410
 Alpha virt. eigenvalues --    2.60768   2.62715   2.66018   2.68442   2.68715
 Alpha virt. eigenvalues --    2.69695   2.70213   2.74729   2.76905   2.81250
 Alpha virt. eigenvalues --    2.84990   2.86595   2.89628   2.91792   2.94647
 Alpha virt. eigenvalues --    2.97893   2.98675   3.02400   3.03352   3.05712
 Alpha virt. eigenvalues --    3.06949   3.12630   3.19328   3.22737   3.27087
 Alpha virt. eigenvalues --    3.31171   3.33772   3.37572   3.43383   3.59842
 Alpha virt. eigenvalues --    4.10233   4.23709   4.32052   4.37306   4.43579
 Alpha virt. eigenvalues --    4.52732   4.59635   4.60198   4.70862   4.77862
 Alpha virt. eigenvalues --    4.96311   4.99232   5.02774   5.09926
          Condensed to atoms (all electrons):
               1          2          3          4          5          6
     1  O    8.329924   0.311276  -0.090277  -0.087851   0.007835   0.000461
     2  N    0.311276   5.676324   0.312473   0.267028  -0.046208   0.000841
     3  O   -0.090277   0.312473   8.302711  -0.078929   0.003515  -0.000012
     4  C   -0.087851   0.267028  -0.078929   5.245433   0.567183  -0.047784
     5  C    0.007835  -0.046208   0.003515   0.567183   4.671483   0.307842
     6  N    0.000461   0.000841  -0.000012  -0.047784   0.307842   7.189577
     7  C    0.000003  -0.000094   0.000002   0.004158  -0.029535   0.198402
     8  H   -0.000000   0.000002  -0.000000  -0.000188   0.002322  -0.050058
     9  C    0.000000  -0.000003  -0.000000   0.000488   0.001630  -0.056076
    10  C   -0.000000   0.000000  -0.000000  -0.000019  -0.000061   0.003329
    11  C   -0.000000  -0.000000  -0.000000  -0.000015   0.000015  -0.000154
    12  C   -0.000000   0.000002  -0.000000  -0.000099  -0.000123   0.003595
    13  C   -0.000004  -0.000027  -0.000016  -0.010658   0.000525  -0.044341
    14  H   -0.000000  -0.000058  -0.000001   0.003033   0.004905  -0.005606
    15  N   -0.000009   0.001550   0.000246  -0.061129  -0.003933   0.001880
    16  C    0.002105  -0.027270   0.002957   0.318528  -0.041939  -0.001374
    17  H    0.012209  -0.004236   0.000136  -0.027293   0.377274  -0.034075
    18  H    0.000007  -0.000034   0.000000   0.000875  -0.024206   0.328298
    19  H    0.000000  -0.000000   0.000000  -0.000754   0.000673   0.000642
    20  H    0.000000  -0.000000   0.000000  -0.000027   0.000034  -0.001726
    21  H    0.000000  -0.000000  -0.000000   0.000000   0.000001  -0.000059
    22  H   -0.000000   0.000000  -0.000000  -0.000000  -0.000002  -0.000098
    23  H    0.000000  -0.000000   0.000000   0.000025  -0.000000  -0.000024
    24  H    0.000000   0.000000   0.000000   0.000000  -0.000000   0.000004
    25  H    0.000000  -0.000000   0.000000   0.000019  -0.000001  -0.000071
    26  H    0.000000  -0.000000   0.000000   0.000006  -0.000001  -0.000067
    27  H    0.000026  -0.000366   0.005850  -0.064496   0.002035   0.000038
               7          8          9         10         11         12
     1  O    0.000003  -0.000000   0.000000  -0.000000  -0.000000  -0.000000
     2  N   -0.000094   0.000002  -0.000003   0.000000  -0.000000   0.000002
     3  O    0.000002  -0.000000  -0.000000  -0.000000  -0.000000  -0.000000
     4  C    0.004158  -0.000188   0.000488  -0.000019  -0.000015  -0.000099
     5  C   -0.029535   0.002322   0.001630  -0.000061   0.000015  -0.000123
     6  N    0.198402  -0.050058  -0.056076   0.003329  -0.000154   0.003595
     7  C    5.003184   0.416762   0.340704  -0.049306  -0.007714  -0.064172
     8  H    0.416762   0.547519  -0.060614   0.001484  -0.000335  -0.002818
     9  C    0.340704  -0.060614   5.181365   0.317907  -0.053039  -0.006244
    10  C   -0.049306   0.001484   0.317907   5.126699   0.332762  -0.060133
    11  C   -0.007714  -0.000335  -0.053039   0.332762   5.123921   0.330656
    12  C   -0.064172  -0.002818  -0.006244  -0.060133   0.330656   5.136948
    13  C    0.332520  -0.040441  -0.050348  -0.001738  -0.047870   0.368240
    14  H   -0.040181  -0.000940   0.003863  -0.000391   0.003956  -0.040717
    15  N   -0.058368   0.004055  -0.012895   0.001458  -0.007725  -0.074180
    16  C   -0.002268   0.000019  -0.000883  -0.000024   0.000003   0.002487
    17  H    0.001420  -0.000016  -0.000067   0.000001   0.000000   0.000001
    18  H   -0.028356  -0.002656   0.000836  -0.000120   0.000011  -0.000135
    19  H   -0.034984   0.004099   0.385937  -0.032541  -0.002266   0.000633
    20  H   -0.041666  -0.001857   0.397233  -0.037372   0.004140  -0.000361
    21  H    0.004042  -0.000080  -0.035832   0.400151  -0.035839   0.004210
    22  H   -0.004214   0.003511  -0.045697   0.395978  -0.045622  -0.001228
    23  H    0.000430   0.000033  -0.002005  -0.040089   0.396695  -0.036627
    24  H   -0.000141  -0.000098   0.004396  -0.038484   0.400294  -0.037868
    25  H    0.004982  -0.000005  -0.000369   0.004098  -0.033931   0.395427
    26  H   -0.004447   0.001606   0.001040  -0.002402  -0.042324   0.394700
    27  H   -0.000399   0.000009  -0.000059   0.000005   0.000005  -0.000018
              13         14         15         16         17         18
     1  O   -0.000004  -0.000000  -0.000009   0.002105   0.012209   0.000007
     2  N   -0.000027  -0.000058   0.001550  -0.027270  -0.004236  -0.000034
     3  O   -0.000016  -0.000001   0.000246   0.002957   0.000136   0.000000
     4  C   -0.010658   0.003033  -0.061129   0.318528  -0.027293   0.000875
     5  C    0.000525   0.004905  -0.003933  -0.041939   0.377274  -0.024206
     6  N   -0.044341  -0.005606   0.001880  -0.001374  -0.034075   0.328298
     7  C    0.332520  -0.040181  -0.058368  -0.002268   0.001420  -0.028356
     8  H   -0.040441  -0.000940   0.004055   0.000019  -0.000016  -0.002656
     9  C   -0.050348   0.003863  -0.012895  -0.000883  -0.000067   0.000836
    10  C   -0.001738  -0.000391   0.001458  -0.000024   0.000001  -0.000120
    11  C   -0.047870   0.003956  -0.007725   0.000003   0.000000   0.000011
    12  C    0.368240  -0.040717  -0.074180   0.002487   0.000001  -0.000135
    13  C    5.024703   0.402145   0.239428  -0.069376  -0.000040   0.003669
    14  H    0.402145   0.519329  -0.035728  -0.004951   0.000066   0.000008
    15  N    0.239428  -0.035728   6.936457   0.587575  -0.000062  -0.000117
    16  C   -0.069376  -0.004951   0.587575   4.703968   0.001624  -0.000224
    17  H   -0.000040   0.000066  -0.000062   0.001624   0.385977  -0.001828
    18  H    0.003669   0.000008  -0.000117  -0.000224  -0.001828   0.324229
    19  H   -0.006281   0.000065   0.006951   0.002527   0.000011  -0.000127
    20  H    0.003861  -0.000049   0.000079  -0.000031  -0.000001   0.002870
    21  H   -0.000376   0.000009  -0.000029   0.000002  -0.000000  -0.000000
    22  H    0.000318  -0.000044   0.000002  -0.000001   0.000000   0.000002
    23  H   -0.005863   0.000008   0.006769   0.000062   0.000000   0.000000
    24  H    0.004141  -0.000058   0.000044   0.000005   0.000000  -0.000000
    25  H   -0.034466  -0.002657   0.000760  -0.000063  -0.000000   0.000002
    26  H   -0.044824  -0.000913   0.004190  -0.000055   0.000000  -0.000001
    27  H    0.004840  -0.000177  -0.040288   0.402076  -0.000060   0.000002
              19         20         21         22         23         24
     1  O    0.000000   0.000000   0.000000  -0.000000   0.000000   0.000000
     2  N   -0.000000  -0.000000  -0.000000   0.000000  -0.000000   0.000000
     3  O    0.000000   0.000000  -0.000000  -0.000000   0.000000   0.000000
     4  C   -0.000754  -0.000027   0.000000  -0.000000   0.000025   0.000000
     5  C    0.000673   0.000034   0.000001  -0.000002  -0.000000  -0.000000
     6  N    0.000642  -0.001726  -0.000059  -0.000098  -0.000024   0.000004
     7  C   -0.034984  -0.041666   0.004042  -0.004214   0.000430  -0.000141
     8  H    0.004099  -0.001857  -0.000080   0.003511   0.000033  -0.000098
     9  C    0.385937   0.397233  -0.035832  -0.045697  -0.002005   0.004396
    10  C   -0.032541  -0.037372   0.400151   0.395978  -0.040089  -0.038484
    11  C   -0.002266   0.004140  -0.035839  -0.045622   0.396695   0.400294
    12  C    0.000633  -0.000361   0.004210  -0.001228  -0.036627  -0.037868
    13  C   -0.006281   0.003861  -0.000376   0.000318  -0.005863   0.004141
    14  H    0.000065  -0.000049   0.000009  -0.000044   0.000008  -0.000058
    15  N    0.006951   0.000079  -0.000029   0.000002   0.006769   0.000044
    16  C    0.002527  -0.000031   0.000002  -0.000001   0.000062   0.000005
    17  H    0.000011  -0.000001  -0.000000   0.000000   0.000000   0.000000
    18  H   -0.000127   0.002870  -0.000000   0.000002   0.000000  -0.000000
    19  H    0.506699  -0.024035  -0.002593   0.003756   0.001641  -0.000069
    20  H   -0.024035   0.550298  -0.002614  -0.002968  -0.000049  -0.000090
    21  H   -0.002593  -0.002614   0.526050  -0.024694  -0.002813  -0.002059
    22  H    0.003756  -0.002968  -0.024694   0.568821   0.004061  -0.003596
    23  H    0.001641  -0.000049  -0.002813   0.004061   0.509607  -0.024990
    24  H   -0.000069  -0.000090  -0.002059  -0.003596  -0.024990   0.541038
    25  H   -0.000027   0.000011  -0.000086  -0.000082  -0.002094  -0.002380
    26  H    0.000023  -0.000035  -0.000074   0.002466   0.003821  -0.002769
    27  H    0.000074  -0.000000  -0.000000   0.000000  -0.000022  -0.000000
              25         26         27
     1  O    0.000000   0.000000   0.000026
     2  N   -0.000000  -0.000000  -0.000366
     3  O    0.000000   0.000000   0.005850
     4  C    0.000019   0.000006  -0.064496
     5  C   -0.000001  -0.000001   0.002035
     6  N   -0.000071  -0.000067   0.000038
     7  C    0.004982  -0.004447  -0.000399
     8  H   -0.000005   0.001606   0.000009
     9  C   -0.000369   0.001040  -0.000059
    10  C    0.004098  -0.002402   0.000005
    11  C   -0.033931  -0.042324   0.000005
    12  C    0.395427   0.394700  -0.000018
    13  C   -0.034466  -0.044824   0.004840
    14  H   -0.002657  -0.000913  -0.000177
    15  N    0.000760   0.004190  -0.040288
    16  C   -0.000063  -0.000055   0.402076
    17  H   -0.000000   0.000000  -0.000060
    18  H    0.000002  -0.000001   0.000002
    19  H   -0.000027   0.000023   0.000074
    20  H    0.000011  -0.000035  -0.000000
    21  H   -0.000086  -0.000074  -0.000000
    22  H   -0.000082   0.002466   0.000000
    23  H   -0.002094   0.003821  -0.000022
    24  H   -0.002380  -0.002769  -0.000000
    25  H    0.510510  -0.023102  -0.000010
    26  H   -0.023102   0.560950   0.000001
    27  H   -0.000010   0.000001   0.447875
 Mulliken charges:
               1
     1  O   -0.485705
     2  N    0.508800
     3  O   -0.458654
     4  C   -0.027533
     5  C    0.198737
     6  N   -0.793387
     7  C    0.059233
     8  H    0.178687
     9  C   -0.311267
    10  C   -0.321190
    11  C   -0.315623
    12  C   -0.312176
    13  C   -0.027720
    14  H    0.195084
    15  N   -0.496982
    16  C    0.124521
    17  H    0.288961
    18  H    0.396993
    19  H    0.189946
    20  H    0.154355
    21  H    0.172682
    22  H    0.149332
    23  H    0.191423
    24  H    0.162679
    25  H    0.183534
    26  H    0.152210
    27  H    0.243058
 Sum of Mulliken charges =  -0.00000
 Mulliken charges with hydrogens summed into heavy atoms:
               1
     1  O   -0.485705
     2  N    0.508800
     3  O   -0.458654
     4  C   -0.027533
     5  C    0.487698
     6  N   -0.396394
     7  C    0.237921
     9  C    0.033034
    10  C    0.000823
    11  C    0.038479
    12  C    0.023569
    13  C    0.167364
    15  N   -0.496982
    16  C    0.367579
 Electronic spatial extent (au):  <R**2>=           3127.5314
 Charge=             -0.0000 electrons
 Dipole moment (field-independent basis, Debye):
    X=              5.3690    Y=              4.4502    Z=              0.8948  Tot=              7.0307
 Quadrupole moment (field-independent basis, Debye-Ang):
   XX=           -105.5151   YY=            -79.8000   ZZ=            -82.7023
   XY=             -2.0835   XZ=              0.9564   YZ=             -0.4156
 Traceless Quadrupole moment (field-independent basis, Debye-Ang):
   XX=            -16.1759   YY=              9.5391   ZZ=              6.6368
   XY=             -2.0835   XZ=              0.9564   YZ=             -0.4156
 Octapole moment (field-independent basis, Debye-Ang**2):
  XXX=            101.7587  YYY=             35.0564  ZZZ=             -3.5877  XYY=             -2.7288
  XXY=             12.4092  XXZ=              0.2134  XZZ=             -6.7372  YZZ=             -1.7609
  YYZ=              5.8721  XYZ=              1.5328
 Hexadecapole moment (field-independent basis, Debye-Ang**3):
 XXXX=          -3563.3887 YYYY=           -613.2572 ZZZZ=           -305.7247 XXXY=            -47.7626
 XXXZ=             27.9073 YYYX=            -21.7218 YYYZ=             -6.6564 ZZZX=             21.5966
 ZZZY=            -14.4898 XXYY=           -649.8821 XXZZ=           -552.0810 YYZZ=           -163.8060
 XXYZ=            -18.4552 YYXZ=              6.1407 ZZXY=              1.2984
 N-N= 9.173485894204D+02 E-N=-3.380706074551D+03  KE= 6.588521864439D+02
 Calling FoFJK, ICntrl=  10002127 FMM=F ISym2X=0 I1Cent= 0 IOpClX= 0 NMat=1 NMatS=1 NMatT=0.
 -------------------------------------------------------------------
 Center     Atomic                   Forces (Hartrees/Bohr)
 Number     Number              X              Y              Z
 -------------------------------------------------------------------
      1        8          -0.004682870    0.015037870    0.006381133
      2        7           0.039385193    0.013016471    0.001619964
      3        8           0.001998500   -0.017655772   -0.007842286
      4        6          -0.003088780    0.007305703    0.009884778
      5        6           0.003180124   -0.015859791   -0.006386857
      6        7           0.014434676   -0.009761249   -0.007510401
      7        6          -0.004559012    0.004911718    0.003538557
      8        1          -0.010023125   -0.000936092   -0.007841584
      9        6          -0.003991188    0.000398026   -0.002146490
     10        6           0.002837613   -0.000975051    0.000929894
     11        6          -0.001065323   -0.004359719   -0.002865696
     12        6           0.000841317   -0.008391664   -0.003663087
     13        6           0.008956370   -0.002474332    0.004542809
     14        1           0.000938812    0.005425171   -0.009345623
     15        7           0.000267699    0.001098874    0.001734639
     16        6          -0.021063205    0.007212059    0.003118528
     17        1           0.007059251   -0.005434096   -0.006598015
     18        1          -0.017590519   -0.002262227    0.005880768
     19        1           0.003082480    0.005106963    0.008249711
     20        1          -0.003268105   -0.007553586    0.001867858
     21        1          -0.004411940    0.001473807    0.009781007
     22        1          -0.003954725   -0.003236326   -0.007774854
     23        1           0.003947425    0.005198638    0.009866171
     24        1          -0.009361949    0.002833791   -0.001914324
     25        1          -0.000750100    0.010776162   -0.001376575
     26        1          -0.004755915   -0.004359340   -0.004837940
     27        1           0.005637296    0.003463991    0.002707916
 -------------------------------------------------------------------
 Cartesian Forces:  Max     0.039385193 RMS     0.008340866

 GradGradGradGradGradGradGradGradGradGradGradGradGradGradGradGradGradGrad
 Berny optimization.
 FormGI is forming the generalized inverse of G from B-inverse, IUseBI=4.
 Internal  Forces:  Max     0.038003450 RMS     0.006899575
 Search for a local minimum.
 Step number   1 out of a maximum of   20
 All quantities printed in internal units (Hartrees-Bohrs-Radians)
 Mixed Optimization -- RFO/linear search
 Second derivative matrix not updated -- first step.
 ITU=  0
     Eigenvalues ---    0.00230   0.00770   0.01041   0.01144   0.01196
     Eigenvalues ---    0.01483   0.01530   0.01600   0.01970   0.02016
     Eigenvalues ---    0.02085   0.02689   0.03663   0.04506   0.04694
     Eigenvalues ---    0.04838   0.05081   0.05138   0.05304   0.05893
     Eigenvalues ---    0.06265   0.07216   0.07701   0.07725   0.07872
     Eigenvalues ---    0.07993   0.08050   0.08057   0.10459   0.11739
     Eigenvalues ---    0.12268   0.13491   0.15261   0.15741   0.15991
     Eigenvalues ---    0.16000   0.20084   0.21943   0.23136   0.24978
     Eigenvalues ---    0.25000   0.25000   0.25372   0.26201   0.26651
     Eigenvalues ---    0.27980   0.28084   0.28472   0.29541   0.31459
     Eigenvalues ---    0.31624   0.32046   0.32237   0.32289   0.32381
     Eigenvalues ---    0.32388   0.32406   0.32515   0.32525   0.32579
     Eigenvalues ---    0.33295   0.33393   0.33606   0.35366   0.43883
     Eigenvalues ---    0.44197   0.49138   0.66977   0.90418   0.91164
     Eigenvalues --- 1000.000001000.000001000.000001000.000001000.00000
     Eigenvalues --- 1000.000001000.000001000.000001000.000001000.00000
     Eigenvalues --- 1000.000001000.000001000.000001000.000001000.00000
     Eigenvalues --- 1000.000001000.000001000.000001000.000001000.00000
     Eigenvalues --- 1000.000001000.000001000.000001000.000001000.00000
     Eigenvalues --- 1000.000001000.000001000.000001000.000001000.00000
     Eigenvalues --- 1000.000001000.000001000.000001000.000001000.00000
     Eigenvalues --- 1000.000001000.000001000.000001000.000001000.00000
     Eigenvalues --- 1000.000001000.000001000.000001000.000001000.00000
     Eigenvalues --- 1000.000001000.000001000.000001000.000001000.00000
     Eigenvalues --- 1000.000001000.000001000.000001000.000001000.00000
     Eigenvalues --- 1000.000001000.000001000.000001000.000001000.00000
     Eigenvalues --- 1000.000001000.000001000.000001000.000001000.00000
     Eigenvalues --- 1000.000001000.000001000.000001000.000001000.00000
     Eigenvalues --- 1000.000001000.000001000.000001000.000001000.00000
     Eigenvalues --- 1000.000001000.000001000.000001000.000001000.00000
     Eigenvalues --- 1000.000001000.000001000.000001000.000001000.00000
     Eigenvalues --- 1000.000001000.000001000.000001000.000001000.00000
     Eigenvalues --- 1000.00000
 RFO step:  Lambda=-2.38227310D-02 EMin= 2.30000194D-03
 Linear search not attempted -- first point.
 Iteration  1 RMS(Cart)=  0.05598015 RMS(Int)=  0.00106052
 Iteration  2 RMS(Cart)=  0.00113406 RMS(Int)=  0.00022871
 Iteration  3 RMS(Cart)=  0.00000084 RMS(Int)=  0.00022871
 Iteration  1 RMS(Cart)=  0.00003105 RMS(Int)=  0.00002341
 Iteration  2 RMS(Cart)=  0.00001460 RMS(Int)=  0.00002601
 Iteration  3 RMS(Cart)=  0.00000766 RMS(Int)=  0.00002884
 Iteration  4 RMS(Cart)=  0.00000467 RMS(Int)=  0.00003061
 Iteration  5 RMS(Cart)=  0.00000326 RMS(Int)=  0.00003170
 Iteration  6 RMS(Cart)=  0.00000251 RMS(Int)=  0.00003241
 Iteration  7 RMS(Cart)=  0.00000203 RMS(Int)=  0.00003293
 Iteration  8 RMS(Cart)=  0.00000169 RMS(Int)=  0.00003333
 Iteration  9 RMS(Cart)=  0.00000142 RMS(Int)=  0.00003365
 Iteration 10 RMS(Cart)=  0.00000121 RMS(Int)=  0.00003392
 Iteration 11 RMS(Cart)=  0.00000103 RMS(Int)=  0.00003415
 Iteration 12 RMS(Cart)=  0.00000087 RMS(Int)=  0.00003434
 Variable       Old X    -DE/DX   Delta X   Delta X   Delta X     New X
                                 (Linear)    (Quad)   (Total)
    R1        2.32741   0.01566   0.00000   0.01688   0.01688   2.34429
    R2        2.32401   0.01780   0.00000   0.01902   0.01902   2.34304
    R3        2.88889  -0.03800   0.00000  -0.11905  -0.11905   2.76984
    R4        2.64539  -0.03474   0.00000  -0.07510  -0.07486   2.57053
    R5        2.81042  -0.02193   0.00000  -0.06294  -0.06270   2.74772
    R6        2.59085  -0.02479   0.00000  -0.04805  -0.04796   2.54289
    R7        2.08368  -0.01032   0.00000  -0.02885  -0.02885   2.05482
    R8        2.82450  -0.01942   0.00000  -0.05390  -0.05400   2.77050
    R9        1.93294  -0.00662   0.00000  -0.01432  -0.01432   1.91863
   R10        2.11845  -0.01187   0.00000  -0.03506  -0.03506   2.08339
   R11        2.92737  -0.01302   0.00000  -0.04433  -0.04436   2.88302
   R12        2.90259  -0.00452   0.00000  -0.00900  -0.00902   2.89357
   R13        2.91136  -0.00463   0.00000  -0.01435  -0.01437   2.89699
   R14        2.09911  -0.00996   0.00000  -0.02855  -0.02855   2.07056
   R15        2.09894  -0.00802   0.00000  -0.02298  -0.02298   2.07596
   R16        2.90431  -0.00182   0.00000  -0.00714  -0.00719   2.89713
   R17        2.10139  -0.01058   0.00000  -0.03042  -0.03042   2.07097
   R18        2.10317  -0.00901   0.00000  -0.02599  -0.02599   2.07719
   R19        2.91770  -0.00907   0.00000  -0.02874  -0.02872   2.88898
   R20        2.10413  -0.01168   0.00000  -0.03373  -0.03373   2.07040
   R21        2.10108  -0.00994   0.00000  -0.02858  -0.02858   2.07250
   R22        2.93532  -0.01057   0.00000  -0.03639  -0.03637   2.89895
   R23        2.10153  -0.01073   0.00000  -0.03087  -0.03087   2.07066
   R24        2.09796  -0.00786   0.00000  -0.02247  -0.02247   2.07549
   R25        2.10760  -0.00914   0.00000  -0.02655  -0.02655   2.08105
   R26        2.76795  -0.00519   0.00000  -0.01077  -0.01110   2.75685
   R27        2.44281  -0.00542   0.00000  -0.00735  -0.00739   2.43542
   R28        2.08000  -0.00643   0.00000  -0.01786  -0.01786   2.06214
    A1        2.15724   0.01113   0.00000   0.04065   0.04065   2.19789
    A2        2.07099  -0.00420   0.00000  -0.01534  -0.01534   2.05565
    A3        2.05496  -0.00693   0.00000  -0.02531  -0.02531   2.02964
    A4        2.03275  -0.00833   0.00000  -0.02811  -0.02851   2.00424
    A5        2.03567  -0.00226   0.00000  -0.00591  -0.00634   2.02933
    A6        2.21389   0.01052   0.00000   0.03257   0.03280   2.24669
    A7        2.20093   0.00612   0.00000   0.01901   0.01935   2.22027
    A8        2.06427  -0.00335   0.00000  -0.01086  -0.01110   2.05317
    A9        2.01702  -0.00272   0.00000  -0.00735  -0.00761   2.00942
   A10        2.25336  -0.00539   0.00000  -0.01857  -0.01861   2.23475
   A11        2.11630  -0.01260   0.00000  -0.07202  -0.07239   2.04391
   A12        1.87555   0.01820   0.00000   0.09794   0.09809   1.97364
   A13        1.83799  -0.00156   0.00000  -0.01748  -0.01729   1.82071
   A14        2.00685  -0.00111   0.00000  -0.01258  -0.01261   1.99424
   A15        1.96703   0.00095   0.00000   0.00123   0.00076   1.96779
   A16        1.85187   0.00266   0.00000   0.02392   0.02376   1.87563
   A17        1.84910   0.00083   0.00000   0.01843   0.01824   1.86734
   A18        1.93698  -0.00145   0.00000  -0.00921  -0.00890   1.92809
   A19        1.91018   0.00011   0.00000  -0.00490  -0.00504   1.90514
   A20        1.92262  -0.00073   0.00000  -0.01290  -0.01286   1.90976
   A21        1.92281  -0.00164   0.00000  -0.00701  -0.00700   1.91581
   A22        1.91925  -0.00040   0.00000   0.00568   0.00563   1.92488
   A23        1.90443   0.00307   0.00000   0.02448   0.02449   1.92892
   A24        1.88434  -0.00039   0.00000  -0.00491  -0.00517   1.87918
   A25        1.94042  -0.00088   0.00000   0.00557   0.00545   1.94587
   A26        1.91897  -0.00071   0.00000  -0.00686  -0.00688   1.91209
   A27        1.90498   0.00032   0.00000  -0.00294  -0.00300   1.90199
   A28        1.91614   0.00080   0.00000   0.00712   0.00717   1.92330
   A29        1.89848   0.00171   0.00000   0.01114   0.01117   1.90965
   A30        1.88381  -0.00122   0.00000  -0.01451  -0.01459   1.86921
   A31        1.94470   0.00064   0.00000   0.00510   0.00523   1.94993
   A32        1.90235   0.00062   0.00000   0.00584   0.00579   1.90814
   A33        1.91748   0.00039   0.00000   0.00527   0.00524   1.92272
   A34        1.90652  -0.00112   0.00000  -0.01411  -0.01415   1.89237
   A35        1.91539  -0.00048   0.00000   0.00012   0.00003   1.91542
   A36        1.87603  -0.00007   0.00000  -0.00260  -0.00263   1.87340
   A37        1.94806  -0.00298   0.00000  -0.01812  -0.01815   1.92991
   A38        1.90593   0.00254   0.00000   0.01686   0.01672   1.92265
   A39        1.91062   0.00139   0.00000   0.01324   0.01321   1.92384
   A40        1.90613   0.00019   0.00000  -0.00295  -0.00279   1.90334
   A41        1.91128  -0.00020   0.00000  -0.00465  -0.00460   1.90668
   A42        1.88057  -0.00087   0.00000  -0.00389  -0.00407   1.87649
   A43        1.84664   0.00454   0.00000   0.02339   0.02342   1.87006
   A44        1.93898  -0.00433   0.00000  -0.03125  -0.03166   1.90732
   A45        1.98234   0.00076   0.00000   0.01101   0.01120   1.99354
   A46        1.88047   0.00223   0.00000   0.03013   0.03043   1.91090
   A47        1.89204  -0.00381   0.00000  -0.02815  -0.02818   1.86386
   A48        1.91876   0.00082   0.00000  -0.00282  -0.00270   1.91606
   A49        2.08330  -0.00606   0.00000  -0.01352  -0.01391   2.06940
   A50        2.25088  -0.00525   0.00000  -0.02200  -0.02200   2.22889
   A51        1.98074   0.00545   0.00000   0.02645   0.02602   2.00676
   A52        2.05154  -0.00019   0.00000  -0.00416  -0.00459   2.04694
    D1       -0.04188  -0.00046   0.00000  -0.03369  -0.03300  -0.07489
    D2        3.14159   0.00083   0.00000   0.00000  -0.00000   3.14159
    D3        3.09948  -0.00100   0.00000  -0.03060  -0.03026   3.06922
    D4       -0.00024   0.00028   0.00000   0.00309   0.00275   0.00251
    D5        3.07492   0.00075   0.00000   0.01834   0.01834   3.09326
    D6       -0.01730  -0.00024   0.00000  -0.00195  -0.00203  -0.01933
    D7       -0.11345  -0.00111   0.00000  -0.02058  -0.02097  -0.13442
    D8        3.07752  -0.00210   0.00000  -0.04088  -0.04134   3.03617
    D9       -2.69267  -0.00211   0.00000  -0.04606  -0.04666  -2.73932
   D10        0.44105   0.00019   0.00000   0.00015  -0.00019   0.44086
   D11        0.49577  -0.00011   0.00000  -0.00656  -0.00637   0.48940
   D12       -2.65370   0.00219   0.00000   0.03965   0.04010  -2.61360
   D13       -0.13543  -0.00025   0.00000   0.02044   0.02064  -0.11479
   D14        2.67518   0.00367   0.00000   0.06790   0.06690   2.74208
   D15        2.95796   0.00069   0.00000   0.04014   0.04046   2.99843
   D16       -0.51461   0.00462   0.00000   0.08760   0.08672  -0.42789
   D17       -2.47626  -0.00072   0.00000  -0.01756  -0.01718  -2.49344
   D18        1.77514  -0.00236   0.00000  -0.02868  -0.02834   1.74680
   D19       -0.46841  -0.00018   0.00000  -0.00527  -0.00527  -0.47368
   D20        0.96084  -0.00012   0.00000  -0.03692  -0.03743   0.92341
   D21       -1.07094  -0.00177   0.00000  -0.04804  -0.04859  -1.11954
   D22        2.96869   0.00042   0.00000  -0.02463  -0.02552   2.94317
   D23        2.94457   0.00238   0.00000   0.02573   0.02563   2.97020
   D24       -1.22642   0.00150   0.00000   0.02147   0.02138  -1.20504
   D25        0.85058  -0.00045   0.00000   0.00299   0.00298   0.85356
   D26        0.92072   0.00316   0.00000   0.03840   0.03840   0.95912
   D27        3.03291   0.00228   0.00000   0.03414   0.03415   3.06706
   D28       -1.17327   0.00033   0.00000   0.01566   0.01575  -1.15752
   D29       -1.08018   0.00142   0.00000   0.00796   0.00795  -1.07223
   D30        1.03201   0.00054   0.00000   0.00369   0.00370   1.03571
   D31        3.10901  -0.00141   0.00000  -0.01478  -0.01471   3.09431
   D32       -2.90053  -0.00103   0.00000  -0.01307  -0.01285  -2.91338
   D33       -0.86446   0.00201   0.00000   0.02016   0.02001  -0.84445
   D34        1.30938   0.00026   0.00000   0.00000  -0.00001   1.30938
   D35       -0.89939  -0.00192   0.00000  -0.02246  -0.02236  -0.92175
   D36        1.13668   0.00112   0.00000   0.01077   0.01049   1.14718
   D37       -2.97266  -0.00064   0.00000  -0.00939  -0.00952  -2.98219
   D38        1.10324   0.00097   0.00000   0.01141   0.01151   1.11475
   D39        3.13931   0.00401   0.00000   0.04464   0.04436  -3.09951
   D40       -0.97003   0.00225   0.00000   0.02448   0.02435  -0.94568
   D41        0.95665   0.00065   0.00000   0.00000   0.00001   0.95666
   D42        3.08231   0.00059   0.00000   0.00804   0.00800   3.09031
   D43       -1.13763  -0.00113   0.00000  -0.01540  -0.01537  -1.15300
   D44       -1.15758   0.00173   0.00000   0.01550   0.01557  -1.14201
   D45        0.96808   0.00167   0.00000   0.02353   0.02356   0.99164
   D46        3.03133  -0.00005   0.00000   0.00010   0.00019   3.03152
   D47        3.06187   0.00060   0.00000   0.00348   0.00344   3.06531
   D48       -1.09565   0.00054   0.00000   0.01151   0.01143  -1.08422
   D49        0.96759  -0.00118   0.00000  -0.01192  -0.01194   0.95566
   D50       -0.92191  -0.00082   0.00000   0.00000   0.00001  -0.92191
   D51        1.18332  -0.00141   0.00000  -0.01050  -0.01052   1.17281
   D52       -3.04847  -0.00090   0.00000  -0.00719  -0.00722  -3.05569
   D53       -3.04922   0.00012   0.00000   0.00011   0.00013  -3.04909
   D54       -0.94398  -0.00047   0.00000  -0.01039  -0.01039  -0.95437
   D55        1.10740   0.00003   0.00000  -0.00707  -0.00709   1.10031
   D56        1.17622   0.00013   0.00000   0.00701   0.00704   1.18326
   D57       -3.00173  -0.00045   0.00000  -0.00349  -0.00348  -3.00521
   D58       -0.95034   0.00005   0.00000  -0.00018  -0.00018  -0.95053
   D59        0.98769  -0.00082   0.00000  -0.01175  -0.01179   0.97590
   D60        3.09696  -0.00080   0.00000  -0.01579  -0.01594   3.08102
   D61       -1.13122   0.00044   0.00000  -0.00300  -0.00297  -1.13419
   D62       -1.11510  -0.00126   0.00000  -0.01297  -0.01296  -1.12806
   D63        0.99418  -0.00123   0.00000  -0.01701  -0.01711   0.97707
   D64        3.04918  -0.00000   0.00000  -0.00421  -0.00414   3.04504
   D65        3.11546  -0.00024   0.00000  -0.00159  -0.00160   3.11386
   D66       -1.05845  -0.00021   0.00000  -0.00564  -0.00575  -1.06420
   D67        0.99655   0.00102   0.00000   0.00716   0.00723   1.00377
   D68       -1.05215   0.00006   0.00000  -0.00024  -0.00015  -1.05230
   D69       -3.12738   0.00161   0.00000   0.00884   0.00848  -3.11890
   D70        1.08002   0.00149   0.00000   0.01088   0.01078   1.09081
   D71        3.12188  -0.00134   0.00000  -0.00775  -0.00759   3.11430
   D72        1.04665   0.00021   0.00000   0.00133   0.00104   1.04769
   D73       -1.02913   0.00008   0.00000   0.00337   0.00334  -1.02579
   D74        1.06638  -0.00028   0.00000   0.00138   0.00157   1.06796
   D75       -1.00885   0.00126   0.00000   0.01045   0.01020  -0.99865
   D76       -3.08463   0.00114   0.00000   0.01249   0.01250  -3.07213
   D77       -1.17217   0.00380   0.00000   0.00000  -0.00001  -1.17217
   D78        3.06399   0.00022   0.00000  -0.01706  -0.01695   3.04704
   D79        1.01254  -0.00071   0.00000  -0.03535  -0.03561   0.97693
   D80        0.12640   0.00180   0.00000   0.01847   0.01818   0.14458
   D81       -3.00705  -0.00059   0.00000  -0.02944  -0.02933  -3.03637
         Item               Value     Threshold  Converged?
 Maximum Force            0.038003     0.000450     NO 
 RMS     Force            0.006976     0.000300     NO 
 Maximum Displacement     0.295689     0.001800     NO 
 RMS     Displacement     0.056161     0.001200     NO 
 Predicted change in Energy=-1.327691D-02
 GradGradGradGradGradGradGradGradGradGradGradGradGradGradGradGradGradGrad

                          Input orientation:                          
 ---------------------------------------------------------------------
 Center     Atomic      Atomic             Coordinates (Angstroms)
 Number     Number       Type             X           Y           Z
 ---------------------------------------------------------------------
      1          8           0       -3.873478    0.659439    0.347295
      2          7           0       -3.129971   -0.239105   -0.075512
      3          8           0       -3.496196   -1.334865   -0.525505
      4          6           0       -1.684100   -0.000669   -0.044082
      5          6           0       -1.318898    1.241998    0.371527
      6          7           0       -0.068188    1.707891    0.543027
      7          6           0        1.192666    0.965027    0.454686
      8          1           0        1.823325    1.403258    1.245692
      9          6           0        1.931341    1.138966   -0.868810
     10          6           0        3.330520    0.524146   -0.748580
     11          6           0        3.264052   -0.938894   -0.295292
     12          6           0        2.436228   -1.099105    0.979937
     13          6           0        1.028650   -0.521078    0.785143
     14          1           0        0.456335   -0.624656    1.720269
     15          7           0        0.394544   -1.302626   -0.270967
     16          6           0       -0.843530   -1.075123   -0.547271
     17          1           0       -2.111297    1.943420    0.621481
     18          1           0        0.059529    2.714478    0.507064
     19          1           0        1.367211    0.646080   -1.668410
     20          1           0        2.000015    2.206570   -1.118451
     21          1           0        3.847944    0.598698   -1.711771
     22          1           0        3.915202    1.105647   -0.021776
     23          1           0        2.803668   -1.542677   -1.085132
     24          1           0        4.275420   -1.330438   -0.132137
     25          1           0        2.354050   -2.158837    1.246168
     26          1           0        2.926010   -0.584833    1.817736
     27          1           0       -1.325020   -1.737713   -1.268341
 ---------------------------------------------------------------------
                    Distance matrix (angstroms):
                    1          2          3          4          5
     1  O    0.000000
     2  N    1.240543   0.000000
     3  O    2.209382   1.239881   0.000000
     4  C    2.319977   1.465736   2.301203   0.000000
     5  C    2.620275   2.381910   3.490776   1.360267   0.000000
     6  N    3.951935   3.680747   4.706523   2.423850   1.345639
     7  C    5.076488   4.518433   5.313728   3.075244   2.528158
     8  H    5.814976   5.383129   6.239532   3.992063   3.265538
     9  C    5.950191   5.305212   5.974600   3.879479   3.480388
    10  C    7.288129   6.540146   7.078823   5.090988   4.836014
    11  C    7.342474   6.435957   6.775747   5.042577   5.119020
    12  C    6.580661   5.730283   6.124997   4.385462   4.466755
    13  C    5.061244   4.256098   4.780615   2.884000   2.964878
    14  H    4.720301   4.029277   4.601130   2.843195   2.907740
    15  N    4.737927   3.686663   3.899190   2.463195   3.134293
    16  C    3.604100   2.479777   2.665441   1.454031   2.537561
    17  H    2.197514   2.507371   3.739073   2.098798   1.087366
    18  H    4.440412   4.385881   5.486944   3.273535   2.021541
    19  H    5.614985   4.852372   5.374300   3.516706   3.425149
    20  H    6.248196   5.778045   6.565187   4.427062   3.763724
    21  H    7.991483   7.215993   7.686500   5.808954   5.608050
    22  H    7.810176   7.172566   7.819121   5.707593   5.250627
    23  H    7.175336   6.158466   6.328085   4.858152   5.183804
    24  H    8.402024   7.485588   7.781566   6.106711   6.177985
    25  H    6.894400   5.958749   6.167911   4.757004   5.081458
    26  H    7.067068   6.354433   6.877358   5.006069   4.842321
    27  H    3.853732   2.631828   2.329828   2.155242   3.401159
                    6          7          8          9         10
     6  N    0.000000
     7  C    1.466085   0.000000
     8  H    2.040677   1.102483   0.000000
     9  C    2.512981   1.525626   2.133691   0.000000
    10  C    3.823704   2.492517   2.649829   1.533023   0.000000
    11  C    4.337289   2.911704   3.152143   2.534273   1.533093
    12  C    3.787112   2.466369   2.590000   2.946479   2.534260
    13  C    2.495993   1.531212   2.132295   2.511206   2.956924
    14  H    2.664920   2.161244   2.491248   3.462561   3.959280
    15  N    3.152764   2.511140   3.415184   2.946274   3.490725
    16  C    3.087891   3.051594   4.058227   3.564475   4.474470
    17  H    2.058136   3.449818   4.020282   4.383039   5.788331
    18  H    1.015294   2.085023   2.318587   2.806946   4.132018
    19  H    2.842229   2.154003   3.045218   1.095691   2.171528
    20  H    2.699380   2.160556   2.503139   1.098552   2.176602
    21  H    4.653011   3.446481   3.673280   2.162369   1.095912
    22  H    4.068058   2.767488   2.463939   2.157378   1.099200
    23  H    4.632996   3.354839   3.882312   2.828243   2.159305
    24  H    5.343615   3.888045   3.922280   3.483583   2.170789
    25  H    4.616625   3.425461   3.601415   3.940471   3.482946
    26  H    3.980791   2.695265   2.344281   3.343408   2.824790
    27  H    4.090583   4.075827   5.108634   4.363346   5.201943
                   11         12         13         14         15
    11  C    0.000000
    12  C    1.528781   0.000000
    13  C    2.517723   1.534058   0.000000
    14  H    3.470520   2.166372   1.101242   0.000000
    15  N    2.892572   2.403051   1.458862   2.104397   0.000000
    16  C    4.117558   3.617976   2.363759   2.652228   1.288770
    17  H    6.167867   5.483195   3.994972   3.794085   4.196727
    18  H    4.925430   4.518376   3.389004   3.574792   4.105446
    19  H    2.827649   3.346970   2.738029   3.731971   2.587736
    20  H    3.488456   3.939671   3.465153   4.296175   3.950978
    21  H    2.170606   3.481490   3.928981   4.977801   4.197251
    22  H    2.163088   2.837556   3.410210   4.241748   4.272810
    23  H    1.095607   2.143893   2.773496   3.771341   2.554284
    24  H    1.096719   2.161678   3.469579   4.302900   3.883458
    25  H    2.166210   1.095748   2.156729   2.485921   2.621919
    26  H    2.168990   1.098303   2.161084   2.471918   3.359498
    27  H    4.758626   4.428268   3.352128   3.652932   2.034934
                   16         17         18         19         20
    16  C    0.000000
    17  H    3.476322   0.000000
    18  H    4.035866   2.306537   0.000000
    19  H    3.017758   4.361962   3.274292   0.000000
    20  H    4.379670   4.472080   2.581812   1.771448   0.000000
    21  H    5.115434   6.539488   4.873586   2.481565   2.520342
    22  H    5.260934   6.118360   4.211202   3.068365   2.466307
    23  H    3.716175   6.262770   5.309308   2.682215   3.834557
    24  H    5.142098   7.216387   5.877385   3.837244   4.319805
    25  H    3.823007   6.095741   5.436938   4.163673   4.977303
    26  H    4.476950   5.761732   4.562897   4.012258   4.155791
    27  H    1.091238   4.211935   4.989092   3.618097   5.160978
                   21         22         23         24         25
    21  H    0.000000
    22  H    1.765673   0.000000
    23  H    2.463468   3.062654   0.000000
    24  H    2.529732   2.465045   1.766153   0.000000
    25  H    4.311046   3.834284   2.452910   2.505520   0.000000
    26  H    3.835117   2.687011   3.059260   2.485727   1.769552
    27  H    5.693417   6.090857   4.137351   5.729028   4.476121
                   26         27
    26  H    0.000000
    27  H    5.378128   0.000000
 Symmetry turned off by external request.
 Stoichiometry    C9H13N3O2
 Framework group  C1[X(C9H13N3O2)]
 Deg. of freedom    75
 Full point group                 C1      NOp   1
 Rotational constants (GHZ):           1.6889622           0.4204901           0.3727081
 Standard basis: 6-31G(d) (6D, 7F)
   236 basis functions,   444 primitive gaussians,   236 cartesian basis functions
    52 alpha electrons       52 beta electrons
       nuclear repulsion energy       932.0934860600 Hartrees.
 NAtoms=   27 NActive=   27 NUniq=   27 SFac= 1.00D+00 NAtFMM=   60 NAOKFM=F Big=F
 Integral buffers will be    131072 words long.
 Raffenetti 1 integral format.
 Two-electron integral symmetry is turned off.
 One-electron integrals computed using PRISM.
 NBasis=   236 RedAO= T EigKep=  9.97D-04  NBF=   236
 NBsUse=   236 1.00D-06 EigRej= -1.00D+00 NBFU=   236
 Initial guess from the checkpoint file:  "/home/alexey/tmp/Gau-1103200.chk"
 B after Tr=     0.055640    0.006590   -0.000719
         Rot=    0.999998   -0.000661    0.000886    0.001488 Ang=  -0.21 deg.
 ExpMin= 1.61D-01 ExpMax= 5.48D+03 ExpMxC= 8.25D+02 IAcc=3 IRadAn=         5 AccDes= 0.00D+00
 Harris functional with IExCor=  205 and IRadAn=       5 diagonalized for initial guess.
 HarFok:  IExCor=  205 AccDes= 0.00D+00 IRadAn=         5 IDoV= 1 UseB2=F ITyADJ=14
 ICtDFT=  3500011 ScaDFX=  1.000000  1.000000  1.000000  1.000000
 FoFCou: FMM=F IPFlag=           0 FMFlag=      100000 FMFlg1=           0
         NFxFlg=           0 DoJE=T BraDBF=F KetDBF=T FulRan=T
         wScrn=  0.000000 ICntrl=       500 IOpCl=  0 I1Cent=   200000004 NGrid=           0
         NMat0=    1 NMatS0=      1 NMatT0=    0 NMatD0=    1 NMtDS0=    0 NMtDT0=    0
 Symmetry not used in FoFCou.
 Keep R1 ints in memory in canonical form, NReq=397720213.
 Requested convergence on RMS density matrix=1.00D-08 within 128 cycles.
 Requested convergence on MAX density matrix=1.00D-06.
 Requested convergence on             energy=1.00D-06.
 No special actions if energy rises.
 SCF Done:  E(RHF) =  -661.298277059     A.U. after   14 cycles
            NFock= 14  Conv=0.98D-08     -V/T= 2.0024
 ExpMin= 1.61D-01 ExpMax= 5.48D+03 ExpMxC= 8.25D+02 IAcc=3 IRadAn=         5 AccDes= 0.00D+00
 HarFok:  IExCor=  205 AccDes= 0.00D+00 IRadAn=         5 IDoV=-2 UseB2=F ITyADJ=14
 ICtDFT= 12500011 ScaDFX=  1.000000  1.000000  1.000000  1.000000
 Range of M.O.s used for correlation:    15   236
 NBasis=   236 NAE=    52 NBE=    52 NFC=    14 NFV=     0
 NROrb=    222 NOA=    38 NOB=    38 NVA=   184 NVB=   184
 Fully direct method using O(ONN) memory.
 JobTyp=1 Pass  1:  I=  15 to  52 NPSUse=  4 ParTrn=T ParDer=T DoDerP=T.
 Spin components of T(2) and E(2):
     alpha-alpha T2 =       0.9125008986D-01 E2=     -0.2723362170D+00
     alpha-beta  T2 =       0.4912185976D+00 E2=     -0.1487978836D+01
     beta-beta   T2 =       0.9125008986D-01 E2=     -0.2723362170D+00
 ANorm=    0.1293722836D+01
 E2 =    -0.2032651270D+01 EUMP2 =    -0.66333092832865D+03
          IDoAtm=111111111111111111111111111
          Differentiating once with respect to electric field.
                with respect to dipole field.
          Differentiating once with respect to nuclear coordinates.
 Keep R1 ints in memory in canonical form, NReq=397723379.
          There are     1 degrees of freedom in the 1st order CPHF.  IDoFFX=0 NUNeed=     1.
 LinEq1:  Iter=  0 NonCon=     1 RMS=4.57D-03 Max=1.22D-01 NDo=     1
 AX will form     1 AO Fock derivatives at one time.
 LinEq1:  Iter=  1 NonCon=     1 RMS=1.54D-03 Max=2.81D-02 NDo=     1
 LinEq1:  Iter=  2 NonCon=     1 RMS=6.41D-04 Max=2.04D-02 NDo=     1
 LinEq1:  Iter=  3 NonCon=     1 RMS=2.80D-04 Max=8.20D-03 NDo=     1
 LinEq1:  Iter=  4 NonCon=     1 RMS=8.70D-05 Max=1.92D-03 NDo=     1
 LinEq1:  Iter=  5 NonCon=     1 RMS=3.64D-05 Max=1.80D-03 NDo=     1
 LinEq1:  Iter=  6 NonCon=     1 RMS=1.42D-05 Max=5.36D-04 NDo=     1
 LinEq1:  Iter=  7 NonCon=     1 RMS=5.41D-06 Max=1.00D-04 NDo=     1
 LinEq1:  Iter=  8 NonCon=     1 RMS=2.16D-06 Max=5.46D-05 NDo=     1
[...]
    27  H    4.723821   4.418874   3.357283   3.657431   2.029785
                   16         17         18         19         20
    16  C    0.000000
    17  H    3.463926   0.000000
    18  H    4.087358   2.234954   0.000000
    19  H    2.990529   4.310511   3.509034   0.000000
    20  H    4.375354   4.456875   2.879555   1.768568   0.000000
    21  H    5.096448   6.516275   5.085012   2.499160   2.521018
    22  H    5.249066   6.101955   4.313329   3.070234   2.461452
    23  H    3.694704   6.235755   5.420102   2.704121   3.842883
    24  H    5.133877   7.199792   5.936762   3.849585   4.317120
    25  H    3.821810   6.081861   5.370606   4.171454   4.985080
    26  H    4.495908   5.775039   4.487174   4.036125   4.182482
    27  H    1.089381   4.217153   5.077749   3.582970   5.147826
                   21         22         23         24         25
    21  H    0.000000
    22  H    1.758868   0.000000
    23  H    2.469449   3.062293   0.000000
    24  H    2.517339   2.459937   1.764583   0.000000
    25  H    4.312016   3.839624   2.444009   2.519728   0.000000
    26  H    3.846857   2.704583   3.060427   2.491775   1.767996
    27  H    5.652477   6.060407   4.089926   5.694480   4.454572
                   26         27
    26  H    0.000000
    27  H    5.378892   0.000000
 Symmetry turned off by external request.
 Stoichiometry    C9H13N3O2
 Framework group  C1[X(C9H13N3O2)]
 Deg. of freedom    75
 Full point group                 C1      NOp   1
 Rotational constants (GHZ):           1.6821287           0.4181877           0.3725295

 **********************************************************************

            Population analysis using the SCF Density.

 **********************************************************************

 Alpha  occ. eigenvalues --  -20.59230 -20.58914 -15.84753 -15.64124 -15.56122
 Alpha  occ. eigenvalues --  -11.35014 -11.29617 -11.29537 -11.28646 -11.27132
 Alpha  occ. eigenvalues --  -11.23727 -11.23208 -11.22691 -11.22089  -1.57139
 Alpha  occ. eigenvalues --   -1.36721  -1.30971  -1.23056  -1.14699  -1.09811
 Alpha  occ. eigenvalues --   -1.02802  -1.01307  -0.94460  -0.89695  -0.85567
 Alpha  occ. eigenvalues --   -0.82440  -0.78610  -0.77409  -0.75189  -0.72029
 Alpha  occ. eigenvalues --   -0.69616  -0.69600  -0.67879  -0.64860  -0.63791
 Alpha  occ. eigenvalues --   -0.62349  -0.60292  -0.57702  -0.56996  -0.55063
 Alpha  occ. eigenvalues --   -0.54570  -0.50790  -0.50065  -0.48668  -0.48113
 Alpha  occ. eigenvalues --   -0.47351  -0.46196  -0.46012  -0.43703  -0.41697
 Alpha  occ. eigenvalues --   -0.39839  -0.33817
 Alpha virt. eigenvalues --    0.07507   0.11763   0.17323   0.21868   0.24111
 Alpha virt. eigenvalues --    0.25588   0.27102   0.28648   0.29054   0.29612
 Alpha virt. eigenvalues --    0.30771   0.31829   0.32049   0.32779   0.33971
 Alpha virt. eigenvalues --    0.34394   0.35847   0.37312   0.38584   0.40271
 Alpha virt. eigenvalues --    0.41329   0.42509   0.45147   0.46165   0.46650
 Alpha virt. eigenvalues --    0.47068   0.49024   0.54059   0.57606   0.59519
 Alpha virt. eigenvalues --    0.63916   0.69578   0.69932   0.72840   0.74250
 Alpha virt. eigenvalues --    0.74821   0.75787   0.76639   0.78638   0.79519
 Alpha virt. eigenvalues --    0.81188   0.84716   0.85712   0.85826   0.88513
 Alpha virt. eigenvalues --    0.89438   0.91027   0.92146   0.92884   0.94500
 Alpha virt. eigenvalues --    0.95721   0.98017   0.99694   1.01587   1.02612
 Alpha virt. eigenvalues --    1.03033   1.05879   1.06964   1.07917   1.09086
 Alpha virt. eigenvalues --    1.10094   1.11463   1.11855   1.12541   1.13927
 Alpha virt. eigenvalues --    1.14784   1.14974   1.15859   1.16959   1.18760
 Alpha virt. eigenvalues --    1.19183   1.21342   1.22566   1.23989   1.24263
 Alpha virt. eigenvalues --    1.25285   1.25716   1.27020   1.27748   1.29596
 Alpha virt. eigenvalues --    1.29905   1.33032   1.36086   1.37145   1.40565
 Alpha virt. eigenvalues --    1.41704   1.46845   1.49266   1.51813   1.54490
 Alpha virt. eigenvalues --    1.56177   1.58973   1.59606   1.63115   1.65459
 Alpha virt. eigenvalues --    1.68136   1.68618   1.72966   1.74972   1.77265
 Alpha virt. eigenvalues --    1.81201   1.84719   1.87954   1.90813   1.93859
 Alpha virt. eigenvalues --    1.95757   1.96823   2.00180   2.01444   2.02758
 Alpha virt. eigenvalues --    2.04284   2.05458   2.08493   2.09595   2.12249
 Alpha virt. eigenvalues --    2.13210   2.15388   2.18889   2.19992   2.22625
 Alpha virt. eigenvalues --    2.23041   2.24506   2.25516   2.28233   2.29581
 Alpha virt. eigenvalues --    2.31806   2.33760   2.34912   2.36217   2.38634
 Alpha virt. eigenvalues --    2.40516   2.42157   2.43775   2.45561   2.46907
 Alpha virt. eigenvalues --    2.50634   2.51656   2.53007   2.55534   2.61330
 Alpha virt. eigenvalues --    2.62209   2.65107   2.67806   2.70149   2.70485
 Alpha virt. eigenvalues --    2.72301   2.72595   2.76457   2.78415   2.84810
 Alpha virt. eigenvalues --    2.88481   2.89093   2.92490   2.93323   2.95743
 Alpha virt. eigenvalues --    2.99483   3.01302   3.04556   3.05561   3.07849
 Alpha virt. eigenvalues --    3.09390   3.14948   3.21473   3.24981   3.27276
 Alpha virt. eigenvalues --    3.33632   3.37885   3.38911   3.52009   3.65797
 Alpha virt. eigenvalues --    4.13719   4.28194   4.34650   4.39076   4.46569
 Alpha virt. eigenvalues --    4.56376   4.61787   4.62442   4.73500   4.79955
 Alpha virt. eigenvalues --    4.99369   5.00894   5.04982   5.11172
          Condensed to atoms (all electrons):
               1          2          3          4          5          6
     1  O    8.352565   0.301550  -0.082894  -0.092626   0.003291   0.000786
     2  N    0.301550   5.719969   0.307541   0.263047  -0.052127   0.000986
     3  O   -0.082894   0.307541   8.317077  -0.085008   0.004455  -0.000015
     4  C   -0.092626   0.263047  -0.085008   5.228305   0.557711  -0.047934
     5  C    0.003291  -0.052127   0.004455   0.557711   4.712090   0.318309
     6  N    0.000786   0.000986  -0.000015  -0.047934   0.318309   7.195493
     7  C    0.000003  -0.000137   0.000003   0.004402  -0.030468   0.169575
     8  H   -0.000000   0.000002  -0.000000  -0.000263   0.003081  -0.050757
     9  C   -0.000000  -0.000004  -0.000000   0.000876   0.000630  -0.061559
    10  C    0.000000   0.000000  -0.000000  -0.000038  -0.000052   0.003744
    11  C   -0.000000  -0.000000  -0.000000  -0.000029   0.000024  -0.000189
    12  C   -0.000000   0.000002  -0.000000  -0.000122  -0.000172   0.003875
    13  C   -0.000005  -0.000044  -0.000021  -0.011556  -0.000512  -0.047849
    14  H    0.000000  -0.000108  -0.000002   0.002691   0.006235  -0.007033
    15  N   -0.000013   0.002263   0.000448  -0.063089  -0.006595   0.001606
    16  C    0.002696  -0.028398   0.000877   0.330515  -0.051057  -0.001902
    17  H    0.017384  -0.007184   0.000229  -0.024052   0.375252  -0.034231
    18  H    0.000011  -0.000050   0.000001   0.001523  -0.031421   0.338597
    19  H    0.000000  -0.000004   0.000001  -0.001206   0.001239  -0.000338
    20  H    0.000000  -0.000000   0.000000  -0.000080   0.000156  -0.000456
    21  H    0.000000   0.000000  -0.000000   0.000001   0.000001  -0.000077
    22  H   -0.000000   0.000000  -0.000000  -0.000000  -0.000003  -0.000117
    23  H    0.000000  -0.000000   0.000000   0.000041   0.000000  -0.000031
    24  H    0.000000   0.000000   0.000000   0.000000  -0.000000   0.000006
    25  H    0.000000  -0.000000   0.000000   0.000024   0.000000  -0.000091
    26  H    0.000000  -0.000000   0.000000   0.000006  -0.000002  -0.000059
    27  H    0.000033  -0.001004   0.006584  -0.061723   0.002150   0.000009
               7          8          9         10         11         12
     1  O    0.000003  -0.000000  -0.000000   0.000000  -0.000000  -0.000000
     2  N   -0.000137   0.000002  -0.000004   0.000000  -0.000000   0.000002
     3  O    0.000003  -0.000000  -0.000000  -0.000000  -0.000000  -0.000000
     4  C    0.004402  -0.000263   0.000876  -0.000038  -0.000029  -0.000122
     5  C   -0.030468   0.003081   0.000630  -0.000052   0.000024  -0.000172
     6  N    0.169575  -0.050757  -0.061559   0.003744  -0.000189   0.003875
     7  C    5.016903   0.418468   0.350465  -0.054676  -0.009036  -0.061176
     8  H    0.418468   0.538172  -0.055151   0.000795  -0.000326  -0.002211
     9  C    0.350465  -0.055151   5.158532   0.324715  -0.050410  -0.005362
    10  C   -0.054676   0.000795   0.324715   5.119354   0.337013  -0.060963
    11  C   -0.009036  -0.000326  -0.050410   0.337013   5.119960   0.335960
    12  C   -0.061176  -0.002211  -0.005362  -0.060963   0.335960   5.118623
    13  C    0.338983  -0.037944  -0.060167  -0.000310  -0.050674   0.372061
    14  H   -0.046532  -0.000743   0.004420  -0.000405   0.004195  -0.036294
    15  N   -0.058113   0.003911  -0.014683   0.001568  -0.013066  -0.082128
    16  C   -0.001674  -0.000001  -0.001223  -0.000030   0.000033   0.002553
    17  H    0.001630  -0.000042  -0.000074   0.000001   0.000000   0.000000
    18  H   -0.021196  -0.004439   0.001309  -0.000083   0.000004  -0.000114
    19  H   -0.036826   0.004364   0.390189  -0.032056  -0.002213   0.000692
    20  H   -0.042400  -0.002078   0.399459  -0.035308   0.003932  -0.000415
    21  H    0.004598  -0.000077  -0.036351   0.402435  -0.034894   0.004346
    22  H   -0.004843   0.003560  -0.046950   0.397744  -0.045403  -0.001019
    23  H    0.000580   0.000034  -0.001958  -0.039021   0.399174  -0.037871
    24  H   -0.000130  -0.000102   0.004388  -0.038435   0.402330  -0.038686
    25  H    0.005156  -0.000025  -0.000423   0.004190  -0.033405   0.398258
    26  H   -0.003900   0.001682   0.000968  -0.002229  -0.041472   0.396744
    27  H   -0.000398   0.000009  -0.000057   0.000007   0.000012  -0.000034
              13         14         15         16         17         18
     1  O   -0.000005   0.000000  -0.000013   0.002696   0.017384   0.000011
     2  N   -0.000044  -0.000108   0.002263  -0.028398  -0.007184  -0.000050
     3  O   -0.000021  -0.000002   0.000448   0.000877   0.000229   0.000001
     4  C   -0.011556   0.002691  -0.063089   0.330515  -0.024052   0.001523
     5  C   -0.000512   0.006235  -0.006595  -0.051057   0.375252  -0.031421
     6  N   -0.047849  -0.007033   0.001606  -0.001902  -0.034231   0.338597
     7  C    0.338983  -0.046532  -0.058113  -0.001674   0.001630  -0.021196
     8  H   -0.037944  -0.000743   0.003911  -0.000001  -0.000042  -0.004439
     9  C   -0.060167   0.004420  -0.014683  -0.001223  -0.000074   0.001309
    10  C   -0.000310  -0.000405   0.001568  -0.000030   0.000001  -0.000083
    11  C   -0.050674   0.004195  -0.013066   0.000033   0.000000   0.000004
    12  C    0.372061  -0.036294  -0.082128   0.002553   0.000000  -0.000114
    13  C    5.040228   0.402975   0.244448  -0.070530  -0.000006   0.002985
    14  H    0.402975   0.526626  -0.037297  -0.004679   0.000097  -0.000107
    15  N    0.244448  -0.037297   6.965900   0.584559  -0.000083  -0.000131
    16  C   -0.070530  -0.004679   0.584559   4.711937   0.001952  -0.000195
    17  H   -0.000006   0.000097  -0.000083   0.001952   0.376909  -0.002840
    18  H    0.002985  -0.000107  -0.000131  -0.000195  -0.002840   0.310686
    19  H   -0.007558   0.000106   0.007703   0.002975   0.000017  -0.000148
    20  H    0.004339  -0.000066   0.000127  -0.000037   0.000002   0.000821
    21  H   -0.000431   0.000010  -0.000041   0.000004  -0.000000   0.000001
    22  H    0.000042  -0.000055   0.000019  -0.000002   0.000000   0.000001
    23  H   -0.007537   0.000003   0.008607   0.000107   0.000000   0.000000
    24  H    0.004699  -0.000056   0.000136   0.000007   0.000000  -0.000000
    25  H   -0.035570  -0.002815   0.000415  -0.000023  -0.000000   0.000002
    26  H   -0.047412  -0.001049   0.004904  -0.000060   0.000000  -0.000000
    27  H    0.004983  -0.000178  -0.040644   0.403183  -0.000080   0.000001
              19         20         21         22         23         24
     1  O    0.000000   0.000000   0.000000  -0.000000   0.000000   0.000000
     2  N   -0.000004  -0.000000   0.000000   0.000000  -0.000000   0.000000
     3  O    0.000001   0.000000  -0.000000  -0.000000   0.000000   0.000000
     4  C   -0.001206  -0.000080   0.000001  -0.000000   0.000041   0.000000
     5  C    0.001239   0.000156   0.000001  -0.000003   0.000000  -0.000000
     6  N   -0.000338  -0.000456  -0.000077  -0.000117  -0.000031   0.000006
     7  C   -0.036826  -0.042400   0.004598  -0.004843   0.000580  -0.000130
     8  H    0.004364  -0.002078  -0.000077   0.003560   0.000034  -0.000102
     9  C    0.390189   0.399459  -0.036351  -0.046950  -0.001958   0.004388
    10  C   -0.032056  -0.035308   0.402435   0.397744  -0.039021  -0.038435
    11  C   -0.002213   0.003932  -0.034894  -0.045403   0.399174   0.402330
    12  C    0.000692  -0.000415   0.004346  -0.001019  -0.037871  -0.038686
    13  C   -0.007558   0.004339  -0.000431   0.000042  -0.007537   0.004699
    14  H    0.000106  -0.000066   0.000010  -0.000055   0.000003  -0.000056
    15  N    0.007703   0.000127  -0.000041   0.000019   0.008607   0.000136
    16  C    0.002975  -0.000037   0.000004  -0.000002   0.000107   0.000007
    17  H    0.000017   0.000002  -0.000000   0.000000   0.000000   0.000000
    18  H   -0.000148   0.000821   0.000001   0.000001   0.000000  -0.000000
    19  H    0.504830  -0.024738  -0.002788   0.003958   0.001514  -0.000066
    20  H   -0.024738   0.541334  -0.002690  -0.002991  -0.000045  -0.000083
    21  H   -0.002788  -0.002690   0.524011  -0.027403  -0.002898  -0.002241
    22  H    0.003958  -0.002991  -0.027403   0.571308   0.004137  -0.003655
    23  H    0.001514  -0.000045  -0.002898   0.004137   0.498966  -0.025449
    24  H   -0.000066  -0.000083  -0.002241  -0.003655  -0.025449   0.538130
    25  H   -0.000029   0.000012  -0.000087  -0.000080  -0.002319  -0.002292
    26  H    0.000019  -0.000030  -0.000081   0.002379   0.004067  -0.003034
    27  H    0.000080   0.000000  -0.000000   0.000000  -0.000036  -0.000000
              25         26         27
     1  O    0.000000   0.000000   0.000033
     2  N   -0.000000  -0.000000  -0.001004
     3  O    0.000000   0.000000   0.006584
     4  C    0.000024   0.000006  -0.061723
     5  C    0.000000  -0.000002   0.002150
     6  N   -0.000091  -0.000059   0.000009
     7  C    0.005156  -0.003900  -0.000398
     8  H   -0.000025   0.001682   0.000009
     9  C   -0.000423   0.000968  -0.000057
    10  C    0.004190  -0.002229   0.000007
    11  C   -0.033405  -0.041472   0.000012
    12  C    0.398258   0.396744  -0.000034
    13  C   -0.035570  -0.047412   0.004983
    14  H   -0.002815  -0.001049  -0.000178
    15  N    0.000415   0.004904  -0.040644
    16  C   -0.000023  -0.000060   0.403183
    17  H   -0.000000   0.000000  -0.000080
    18  H    0.000002  -0.000000   0.000001
    19  H   -0.000029   0.000019   0.000080
    20  H    0.000012  -0.000030   0.000000
    21  H   -0.000087  -0.000081  -0.000000
    22  H   -0.000080   0.002379   0.000000
    23  H   -0.002319   0.004067  -0.000036
    24  H   -0.002292  -0.003034  -0.000000
    25  H    0.506262  -0.024082  -0.000012
    26  H   -0.024082   0.562240   0.000001
    27  H   -0.000012   0.000001   0.435379
 Mulliken charges:
               1
     1  O   -0.502782
     2  N    0.493700
     3  O   -0.469276
     4  C   -0.001417
     5  C    0.187786
     6  N   -0.780350
     7  C    0.060741
     8  H    0.180081
     9  C   -0.301578
    10  C   -0.327960
    11  C   -0.321517
    12  C   -0.306546
    13  C   -0.037616
    14  H    0.190060
    15  N   -0.510727
    16  C    0.118414
    17  H    0.295120
    18  H    0.404784
    19  H    0.190284
    20  H    0.161235
    21  H    0.174652
    22  H    0.149372
    23  H    0.199935
    24  H    0.164534
    25  H    0.186934
    26  H    0.150402
    27  H    0.251735
 Sum of Mulliken charges =  -0.00000
 Mulliken charges with hydrogens summed into heavy atoms:
               1
     1  O   -0.502782
     2  N    0.493700
     3  O   -0.469276
     4  C   -0.001417
     5  C    0.482906
     6  N   -0.375566
     7  C    0.240822
     9  C    0.049941
    10  C   -0.003936
    11  C    0.042952
    12  C    0.030789
    13  C    0.152444
    15  N   -0.510727
    16  C    0.370148
 Electronic spatial extent (au):  <R**2>=           3006.8616
 Charge=              0.0000 electrons
 Dipole moment (field-independent basis, Debye):
    X=              5.4176    Y=              4.6305    Z=              1.7184  Tot=              7.3310
 Quadrupole moment (field-independent basis, Debye-Ang):
   XX=           -106.1934   YY=            -79.1383   ZZ=            -81.5916
   XY=             -1.7266   XZ=             -0.2014   YZ=              1.4951
 Traceless Quadrupole moment (field-independent basis, Debye-Ang):
   XX=            -17.2190   YY=              9.8361   ZZ=              7.3828
   XY=             -1.7266   XZ=             -0.2014   YZ=              1.4951
 Octapole moment (field-independent basis, Debye-Ang**2):
  XXX=             92.8196  YYY=             32.3888  ZZZ=              1.2997  XYY=             -6.2037
  XXY=              8.9123  XXZ=              5.9683  XZZ=             -8.0959  YZZ=              1.6133
  YYZ=             12.1651  XYZ=              2.5233
 Hexadecapole moment (field-independent basis, Debye-Ang**3):
 XXXX=          -3386.1627 YYYY=           -599.5841 ZZZZ=           -310.8281 XXXY=            -19.1994
 XXXZ=            -13.3372 YYYX=             -6.3398 YYYZ=              7.1297 ZZZX=              1.3592
 ZZZY=            -12.7872 XXYY=           -619.7828 XXZZ=           -532.5476 YYZZ=           -154.0685
 XXYZ=            -21.8357 YYXZ=             -1.0747 ZZXY=              3.9674
 N-N= 9.311503123698D+02 E-N=-3.409015724057D+03  KE= 6.596280451277D+02
 Unable to Open any file for archive entry.
 1\1\GINC-LOTUS\FOpt\RMP2-FC\6-31G(d)\C9H13N3O2\ALEXEY\30-Jun-2023\0\\#
 MP2/6-31G* SCF=Tight Opt=(ModRedun, MaxCycle=20 ) NoSymm\\MolName:\\0,
 1\O,-3.8949750647,0.6804612582,0.2469277053\N,-3.1234519382,-0.2119307
 132,-0.1553575882\O,-3.5141170061,-1.2871396773,-0.6495530852\C,-1.687
 2580403,-0.0201305803,-0.0292459588\C,-1.3013168948,1.2290210626,0.383
 9668475\N,-0.057070636,1.7062259461,0.5398557554\C,1.2058345396,0.9855
 654629,0.447558574\H,1.851073382,1.4422072592,1.2133525811\C,1.9149524
 082,1.126836354,-0.897932599\C,3.3118654995,0.5048360036,-0.7875636224
 \C,3.2593885552,-0.9453121047,-0.2993170882\C,2.4587410655,-1.08121263
 18,0.9976410868\C,1.0508467116,-0.5046707483,0.810021298\H,0.470126088
 7,-0.5734031869,1.7436094308\N,0.4074401039,-1.2999986839,-0.231021899
 \C,-0.8385378141,-1.0910562007,-0.5139178308\H,-2.0956666681,1.9372016
 689,0.6032492247\H,0.0015665305,2.6661631515,0.8586807665\H,1.32311061
 03,0.6224137962,-1.6691505901\H,1.9838854051,2.1864182037,-1.174074971
 9\H,3.8199477995,0.5602335963,-1.757111715\H,3.9097570811,1.1053877613
 ,-0.0872740653\H,2.7837763948,-1.570605065,-1.061373203\H,4.2773172054
 ,-1.3260182175,-0.1540326962\H,2.3702861708,-2.1353838964,1.2802570561
 \H,2.9661413003,-0.561494211,1.8221408301\H,-1.2976327896,-1.779615607
 8,-1.2223442431\\Version=ES64L-G16RevC.02\HF=-661.3003018\MP2=-663.334
 5719\RMSD=8.725e-09\RMSF=1.219e-04\Dipole=1.9782094,1.6317816,0.626593
 6\PG=C01 [X(C9H13N3O2)]\\@
 The archive entry for this job was punched.


 MISERY NO LONGER LOVES COMPANY.  NOWADAYS IT INSISTS ON IT.

                                              -- BAKER'S LAW
 Job cpu time:       0 days  1 hours 32 minutes 32.5 seconds.
 Elapsed time:       0 days  0 hours 27 minutes 35.2 seconds.
 File lengths (MBytes):  RWF=     36 Int=      0 D2E=      0 Chk=      7 Scr=      1
 Normal termination of Gaussian 16 at Fri Jun 30 08:08:23 2023.
