 Entering Gaussian System, Link 0=g16
 Initial command:
 /home/alexey/programs//g16/l1.exe "/home/alexey/tmp/Gau-1153861.inp" -scrdir="/home/alexey/tmp/"
 Entering Link 1 = /home/alexey/programs//g16/l1.exe PID=   1153863.
  
 Copyright (c) 1988-2021, Gaussian, Inc.  All Rights Reserved.
  
 This is part of the Gaussian(R) 16 program.  It is based on
 the Gaussian(R) 09 system (copyright 2009, Gaussian, Inc.),
 the Gaussian(R) 03 system (copyright 2003, Gaussian, Inc.),
 the Gaussian(R) 98 system (copyright 1998, Gaussian, Inc.),
 the Gaussian(R) 94 system (copyright 1995, Gaussian, Inc.),
 the Gaussian 92(TM) system (copyright 1992, Gaussian, Inc.),
 the Gaussian 90(TM) system (copyright 1990, Gaussian, Inc.),
 the Gaussian 88(TM) system (copyright 1988, Gaussian, Inc.),
 the Gaussian 86(TM) system (copyright 1986, Carnegie Mellon
 University), and the Gaussian 82(TM) system (copyright 1983,
 Carnegie Mellon University). Gaussian is a federally registered
 trademark of Gaussian, Inc.
  
 This software contains proprietary and confidential information,
 including trade secrets, belonging to Gaussian, Inc.
  
 This software is provided under written license and may be
 used, copied, transmitted, or stored only in accord with that
 written license.
  
 The following legend is applicable only to US Government
 contracts under FAR:
  
                    RESTRICTED RIGHTS LEGEND
  
 Use, reproduction and disclosure by the US Government is
 subject to restrictions as set forth in subparagraphs (a)
 and (c) of the Commercial Computer Software - Restricted
 Rights clause in FAR 52.227-19.
  
 Gaussian, Inc.
 340 Quinnipiac St., Bldg. 40, Wallingford CT 06492
  
  
 ---------------------------------------------------------------
 Warning -- This program may not be used in any manner that
 competes with the business of Gaussian, Inc. or will provide
 assistance to any competitor of Gaussian, Inc.  The licensee
 of this program is prohibited from giving any competitor of
 Gaussian, Inc. access to this program.  By using this program,
 the user acknowledges that Gaussian, Inc. is engaged in the
 business of creating and licensing software in the field of
 computational chemistry and represents and warrants to the
 licensee that it is not a competitor of Gaussian, Inc. and that
 it will not use this program in any manner prohibited above.
 ---------------------------------------------------------------
  

 Cite this work as:
 Gaussian 16, Revision C.02,
 M. J. Frisch, G. W. Trucks, H. B. Schlegel, G. E. Scuseria, 
 M. A. Robb, J. R. Cheeseman, G. Scalmani, V. Barone, 
 G. A. Petersson, H. Nakatsuji, X. Li, M. Caricato, A. V. Marenich, 
 J. Bloino, B. G. Janesko, R. Gomperts, B. Mennucci, H. P. Hratchian, 
 J. V. Ortiz, A. F. Izmaylov, J. L. Sonnenberg, D. Williams-Young, 
 F. Ding, F. Lipparini, F. Egidi, J. Goings, B. Peng, A. Petrone, 
 T. Henderson, D. Ranasinghe, V. G. Zakrzewski, J. Gao, N. Rega, 
 G. Zheng, W. Liang, M. Hada, M. Ehara, K. Toyota, R. Fukuda, 
 J. Hasegawa, M. Ishida, T. Nakajima, Y. Honda, O. Kitao, H. Nakai, 
 T. Vreven, K. Throssell, J. A. Montgomery, Jr., J. E. Peralta, 
 F. Ogliaro, M. J. Bearpark, J. J. Heyd, E. N. Brothers, K. N. Kudin, 
 V. N. Staroverov, T. A. Keith, R. Kobayashi, J. Normand, 
 K. Raghavachari, A. P. Rendell, J. C. Burant, S. S. Iyengar, 
 J. Tomasi, M. Cossi, J. M. Millam, M. Klene, C. Adamo, R. Cammi, 
 J. W. Ochterski, R. L. Martin, K. Morokuma, O. Farkas, 
 J. B. Foresman, and D. J. Fox, Gaussian, Inc., Wallingford CT, 2019.
 
 ******************************************
 Gaussian 16:  ES64L-G16RevC.02  7-Dec-2021
                30-Jun-2023 
 ******************************************
 %mem=8GB
 %NPROCS=4
 Will use up to    4 processors via shared memory.
 %NoSave
 ---------------------------------------------------------
 #MP2/6-31G* SCF=Tight Opt=(ModRedun, MaxCycle=20 ) NoSymm
 ---------------------------------------------------------
 1/6=20,18=120,19=15,38=1/1,3;
 2/9=110,12=2,15=1,17=6,18=5,40=1/2;
 3/5=1,6=6,7=1,11=9,25=1,30=1,71=1/1,2,3;
 4//1;
 5/5=2,32=2,38=5/2;
 8/6=4,10=2/1;
 9/15=2,16=-3/6;
 10/5=1,31=1/2;
 6/7=2,8=2,9=2,10=2/1;
 7/12=2,30=1/1,2,3,16;
 1/6=20,18=20,19=15/3(2);
 2/9=110,15=1/2;
 99//99;
 2/9=110,15=1/2;
 3/5=1,6=6,7=1,11=9,25=1,30=1,71=1/1,2,3;
 4/5=5,16=3,69=1/1;
 5/5=2,32=2,38=5/2;
 8/6=4,10=2/1;
 9/15=2,16=-3/6;
 10/5=1,31=1/2;
 7/12=2,30=1/1,2,3,16;
 1/6=20,18=20,19=15/3(-8);
 2/9=110,15=1/2;
 6/7=2,8=2,9=2,10=2/1;
 99/9=10/99;
 --------
 MolName:
 --------
 Symbolic Z-matrix:
 Charge =  0 Multiplicity = 1
 8                    0    -3.90791   0.49753  -0.76702 
 7                    0    -3.2196   -0.2491   -0.07226 
 8                    0    -3.63015  -1.23647   0.53298 
 6                    0    -1.74111   0.00313  -0.03919 
 6                    0    -1.37139   1.33407   0.15479 
 7                    0    -0.08747   1.79312   0.28759 
 6                    0     1.19218   1.01983   0.30819 
 1                    0     1.864     1.57808   1.01061 
 6                    0     1.94021   0.95998  -1.04709 
 6                    0     3.35583   0.39321  -0.82683 
 6                    0     3.30471  -0.96856  -0.11617 
 6                    0     2.47221  -0.89607   1.18195 
 6                    0     1.03079  -0.38705   0.90657 
 1                    0     0.49178  -0.34519   1.88205 
 7                    0     0.36633  -1.34193   0.01421 
 6                    0    -0.87943  -1.17521  -0.28592 
 1                    0    -2.17235   2.08583   0.25548 
 1                    0     0.14952   2.76355   0.06759 
 1                    0     1.38254   0.31993  -1.76353 
 1                    0     2.01948   1.97711  -1.48618 
 1                    0     3.87873   0.28908  -1.80269 
 1                    0     3.93966   1.10311  -0.19928 
 1                    0     2.85061  -1.71877  -0.80225 
 1                    0     4.33621  -1.31126   0.11792 
 1                    0     2.42179  -1.90754   1.64144 
 1                    0     2.97292  -0.21991   1.90618 
 1                    0    -1.40111  -1.99449  -0.80415 
 
 The following ModRedundant input section has been read:
 D       1       2       4      16 F                                           
 D       7      13      15      16 F                                           
 D       7       9      10      11 F                                           
 D       9      10      11      12 F                                           
 D       6       7      13      15 F                                           
 

 GradGradGradGradGradGradGradGradGradGradGradGradGradGradGradGradGradGrad
 Berny optimization.
 Initialization pass.
                           ----------------------------
                           !    Initial Parameters    !
                           ! (Angstroms and Degrees)  !
 --------------------------                            --------------------------
 ! Name  Definition              Value          Derivative Info.                !
 --------------------------------------------------------------------------------
 ! R1    R(1,2)                  1.2304         estimate D2E/DX2                !
 ! R2    R(2,3)                  1.2287         estimate D2E/DX2                !
 ! R3    R(2,4)                  1.5002         estimate D2E/DX2                !
 ! R4    R(4,5)                  1.3949         estimate D2E/DX2                !
 ! R5    R(4,16)                 1.4805         estimate D2E/DX2                !
 ! R6    R(5,6)                  1.37           estimate D2E/DX2                !
 ! R7    R(5,17)                 1.1031         estimate D2E/DX2                !
 ! R8    R(6,7)                  1.4953         estimate D2E/DX2                !
 ! R9    R(6,18)                 1.0229         estimate D2E/DX2                !
 ! R10   R(7,8)                  1.1209         estimate D2E/DX2                !
 ! R11   R(7,9)                  1.5492         estimate D2E/DX2                !
 ! R12   R(7,13)                 1.5373         estimate D2E/DX2                !
 ! R13   R(9,10)                 1.5407         estimate D2E/DX2                !
 ! R14   R(9,19)                 1.1108         estimate D2E/DX2                !
 ! R15   R(9,20)                 1.1107         estimate D2E/DX2                !
 ! R16   R(10,11)                1.5369         estimate D2E/DX2                !
 ! R17   R(10,21)                1.112          estimate D2E/DX2                !
 ! R18   R(10,22)                1.1129         estimate D2E/DX2                !
 ! R19   R(11,12)                1.5438         estimate D2E/DX2                !
 ! R20   R(11,23)                1.1134         estimate D2E/DX2                !
 ! R21   R(11,24)                1.1119         estimate D2E/DX2                !
 ! R22   R(12,13)                1.5533         estimate D2E/DX2                !
 ! R23   R(12,25)                1.1121         estimate D2E/DX2                !
 ! R24   R(12,26)                1.1101         estimate D2E/DX2                !
 ! R25   R(13,14)                1.1153         estimate D2E/DX2                !
 ! R26   R(13,15)                1.4662         estimate D2E/DX2                !
 ! R27   R(15,16)                1.2922         estimate D2E/DX2                !
 ! R28   R(16,27)                1.1009         estimate D2E/DX2                !
 ! A1    A(1,2,3)              125.3689         estimate D2E/DX2                !
 ! A2    A(1,2,4)              117.4992         estimate D2E/DX2                !
 ! A3    A(3,2,4)              116.9706         estimate D2E/DX2                !
 ! A4    A(2,4,5)              115.1317         estimate D2E/DX2                !
 ! A5    A(2,4,16)             115.8556         estimate D2E/DX2                !
 ! A6    A(5,4,16)             128.927          estimate D2E/DX2                !
 ! A7    A(4,5,6)              125.5634         estimate D2E/DX2                !
 ! A8    A(4,5,17)             118.0664         estimate D2E/DX2                !
 ! A9    A(6,5,17)             116.314          estimate D2E/DX2                !
 ! A10   A(5,6,7)              129.0561         estimate D2E/DX2                !
 ! A11   A(5,6,18)             120.9428         estimate D2E/DX2                !
 ! A12   A(7,6,18)             107.1765         estimate D2E/DX2                !
 ! A13   A(6,7,8)              105.3075         estimate D2E/DX2                !
 ! A14   A(6,7,9)              114.9073         estimate D2E/DX2                !
 ! A15   A(6,7,13)             112.8789         estimate D2E/DX2                !
 ! A16   A(8,7,9)              106.1449         estimate D2E/DX2                !
 ! A17   A(8,7,13)             105.9491         estimate D2E/DX2                !
 ! A18   A(9,7,13)             110.8457         estimate D2E/DX2                !
 ! A19   A(7,9,10)             109.4391         estimate D2E/DX2                !
 ! A20   A(7,9,19)             110.1262         estimate D2E/DX2                !
 ! A21   A(7,9,20)             110.1778         estimate D2E/DX2                !
 ! A22   A(10,9,19)            109.9694         estimate D2E/DX2                !
 ! A23   A(10,9,20)            109.1365         estimate D2E/DX2                !
 ! A24   A(19,9,20)            107.9695         estimate D2E/DX2                !
 ! A25   A(9,10,11)            111.1919         estimate D2E/DX2                !
 ! A26   A(9,10,21)            109.9406         estimate D2E/DX2                !
 ! A27   A(9,10,22)            109.1452         estimate D2E/DX2                !
 ! A28   A(11,10,21)           109.7826         estimate D2E/DX2                !
 ! A29   A(11,10,22)           108.7774         estimate D2E/DX2                !
 ! A30   A(21,10,22)           107.9318         estimate D2E/DX2                !
 ! A31   A(10,11,12)           111.4159         estimate D2E/DX2                !
 ! A32   A(10,11,23)           109.0048         estimate D2E/DX2                !
 ! A33   A(10,11,24)           109.8522         estimate D2E/DX2                !
 ! A34   A(12,11,23)           109.2583         estimate D2E/DX2                !
 ! A35   A(12,11,24)           109.7374         estimate D2E/DX2                !
 ! A36   A(23,11,24)           107.4827         estimate D2E/DX2                !
 ! A37   A(11,12,13)           111.5139         estimate D2E/DX2                !
 ! A38   A(11,12,25)           109.2177         estimate D2E/DX2                !
 ! A39   A(11,12,26)           109.5074         estimate D2E/DX2                !
 ! A40   A(13,12,25)           109.2226         estimate D2E/DX2                !
 ! A41   A(13,12,26)           109.5492         estimate D2E/DX2                !
 ! A42   A(25,12,26)           107.7503         estimate D2E/DX2                !
 ! A43   A(7,13,12)            105.7527         estimate D2E/DX2                !
 ! A44   A(7,13,14)            110.9056         estimate D2E/DX2                !
 ! A45   A(7,13,15)            113.997          estimate D2E/DX2                !
 ! A46   A(12,13,14)           107.802          estimate D2E/DX2                !
 ! A47   A(12,13,15)           108.3633         estimate D2E/DX2                !
 ! A48   A(14,13,15)           109.7406         estimate D2E/DX2                !
 ! A49   A(13,15,16)           119.62           estimate D2E/DX2                !
 ! A50   A(4,16,15)            128.6884         estimate D2E/DX2                !
 ! A51   A(4,16,27)            113.2639         estimate D2E/DX2                !
 ! A52   A(15,16,27)           118.0449         estimate D2E/DX2                !
 ! D1    D(1,2,4,5)             46.9397         estimate D2E/DX2                !
 ! D2    D(1,2,4,16)          -130.0004         Frozen                          !
 ! D3    D(3,2,4,5)           -137.4255         estimate D2E/DX2                !
 ! D4    D(3,2,4,16)            45.6344         estimate D2E/DX2                !
 ! D5    D(2,4,5,6)            176.4916         estimate D2E/DX2                !
 ! D6    D(2,4,5,17)            -0.6711         estimate D2E/DX2                !
 ! D7    D(16,4,5,6)            -7.0485         estimate D2E/DX2                !
 ! D8    D(16,4,5,17)          175.7888         estimate D2E/DX2                !
 ! D9    D(2,4,16,15)         -160.207          estimate D2E/DX2                !
 ! D10   D(2,4,16,27)           20.4237         estimate D2E/DX2                !
 ! D11   D(5,4,16,15)           23.3544         estimate D2E/DX2                !
 ! D12   D(5,4,16,27)         -156.0149         estimate D2E/DX2                !
 ! D13   D(4,5,6,7)             -2.3528         estimate D2E/DX2                !
 ! D14   D(4,5,6,18)           156.0585         estimate D2E/DX2                !
 ! D15   D(17,5,6,7)           174.8541         estimate D2E/DX2                !
 ! D16   D(17,5,6,18)          -26.7345         estimate D2E/DX2                !
 ! D17   D(5,6,7,8)           -146.2854         estimate D2E/DX2                !
 ! D18   D(5,6,7,9)             97.2942         estimate D2E/DX2                !
 ! D19   D(5,6,7,13)           -31.1526         estimate D2E/DX2                !
 ! D20   D(18,6,7,8)            53.002          estimate D2E/DX2                !
 ! D21   D(18,6,7,9)           -63.4183         estimate D2E/DX2                !
 ! D22   D(18,6,7,13)          168.1348         estimate D2E/DX2                !
 ! D23   D(6,7,9,10)           168.5833         estimate D2E/DX2                !
 ! D24   D(6,7,9,19)           -70.4158         estimate D2E/DX2                !
 ! D25   D(6,7,9,20)            48.5791         estimate D2E/DX2                !
 ! D26   D(8,7,9,10)            52.6426         estimate D2E/DX2                !
 ! D27   D(8,7,9,19)           173.6435         estimate D2E/DX2                !
 ! D28   D(8,7,9,20)           -67.3616         estimate D2E/DX2                !
 ! D29   D(13,7,9,10)          -61.9605         estimate D2E/DX2                !
 ! D30   D(13,7,9,19)           59.0403         estimate D2E/DX2                !
 ! D31   D(13,7,9,20)          178.0353         estimate D2E/DX2                !
 ! D32   D(6,7,13,12)         -166.0388         estimate D2E/DX2                !
 ! D33   D(6,7,13,14)          -49.4367         estimate D2E/DX2                !
 ! D34   D(6,7,13,15)           75.0223         Frozen                          !
 ! D35   D(8,7,13,12)          -51.2919         estimate D2E/DX2                !
 ! D36   D(8,7,13,14)           65.3102         estimate D2E/DX2                !
 ! D37   D(8,7,13,15)         -170.2309         estimate D2E/DX2                !
 ! D38   D(9,7,13,12)           63.4339         estimate D2E/DX2                !
 ! D39   D(9,7,13,14)         -179.964          estimate D2E/DX2                !
 ! D40   D(9,7,13,15)          -55.5051         estimate D2E/DX2                !
 ! D41   D(7,9,10,11)           54.8121         Frozen                          !
 ! D42   D(7,9,10,21)          176.6025         estimate D2E/DX2                !
 ! D43   D(7,9,10,22)          -65.1914         estimate D2E/DX2                !
 ! D44   D(19,9,10,11)         -66.2838         estimate D2E/DX2                !
 ! D45   D(19,9,10,21)          55.5065         estimate D2E/DX2                !
 ! D46   D(19,9,10,22)         173.7127         estimate D2E/DX2                !
 ! D47   D(20,9,10,11)         175.4523         estimate D2E/DX2                !
 ! D48   D(20,9,10,21)         -62.7574         estimate D2E/DX2                !
 ! D49   D(20,9,10,22)          55.4488         estimate D2E/DX2                !
 ! D50   D(9,10,11,12)         -52.822          Frozen                          !
 ! D51   D(9,10,11,23)          67.8287         estimate D2E/DX2                !
 ! D52   D(9,10,11,24)        -174.6443         estimate D2E/DX2                !
 ! D53   D(21,10,11,12)       -174.7043         estimate D2E/DX2                !
 ! D54   D(21,10,11,23)        -54.0536         estimate D2E/DX2                !
 ! D55   D(21,10,11,24)         63.4734         estimate D2E/DX2                !
 ! D56   D(22,10,11,12)         67.3993         estimate D2E/DX2                !
 ! D57   D(22,10,11,23)       -171.9501         estimate D2E/DX2                !
 ! D58   D(22,10,11,24)        -54.423          estimate D2E/DX2                !
 ! D59   D(10,11,12,13)         56.7096         estimate D2E/DX2                !
 ! D60   D(10,11,12,25)        177.5192         estimate D2E/DX2                !
 ! D61   D(10,11,12,26)        -64.705          estimate D2E/DX2                !
 ! D62   D(23,11,12,13)        -63.7922         estimate D2E/DX2                !
 ! D63   D(23,11,12,25)         57.0175         estimate D2E/DX2                !
 ! D64   D(23,11,12,26)        174.7932         estimate D2E/DX2                !
 ! D65   D(24,11,12,13)        178.5984         estimate D2E/DX2                !
 ! D66   D(24,11,12,25)        -60.592          estimate D2E/DX2                !
 ! D67   D(24,11,12,26)         57.1838         estimate D2E/DX2                !
 ! D68   D(11,12,13,7)         -60.5314         estimate D2E/DX2                !
 ! D69   D(11,12,13,14)       -179.2153         estimate D2E/DX2                !
 ! D70   D(11,12,13,15)         62.0751         estimate D2E/DX2                !
 ! D71   D(25,12,13,7)         178.6617         estimate D2E/DX2                !
 ! D72   D(25,12,13,14)         59.9779         estimate D2E/DX2                !
 ! D73   D(25,12,13,15)        -58.7317         estimate D2E/DX2                !
 ! D74   D(26,12,13,7)          60.8588         estimate D2E/DX2                !
 ! D75   D(26,12,13,14)        -57.8251         estimate D2E/DX2                !
 ! D76   D(26,12,13,15)       -176.5347         estimate D2E/DX2                !
 ! D77   D(7,13,15,16)         -67.1598         Frozen                          !
 ! D78   D(12,13,15,16)        175.3958         estimate D2E/DX2                !
 ! D79   D(14,13,15,16)         57.9206         estimate D2E/DX2                !
 ! D80   D(13,15,16,4)          11.4848         estimate D2E/DX2                !
 ! D81   D(13,15,16,27)       -169.1717         estimate D2E/DX2                !
 --------------------------------------------------------------------------------
 Trust Radius=3.00D-01 FncErr=1.00D-07 GrdErr=1.00D-07 EigMax=2.50D+02 EigMin=1.00D-04
 Number of steps in this run=     20 maximum allowed number of steps=    162.
 GradGradGradGradGradGradGradGradGradGradGradGradGradGradGradGradGradGrad

                          Input orientation:                          
 ---------------------------------------------------------------------
 Center     Atomic      Atomic             Coordinates (Angstroms)
 Number     Number       Type             X           Y           Z
 ---------------------------------------------------------------------
      1          8           0       -3.907910    0.497530   -0.767020
      2          7           0       -3.219600   -0.249100   -0.072260
      3          8           0       -3.630150   -1.236470    0.532980
      4          6           0       -1.741110    0.003130   -0.039190
      5          6           0       -1.371390    1.334070    0.154790
      6          7           0       -0.087470    1.793120    0.287590
      7          6           0        1.192180    1.019830    0.308190
      8          1           0        1.864000    1.578080    1.010610
      9          6           0        1.940210    0.959980   -1.047090
     10          6           0        3.355830    0.393210   -0.826830
     11          6           0        3.304710   -0.968560   -0.116170
     12          6           0        2.472210   -0.896070    1.181950
     13          6           0        1.030790   -0.387050    0.906570
     14          1           0        0.491780   -0.345190    1.882050
     15          7           0        0.366330   -1.341930    0.014210
     16          6           0       -0.879430   -1.175210   -0.285920
     17          1           0       -2.172350    2.085830    0.255480
     18          1           0        0.149520    2.763550    0.067590
     19          1           0        1.382540    0.319930   -1.763530
     20          1           0        2.019480    1.977110   -1.486180
     21          1           0        3.878730    0.289080   -1.802690
     22          1           0        3.939660    1.103110   -0.199280
     23          1           0        2.850610   -1.718770   -0.802250
     24          1           0        4.336210   -1.311260    0.117920
     25          1           0        2.421790   -1.907540    1.641440
     26          1           0        2.972920   -0.219910    1.906180
     27          1           0       -1.401110   -1.994490   -0.804150
 ---------------------------------------------------------------------
                    Distance matrix (angstroms):
                    1          2          3          4          5
     1  O    0.000000
     2  N    1.230414   0.000000
     3  O    2.184927   1.228725   0.000000
     4  C    2.338630   1.500215   2.330764   0.000000
     5  C    2.825503   2.444148   3.442775   1.394892   0.000000
     6  N    4.169714   3.756380   4.667892   2.458734   1.369968
     7  C    5.238300   4.606379   5.328817   3.123867   2.587309
     8  H    6.135349   5.509463   6.191567   4.071777   3.355550
     9  C    5.873058   5.388488   6.192732   3.934913   3.542761
    10  C    7.264735   6.649678   7.301291   5.172169   4.918882
    11  C    7.388837   6.564006   6.970327   5.139106   5.219333
    12  C    6.815170   5.864155   6.146205   4.477925   4.560904
    13  C    5.289059   4.363823   4.752415   2.954680   3.049245
    14  H    5.204327   4.195581   4.427717   2.966191   3.045446
    15  N    4.718375   3.749753   4.031389   2.500668   3.193808
    16  C    3.493023   2.525812   2.870681   1.480491   2.594752
    17  H    2.565224   2.579931   3.638662   2.147193   1.103095
    18  H    4.721669   4.521790   5.522921   3.347507   2.089063
    19  H    5.386412   4.935978   5.729171   3.582025   3.506075
    20  H    6.151447   5.865419   6.806058   4.486916   3.821555
    21  H    7.857979   7.326003   8.010364   5.896974   5.699780
    22  H    7.891350   7.286948   7.956875   5.788500   5.327848
    23  H    7.112722   6.288105   6.634433   4.962972   5.297267
    24  H    8.486481   7.632471   7.977516   6.219817   6.290932
    25  H    7.186803   6.124743   6.189103   4.879028   5.206379
    26  H    7.416639   6.500952   6.820528   5.104536   4.935104
    27  H    3.534910   2.624682   2.707606   2.165929   3.464067
                    6          7          8          9         10
     6  N    0.000000
     7  C    1.495295   0.000000
     8  H    2.092184   1.120883   0.000000
     9  C    2.566511   1.549166   2.149880   0.000000
    10  C    3.880463   2.522361   2.646821   1.540689   0.000000
    11  C    4.392810   2.931989   3.135387   2.539240   1.536902
    12  C    3.818846   2.464266   2.553565   2.948994   2.545236
    13  C    2.527209   1.537341   2.137007   2.541323   3.003214
    14  H    2.729506   2.197925   2.518206   3.518704   4.010742
    15  N    3.179498   2.519199   3.429619   2.983663   3.557410
    16  C    3.125236   3.076156   4.097317   3.617843   4.548621
    17  H    2.105572   3.529759   4.137651   4.458405   5.881933
    18  H    1.022887   2.045871   2.287808   2.775238   4.086432
    19  H    2.922039   2.195022   3.083926   1.110831   2.185555
    20  H    2.760317   2.195581   2.533251   1.110692   2.174698
    21  H    4.728863   3.493903   3.692603   2.186069   1.112012
    22  H    4.114721   2.795194   2.449040   2.176481   1.112940
    23  H    4.706744   3.388716   3.889612   2.839802   2.171707
    24  H    5.406931   3.918559   3.906021   3.500942   2.181494
    25  H    4.671636   3.443689   3.585892   3.960149   3.501177
    26  H    4.004761   2.694729   2.294454   3.343716   2.826991
    27  H    4.154941   4.128992   5.168903   4.466803   5.322603
                   11         12         13         14         15
    11  C    0.000000
    12  C    1.543835   0.000000
    13  C    2.560247   1.553263   0.000000
    14  H    3.506287   2.171569   1.115278   0.000000
    15  N    2.964875   2.448906   1.466155   2.120862   0.000000
    16  C    4.192678   3.669612   2.385827   2.696154   1.292204
    17  H    6.282166   5.596607   4.098678   3.956410   4.272312
    18  H    4.890566   4.475434   3.377396   3.615753   4.111547
    19  H    2.840553   3.367772   2.784418   3.811311   2.637199
    20  H    3.493668   3.947030   3.505997   4.367141   4.000013
    21  H    2.180713   3.505846   3.988484   5.044902   4.277648
    22  H    2.168383   2.838649   3.450363   4.279881   4.335030
    23  H    1.113431   2.181071   2.829362   3.828350   2.642019
    24  H    1.111860   2.186101   3.521638   4.338789   3.971353
    25  H    2.179547   1.112090   2.187877   2.494748   2.681922
    26  H    2.181848   1.110141   2.190668   2.484418   3.410688
    27  H    4.865243   4.489290   3.380024   3.676805   2.054116
                   16         17         18         19         20
    16  C    0.000000
    17  H    3.549526   0.000000
    18  H    4.086262   2.426044   0.000000
    19  H    3.087925   4.453319   3.293117   0.000000
    20  H    4.447631   4.540555   2.555277   1.796903   0.000000
    21  H    5.204308   6.639273   4.850562   2.496688   2.531094
    22  H    5.331217   6.207190   4.146498   3.098243   2.471250
    23  H    3.804636   6.389358   5.305064   2.689905   3.849424
    24  H    5.233020   7.343058   5.842515   3.863263   4.330560
    25  H    3.892182   6.242917   5.427642   4.199462   5.003435
    26  H    4.534148   5.874951   4.500337   4.035778   4.152596
    27  H    1.100878   4.285632   5.079698   3.745084   5.285755
                   21         22         23         24         25
    21  H    0.000000
    22  H    1.799245   0.000000
    23  H    2.467665   3.084252   0.000000
    24  H    2.541480   2.467195   1.794376   0.000000
    25  H    4.337032   3.841379   2.488200   2.518267   0.000000
    26  H    3.851659   2.667945   3.097924   2.499496   1.794973
    27  H    5.838534   6.203613   4.260651   5.850971   4.539057
                   26         27
    26  H    0.000000
    27  H    5.443084   0.000000
 Symmetry turned off by external request.
 Stoichiometry    C9H13N3O2
 Framework group  C1[X(C9H13N3O2)]
 Deg. of freedom    75
 Full point group                 C1      NOp   1
 Rotational constants (GHZ):           1.6592703           0.4046192           0.3618081
 Standard basis: 6-31G(d) (6D, 7F)
   236 basis functions,   444 primitive gaussians,   236 cartesian basis functions
    52 alpha electrons       52 beta electrons
       nuclear repulsion energy       919.5075777270 Hartrees.
 NAtoms=   27 NActive=   27 NUniq=   27 SFac= 1.00D+00 NAtFMM=   60 NAOKFM=F Big=F
 Integral buffers will be    131072 words long.
 Raffenetti 1 integral format.
 Two-electron integral symmetry is turned off.
 One-electron integrals computed using PRISM.
 NBasis=   236 RedAO= T EigKep=  1.70D-03  NBF=   236
 NBsUse=   236 1.00D-06 EigRej= -1.00D+00 NBFU=   236
 ExpMin= 1.61D-01 ExpMax= 5.48D+03 ExpMxC= 8.25D+02 IAcc=3 IRadAn=         5 AccDes= 0.00D+00
 Harris functional with IExCor=  205 and IRadAn=       5 diagonalized for initial guess.
 HarFok:  IExCor=  205 AccDes= 0.00D+00 IRadAn=         5 IDoV= 1 UseB2=F ITyADJ=14
 ICtDFT=  3500011 ScaDFX=  1.000000  1.000000  1.000000  1.000000
 FoFCou: FMM=F IPFlag=           0 FMFlag=      100000 FMFlg1=           0
         NFxFlg=           0 DoJE=T BraDBF=F KetDBF=T FulRan=T
         wScrn=  0.000000 ICntrl=       500 IOpCl=  0 I1Cent=   200000004 NGrid=           0
         NMat0=    1 NMatS0=      1 NMatT0=    0 NMatD0=    1 NMtDS0=    0 NMtDT0=    0
 Symmetry not used in FoFCou.
 Keep R1 ints in memory in canonical form, NReq=397720213.
 Requested convergence on RMS density matrix=1.00D-08 within 128 cycles.
 Requested convergence on MAX density matrix=1.00D-06.
 Requested convergence on             energy=1.00D-06.
 No special actions if energy rises.
 SCF Done:  E(RHF) =  -661.276715460     A.U. after   17 cycles
            NFock= 17  Conv=0.49D-08     -V/T= 2.0035
 ExpMin= 1.61D-01 ExpMax= 5.48D+03 ExpMxC= 8.25D+02 IAcc=3 IRadAn=         5 AccDes= 0.00D+00
 HarFok:  IExCor=  205 AccDes= 0.00D+00 IRadAn=         5 IDoV=-2 UseB2=F ITyADJ=14
 ICtDFT= 12500011 ScaDFX=  1.000000  1.000000  1.000000  1.000000
 Range of M.O.s used for correlation:    15   236
 NBasis=   236 NAE=    52 NBE=    52 NFC=    14 NFV=     0
 NROrb=    222 NOA=    38 NOB=    38 NVA=   184 NVB=   184
 Fully direct method using O(ONN) memory.
 JobTyp=1 Pass  1:  I=  15 to  52 NPSUse=  4 ParTrn=T ParDer=T DoDerP=T.
 Spin components of T(2) and E(2):
     alpha-alpha T2 =       0.9185531935D-01 E2=     -0.2717839708D+00
     alpha-beta  T2 =       0.5004809470D+00 E2=     -0.1494766890D+01
     beta-beta   T2 =       0.9185531935D-01 E2=     -0.2717839708D+00
 ANorm=    0.1297764072D+01
 E2 =    -0.2038334832D+01 EUMP2 =    -0.66331505029191D+03
          IDoAtm=111111111111111111111111111
          Differentiating once with respect to electric field.
                with respect to dipole field.
          Differentiating once with respect to nuclear coordinates.
 Keep R1 ints in memory in canonical form, NReq=397723379.
          There are     1 degrees of freedom in the 1st order CPHF.  IDoFFX=0 NUNeed=     1.
 LinEq1:  Iter=  0 NonCon=     1 RMS=4.53D-03 Max=1.18D-01 NDo=     1
 AX will form     1 AO Fock derivatives at one time.
 LinEq1:  Iter=  1 NonCon=     1 RMS=1.52D-03 Max=2.92D-02 NDo=     1
 LinEq1:  Iter=  2 NonCon=     1 RMS=6.24D-04 Max=1.75D-02 NDo=     1
 LinEq1:  Iter=  3 NonCon=     1 RMS=2.84D-04 Max=7.00D-03 NDo=     1
 LinEq1:  Iter=  4 NonCon=     1 RMS=8.69D-05 Max=1.82D-03 NDo=     1
 LinEq1:  Iter=  5 NonCon=     1 RMS=3.53D-05 Max=1.53D-03 NDo=     1
 LinEq1:  Iter=  6 NonCon=     1 RMS=1.47D-05 Max=6.07D-04 NDo=     1
 LinEq1:  Iter=  7 NonCon=     1 RMS=5.59D-06 Max=8.78D-05 NDo=     1
 LinEq1:  Iter=  8 NonCon=     1 RMS=2.22D-06 Max=4.97D-05 NDo=     1
 LinEq1:  Iter=  9 NonCon=     1 RMS=7.74D-07 Max=1.76D-05 NDo=     1
 LinEq1:  Iter= 10 NonCon=     1 RMS=3.87D-07 Max=1.42D-05 NDo=     1
 LinEq1:  Iter= 11 NonCon=     1 RMS=1.61D-07 Max=4.70D-06 NDo=     1
 LinEq1:  Iter= 12 NonCon=     1 RMS=6.26D-08 Max=1.43D-06 NDo=     1
 LinEq1:  Iter= 13 NonCon=     1 RMS=2.04D-08 Max=5.28D-07 NDo=     1
 LinEq1:  Iter= 14 NonCon=     1 RMS=7.11D-09 Max=1.85D-07 NDo=     1
 LinEq1:  Iter= 15 NonCon=     1 RMS=2.51D-09 Max=5.81D-08 NDo=     1
 LinEq1:  Iter= 16 NonCon=     1 RMS=8.89D-10 Max=1.61D-08 NDo=     1
 LinEq1:  Iter= 17 NonCon=     1 RMS=2.84D-10 Max=3.34D-09 NDo=     1
 LinEq1:  Iter= 18 NonCon=     1 RMS=1.02D-10 Max=1.45D-09 NDo=     1
 LinEq1:  Iter= 19 NonCon=     0 RMS=3.43D-11 Max=6.88D-10 NDo=     1
 Linear equations converged to 1.000D-10 1.000D-09 after    19 iterations.
 End of Minotr F.D. properties file   721 does not exist.
 End of Minotr F.D. properties file   722 does not exist.
 End of Minotr F.D. properties file   788 does not exist.

 **********************************************************************

            Population analysis using the SCF Density.

 **********************************************************************

 Alpha  occ. eigenvalues --  -20.60206 -20.59969 -15.85018 -15.62840 -15.56815
 Alpha  occ. eigenvalues --  -11.35515 -11.30805 -11.29941 -11.29554 -11.27672
 Alpha  occ. eigenvalues --  -11.24482 -11.23784 -11.23335 -11.22790  -1.58886
 Alpha  occ. eigenvalues --   -1.38541  -1.28327  -1.22703  -1.13433  -1.08757
 Alpha  occ. eigenvalues --   -1.01734  -1.00685  -0.93690  -0.89010  -0.84804
 Alpha  occ. eigenvalues --   -0.81729  -0.78218  -0.77139  -0.74165  -0.71238
 Alpha  occ. eigenvalues --   -0.71010  -0.69184  -0.67029  -0.64469  -0.63138
 Alpha  occ. eigenvalues --   -0.61674  -0.60395  -0.57372  -0.56394  -0.54803
 Alpha  occ. eigenvalues --   -0.53645  -0.50750  -0.50182  -0.48614  -0.47929
 Alpha  occ. eigenvalues --   -0.47604  -0.46183  -0.45576  -0.44032  -0.42051
 Alpha  occ. eigenvalues --   -0.39938  -0.33244
 Alpha virt. eigenvalues --    0.08215   0.10957   0.18283   0.21168   0.23228
 Alpha virt. eigenvalues --    0.24201   0.25495   0.27743   0.28651   0.28778
 Alpha virt. eigenvalues --    0.29155   0.30873   0.31914   0.32367   0.33372
 Alpha virt. eigenvalues --    0.33874   0.34855   0.36160   0.37699   0.38691
 Alpha virt. eigenvalues --    0.40724   0.41745   0.44521   0.45160   0.45462
 Alpha virt. eigenvalues --    0.47353   0.48477   0.53604   0.57521   0.58314
 Alpha virt. eigenvalues --    0.62871   0.68837   0.69305   0.72202   0.74108
 Alpha virt. eigenvalues --    0.74548   0.75810   0.76030   0.77954   0.78896
 Alpha virt. eigenvalues --    0.80681   0.83057   0.84786   0.85436   0.88275
 Alpha virt. eigenvalues --    0.89221   0.89687   0.90929   0.91726   0.93536
 Alpha virt. eigenvalues --    0.94636   0.97172   0.98646   1.00626   1.01588
 Alpha virt. eigenvalues --    1.03752   1.05044   1.06559   1.07533   1.08334
 Alpha virt. eigenvalues --    1.10323   1.10556   1.10930   1.11569   1.12736
 Alpha virt. eigenvalues --    1.13300   1.13896   1.15123   1.15490   1.16464
 Alpha virt. eigenvalues --    1.17001   1.18041   1.18736   1.20972   1.21974
 Alpha virt. eigenvalues --    1.23080   1.23715   1.25815   1.26152   1.28327
 Alpha virt. eigenvalues --    1.31535   1.32000   1.34475   1.34889   1.37920
 Alpha virt. eigenvalues --    1.39561   1.40370   1.43722   1.47104   1.51289
 Alpha virt. eigenvalues --    1.53162   1.55485   1.60231   1.62133   1.67297
 Alpha virt. eigenvalues --    1.68247   1.71962   1.73213   1.73479   1.74998
 Alpha virt. eigenvalues --    1.77681   1.78540   1.84703   1.89132   1.90075
 Alpha virt. eigenvalues --    1.91966   1.96826   1.97631   1.99762   2.00288
 Alpha virt. eigenvalues --    2.02708   2.03781   2.05992   2.10080   2.12068
 Alpha virt. eigenvalues --    2.13486   2.15672   2.17846   2.18403   2.20280
 Alpha virt. eigenvalues --    2.21444   2.22492   2.25033   2.26109   2.26635
 Alpha virt. eigenvalues --    2.29841   2.31577   2.32887   2.34678   2.35348
 Alpha virt. eigenvalues --    2.38934   2.40031   2.40826   2.43662   2.44963
 Alpha virt. eigenvalues --    2.48541   2.50268   2.51507   2.56594   2.58099
 Alpha virt. eigenvalues --    2.60695   2.62979   2.65604   2.68322   2.69472
 Alpha virt. eigenvalues --    2.69782   2.71420   2.74028   2.75158   2.83049
 Alpha virt. eigenvalues --    2.85312   2.86951   2.88642   2.93983   2.94875
 Alpha virt. eigenvalues --    2.97058   2.99312   3.03052   3.04339   3.05928
 Alpha virt. eigenvalues --    3.07923   3.13308   3.18506   3.20811   3.25452
 Alpha virt. eigenvalues --    3.29141   3.33693   3.37752   3.41492   3.59377
 Alpha virt. eigenvalues --    4.09166   4.21638   4.23649   4.32750   4.43943
 Alpha virt. eigenvalues --    4.52833   4.59762   4.61450   4.71150   4.77129
 Alpha virt. eigenvalues --    4.97041   4.99346   5.03377   5.09941
          Condensed to atoms (all electrons):
               1          2          3          4          5          6
     1  O    8.315492   0.297081  -0.081128  -0.088717   0.009478   0.000269
     2  N    0.297081   5.755730   0.306848   0.242412  -0.044997   0.001256
     3  O   -0.081128   0.306848   8.292986  -0.082263   0.002071  -0.000028
     4  C   -0.088717   0.242412  -0.082263   5.252669   0.574346  -0.052513
     5  C    0.009478  -0.044997   0.002071   0.574346   4.649165   0.314340
     6  N    0.000269   0.001256  -0.000028  -0.052513   0.314340   7.179016
     7  C   -0.000003  -0.000095   0.000005   0.003645  -0.030030   0.204783
     8  H   -0.000000   0.000002  -0.000000  -0.000160   0.002400  -0.048969
     9  C    0.000000  -0.000005  -0.000000   0.000444   0.001866  -0.057763
    10  C    0.000000   0.000000  -0.000000  -0.000019  -0.000071   0.003389
    11  C   -0.000000  -0.000000  -0.000000  -0.000017   0.000017  -0.000155
    12  C    0.000000   0.000001  -0.000000  -0.000097  -0.000154   0.003597
    13  C    0.000001  -0.000036  -0.000025  -0.009552   0.000403  -0.045475
    14  H    0.000001  -0.000052  -0.000007   0.002391   0.004470  -0.005412
    15  N   -0.000034   0.001980   0.000041  -0.065056  -0.004569   0.002560
    16  C    0.001034  -0.025707   0.005197   0.318363  -0.033192  -0.001213
    17  H    0.006237  -0.002263  -0.000003  -0.033749   0.383787  -0.031722
    18  H    0.000010  -0.000048   0.000000   0.001530  -0.024038   0.328315
    19  H    0.000000   0.000001   0.000000  -0.000882   0.000647   0.000610
    20  H    0.000000  -0.000000  -0.000000  -0.000028   0.000013  -0.001444
    21  H   -0.000000  -0.000000   0.000000   0.000000   0.000001  -0.000060
    22  H    0.000000   0.000000  -0.000000  -0.000000  -0.000002  -0.000096
    23  H    0.000000  -0.000000  -0.000000   0.000024  -0.000000  -0.000023
    24  H    0.000000   0.000000  -0.000000   0.000000  -0.000000   0.000004
    25  H    0.000000  -0.000000   0.000000   0.000020  -0.000001  -0.000070
    26  H    0.000000  -0.000000  -0.000000   0.000005  -0.000001  -0.000068
    27  H   -0.000024   0.000440   0.002390  -0.074692   0.002050   0.000049
               7          8          9         10         11         12
     1  O   -0.000003  -0.000000   0.000000   0.000000  -0.000000   0.000000
     2  N   -0.000095   0.000002  -0.000005   0.000000  -0.000000   0.000001
     3  O    0.000005  -0.000000  -0.000000  -0.000000  -0.000000  -0.000000
     4  C    0.003645  -0.000160   0.000444  -0.000019  -0.000017  -0.000097
     5  C   -0.030030   0.002400   0.001866  -0.000071   0.000017  -0.000154
     6  N    0.204783  -0.048969  -0.057763   0.003389  -0.000155   0.003597
     7  C    5.006913   0.415954   0.341543  -0.049487  -0.007680  -0.064195
     8  H    0.415954   0.547225  -0.060310   0.001281  -0.000278  -0.003018
     9  C    0.341543  -0.060310   5.180298   0.317958  -0.053136  -0.005944
    10  C   -0.049487   0.001281   0.317958   5.127483   0.332701  -0.060290
    11  C   -0.007680  -0.000278  -0.053136   0.332701   5.124459   0.330492
    12  C   -0.064195  -0.003018  -0.005944  -0.060290   0.330492   5.137630
    13  C    0.329517  -0.039426  -0.051763  -0.001492  -0.048034   0.367702
    14  H   -0.040390  -0.000951   0.003838  -0.000386   0.003945  -0.040656
    15  N   -0.058814   0.003979  -0.012507   0.001491  -0.007808  -0.073977
    16  C   -0.002508   0.000001  -0.000658  -0.000048   0.000009   0.002541
    17  H    0.001591  -0.000032  -0.000066   0.000001   0.000000   0.000001
    18  H   -0.029342  -0.002880   0.000796  -0.000118   0.000011  -0.000140
    19  H   -0.035143   0.004079   0.386477  -0.032913  -0.002242   0.000613
    20  H   -0.041538  -0.001795   0.397250  -0.037358   0.004133  -0.000363
    21  H    0.004053  -0.000081  -0.035826   0.400038  -0.035888   0.004224
    22  H   -0.004276   0.003528  -0.045597   0.395867  -0.045607  -0.001253
    23  H    0.000429   0.000034  -0.001989  -0.040145   0.396711  -0.036693
    24  H   -0.000144  -0.000100   0.004387  -0.038476   0.400287  -0.037881
    25  H    0.004991  -0.000002  -0.000378   0.004099  -0.033924   0.395398
    26  H   -0.004477   0.001553   0.001054  -0.002411  -0.042247   0.394673
    27  H   -0.000409   0.000009  -0.000057   0.000005   0.000005  -0.000024
              13         14         15         16         17         18
     1  O    0.000001   0.000001  -0.000034   0.001034   0.006237   0.000010
     2  N   -0.000036  -0.000052   0.001980  -0.025707  -0.002263  -0.000048
     3  O   -0.000025  -0.000007   0.000041   0.005197  -0.000003   0.000000
     4  C   -0.009552   0.002391  -0.065056   0.318363  -0.033749   0.001530
     5  C    0.000403   0.004470  -0.004569  -0.033192   0.383787  -0.024038
     6  N   -0.045475  -0.005412   0.002560  -0.001213  -0.031722   0.328315
     7  C    0.329517  -0.040390  -0.058814  -0.002508   0.001591  -0.029342
     8  H   -0.039426  -0.000951   0.003979   0.000001  -0.000032  -0.002880
     9  C   -0.051763   0.003838  -0.012507  -0.000658  -0.000066   0.000796
    10  C   -0.001492  -0.000386   0.001491  -0.000048   0.000001  -0.000118
    11  C   -0.048034   0.003945  -0.007808   0.000009   0.000000   0.000011
    12  C    0.367702  -0.040656  -0.073977   0.002541   0.000001  -0.000140
    13  C    5.020170   0.403806   0.245092  -0.070354  -0.000059   0.003766
    14  H    0.403806   0.515708  -0.036019  -0.004578   0.000053   0.000012
    15  N    0.245092  -0.036019   6.925839   0.600421  -0.000044  -0.000126
    16  C   -0.070354  -0.004578   0.600421   4.666097   0.001582  -0.000155
    17  H   -0.000059   0.000053  -0.000044   0.001582   0.404072  -0.002189
    18  H    0.003766   0.000012  -0.000126  -0.000155  -0.002189   0.328068
    19  H   -0.006120   0.000062   0.006774   0.002416   0.000011  -0.000122
    20  H    0.003883  -0.000050   0.000078  -0.000031  -0.000003   0.002762
    21  H   -0.000388   0.000009  -0.000033   0.000002  -0.000000  -0.000000
    22  H    0.000327  -0.000043   0.000005  -0.000001   0.000000   0.000002
    23  H   -0.005878   0.000007   0.006733   0.000080   0.000000   0.000000
    24  H    0.004151  -0.000059   0.000038   0.000005   0.000000  -0.000000
    25  H   -0.034532  -0.002662   0.000864  -0.000053  -0.000000   0.000002
    26  H   -0.044705  -0.000885   0.004161  -0.000052   0.000000  -0.000001
    27  H    0.004960  -0.000157  -0.037802   0.405291  -0.000064   0.000002
              19         20         21         22         23         24
     1  O    0.000000   0.000000  -0.000000   0.000000   0.000000   0.000000
     2  N    0.000001  -0.000000  -0.000000   0.000000  -0.000000   0.000000
     3  O    0.000000  -0.000000   0.000000  -0.000000  -0.000000  -0.000000
     4  C   -0.000882  -0.000028   0.000000  -0.000000   0.000024   0.000000
     5  C    0.000647   0.000013   0.000001  -0.000002  -0.000000  -0.000000
     6  N    0.000610  -0.001444  -0.000060  -0.000096  -0.000023   0.000004
     7  C   -0.035143  -0.041538   0.004053  -0.004276   0.000429  -0.000144
     8  H    0.004079  -0.001795  -0.000081   0.003528   0.000034  -0.000100
     9  C    0.386477   0.397250  -0.035826  -0.045597  -0.001989   0.004387
    10  C   -0.032913  -0.037358   0.400038   0.395867  -0.040145  -0.038476
    11  C   -0.002242   0.004133  -0.035888  -0.045607   0.396711   0.400287
    12  C    0.000613  -0.000363   0.004224  -0.001253  -0.036693  -0.037881
    13  C   -0.006120   0.003883  -0.000388   0.000327  -0.005878   0.004151
    14  H    0.000062  -0.000050   0.000009  -0.000043   0.000007  -0.000059
    15  N    0.006774   0.000078  -0.000033   0.000005   0.006733   0.000038
    16  C    0.002416  -0.000031   0.000002  -0.000001   0.000080   0.000005
    17  H    0.000011  -0.000003  -0.000000   0.000000   0.000000   0.000000
    18  H   -0.000122   0.002762  -0.000000   0.000002   0.000000  -0.000000
    19  H    0.507572  -0.023858  -0.002594   0.003768   0.001649  -0.000071
    20  H   -0.023858   0.549115  -0.002638  -0.002945  -0.000050  -0.000090
    21  H   -0.002594  -0.002638   0.526679  -0.024739  -0.002823  -0.002071
    22  H    0.003768  -0.002945  -0.024739   0.569227   0.004067  -0.003591
    23  H    0.001649  -0.000050  -0.002823   0.004067   0.510367  -0.025027
    24  H   -0.000071  -0.000090  -0.002071  -0.003591  -0.025027   0.541381
    25  H   -0.000027   0.000011  -0.000086  -0.000082  -0.002081  -0.002391
    26  H    0.000023  -0.000035  -0.000073   0.002457   0.003820  -0.002751
    27  H    0.000083   0.000000  -0.000000   0.000000  -0.000021  -0.000000
              25         26         27
     1  O    0.000000   0.000000  -0.000024
     2  N   -0.000000  -0.000000   0.000440
     3  O    0.000000  -0.000000   0.002390
     4  C    0.000020   0.000005  -0.074692
     5  C   -0.000001  -0.000001   0.002050
     6  N   -0.000070  -0.000068   0.000049
     7  C    0.004991  -0.004477  -0.000409
     8  H   -0.000002   0.001553   0.000009
     9  C   -0.000378   0.001054  -0.000057
    10  C    0.004099  -0.002411   0.000005
    11  C   -0.033924  -0.042247   0.000005
    12  C    0.395398   0.394673  -0.000024
    13  C   -0.034532  -0.044705   0.004960
    14  H   -0.002662  -0.000885  -0.000157
    15  N    0.000864   0.004161  -0.037802
    16  C   -0.000053  -0.000052   0.405291
    17  H   -0.000000   0.000000  -0.000064
    18  H    0.000002  -0.000001   0.000002
    19  H   -0.000027   0.000023   0.000083
    20  H    0.000011  -0.000035   0.000000
    21  H   -0.000086  -0.000073  -0.000000
    22  H   -0.000082   0.002457   0.000000
    23  H   -0.002081   0.003820  -0.000021
    24  H   -0.002391  -0.002751  -0.000000
    25  H    0.510415  -0.023128  -0.000011
    26  H   -0.023128   0.560827   0.000001
    27  H   -0.000011   0.000001   0.470067
 Mulliken charges:
               1
     1  O   -0.459697
     2  N    0.467453
     3  O   -0.446085
     4  C    0.011898
     5  C    0.192004
     6  N   -0.793177
     7  C    0.055103
     8  H    0.177956
     9  C   -0.309912
    10  C   -0.321099
    11  C   -0.315753
    12  C   -0.312187
    13  C   -0.025939
    14  H    0.198005
    15  N   -0.503268
    16  C    0.135512
    17  H    0.272859
    18  H    0.393879
    19  H    0.189187
    20  H    0.154979
    21  H    0.172295
    22  H    0.148983
    23  H    0.190808
    24  H    0.162397
    25  H    0.183629
    26  H    0.152259
    27  H    0.227910
 Sum of Mulliken charges =  -0.00000
 Mulliken charges with hydrogens summed into heavy atoms:
               1
     1  O   -0.459697
     2  N    0.467453
     3  O   -0.446085
     4  C    0.011898
     5  C    0.464863
     6  N   -0.399298
     7  C    0.233059
     9  C    0.034254
    10  C    0.000179
    11  C    0.037453
    12  C    0.023701
    13  C    0.172066
    15  N   -0.503268
    16  C    0.363421
 Electronic spatial extent (au):  <R**2>=           3090.0982
 Charge=             -0.0000 electrons
 Dipole moment (field-independent basis, Debye):
    X=              4.9786    Y=              4.3843    Z=              0.4262  Tot=              6.6476
 Quadrupole moment (field-independent basis, Debye-Ang):
   XX=           -103.1280   YY=            -78.8102   ZZ=            -84.2317
   XY=             -1.9331   XZ=             -0.5813   YZ=              2.5097
 Traceless Quadrupole moment (field-independent basis, Debye-Ang):
   XX=            -14.4047   YY=              9.9131   ZZ=              4.4916
   XY=             -1.9331   XZ=             -0.5813   YZ=              2.5097
 Octapole moment (field-independent basis, Debye-Ang**2):
  XXX=             86.6188  YYY=             33.5300  ZZZ=             -3.4046  XYY=             -8.5218
  XXY=             14.0505  XXZ=              7.6751  XZZ=             -1.6157  YZZ=             -3.2717
  YYZ=             -3.9315  XYZ=            -10.9163
 Hexadecapole moment (field-independent basis, Debye-Ang**3):
 XXXX=          -3449.8029 YYYY=           -588.4867 ZZZZ=           -334.9530 XXXY=            -50.8031
 XXXZ=            -37.3456 YYYX=             -6.8952 YYYZ=             45.0427 ZZZX=             -7.7016
 ZZZY=             44.6426 XXYY=           -621.2703 XXZZ=           -566.2091 YYZZ=           -167.5942
 XXYZ=             51.9694 YYXZ=              8.8472 ZZXY=              2.8072
 N-N= 9.195075777270D+02 E-N=-3.385087868238D+03  KE= 6.589393496923D+02
 Calling FoFJK, ICntrl=  10002127 FMM=F ISym2X=0 I1Cent= 0 IOpClX= 0 NMat=1 NMatS=1 NMatT=0.
 -------------------------------------------------------------------
 Center     Atomic                   Forces (Hartrees/Bohr)
 Number     Number              X              Y              Z
 -------------------------------------------------------------------
      1        8          -0.013595494    0.016573911   -0.005813116
      2        7           0.041072865    0.004862967   -0.008498497
      3        8          -0.004995778   -0.017704133    0.010967417
      4        6           0.001054300    0.013328280    0.008643626
      5        6           0.005612703   -0.020013486   -0.006166772
      6        7           0.017544781   -0.005318159   -0.004253561
      7        6          -0.005859890    0.005824717    0.002070858
      8        1          -0.010433199   -0.002443751   -0.007343230
      9        6          -0.003746122   -0.000061608   -0.001954404
     10        6           0.002792089   -0.000841895    0.000856816
     11        6          -0.000811724   -0.004680770   -0.001890549
     12        6           0.000684655   -0.009278492   -0.002371499
     13        6           0.008510032   -0.000799222    0.003293486
     14        1           0.000714427    0.003173002   -0.010555821
     15        7           0.000536663   -0.002225520    0.003147136
     16        6          -0.017217822    0.011842704    0.006998343
     17        1           0.009006233   -0.005441060   -0.004270283
     18        1          -0.017375815   -0.001808405    0.005059315
     19        1           0.003151840    0.006488374    0.007042762
     20        1          -0.003244161   -0.007204432    0.003292048
     21        1          -0.004189654    0.003186006    0.009434308
     22        1          -0.004075572   -0.004596343   -0.006972023
     23        1           0.004033428    0.006859457    0.008698450
     24        1          -0.009405617    0.002374315   -0.002237316
     25        1          -0.000859695    0.010360277   -0.003328312
     26        1          -0.004859670   -0.005137065   -0.003931963
     27        1           0.005956197    0.002680332    0.000082780
 -------------------------------------------------------------------
 Cartesian Forces:  Max     0.041072865 RMS     0.008755329

 GradGradGradGradGradGradGradGradGradGradGradGradGradGradGradGradGradGrad
 Berny optimization.
 FormGI is forming the generalized inverse of G from B-inverse, IUseBI=4.
 Internal  Forces:  Max     0.031116270 RMS     0.006356150
 Search for a local minimum.
 Step number   1 out of a maximum of   20
 All quantities printed in internal units (Hartrees-Bohrs-Radians)
 Mixed Optimization -- RFO/linear search
 Second derivative matrix not updated -- first step.
 ITU=  0
     Eigenvalues ---    0.00388   0.00770   0.01087   0.01172   0.01238
     Eigenvalues ---    0.01487   0.01536   0.01632   0.01994   0.02045
     Eigenvalues ---    0.02126   0.02679   0.03661   0.04508   0.04696
     Eigenvalues ---    0.04837   0.05073   0.05139   0.05302   0.05876
     Eigenvalues ---    0.06268   0.07212   0.07699   0.07717   0.07859
     Eigenvalues ---    0.07995   0.08041   0.08049   0.10458   0.11735
     Eigenvalues ---    0.12265   0.13375   0.15153   0.15597   0.15990
     Eigenvalues ---    0.16000   0.20097   0.22049   0.23264   0.24966
     Eigenvalues ---    0.25000   0.25000   0.25341   0.26172   0.26653
     Eigenvalues ---    0.27985   0.28081   0.28447   0.31474   0.31821
     Eigenvalues ---    0.32048   0.32239   0.32291   0.32355   0.32380
     Eigenvalues ---    0.32388   0.32404   0.32512   0.32527   0.32585
     Eigenvalues ---    0.33342   0.33585   0.33829   0.35281   0.43881
     Eigenvalues ---    0.44992   0.49491   0.67249   0.90914   0.91619
     Eigenvalues --- 1000.000001000.000001000.000001000.000001000.00000
     Eigenvalues --- 1000.000001000.000001000.000001000.000001000.00000
     Eigenvalues --- 1000.000001000.000001000.000001000.000001000.00000
     Eigenvalues --- 1000.000001000.000001000.000001000.000001000.00000
     Eigenvalues --- 1000.000001000.000001000.000001000.000001000.00000
     Eigenvalues --- 1000.000001000.000001000.000001000.000001000.00000
     Eigenvalues --- 1000.000001000.000001000.000001000.000001000.00000
     Eigenvalues --- 1000.000001000.000001000.000001000.000001000.00000
     Eigenvalues --- 1000.000001000.000001000.000001000.000001000.00000
     Eigenvalues --- 1000.000001000.000001000.000001000.000001000.00000
     Eigenvalues --- 1000.000001000.000001000.000001000.000001000.00000
     Eigenvalues --- 1000.000001000.000001000.000001000.000001000.00000
     Eigenvalues --- 1000.000001000.000001000.000001000.000001000.00000
     Eigenvalues --- 1000.000001000.000001000.000001000.000001000.00000
     Eigenvalues --- 1000.000001000.000001000.000001000.000001000.00000
     Eigenvalues --- 1000.000001000.000001000.000001000.000001000.00000
     Eigenvalues --- 1000.000001000.000001000.000001000.000001000.00000
     Eigenvalues --- 1000.000001000.000001000.000001000.000001000.00000
     Eigenvalues --- 1000.00000
 RFO step:  Lambda=-2.00466336D-02 EMin= 3.88491353D-03
 Linear search not attempted -- first point.
 Iteration  1 RMS(Cart)=  0.04921910 RMS(Int)=  0.00107100
 Iteration  2 RMS(Cart)=  0.00120733 RMS(Int)=  0.00022954
 Iteration  3 RMS(Cart)=  0.00000080 RMS(Int)=  0.00022954
 Iteration  1 RMS(Cart)=  0.00002976 RMS(Int)=  0.00002312
 Iteration  2 RMS(Cart)=  0.00001454 RMS(Int)=  0.00002566
 Iteration  3 RMS(Cart)=  0.00000788 RMS(Int)=  0.00002852
 Iteration  4 RMS(Cart)=  0.00000484 RMS(Int)=  0.00003038
 Iteration  5 RMS(Cart)=  0.00000336 RMS(Int)=  0.00003156
 Iteration  6 RMS(Cart)=  0.00000256 RMS(Int)=  0.00003237
 Iteration  7 RMS(Cart)=  0.00000208 RMS(Int)=  0.00003297
 Iteration  8 RMS(Cart)=  0.00000175 RMS(Int)=  0.00003344
 Iteration  9 RMS(Cart)=  0.00000150 RMS(Int)=  0.00003383
 Iteration 10 RMS(Cart)=  0.00000130 RMS(Int)=  0.00003417
 Iteration 11 RMS(Cart)=  0.00000114 RMS(Int)=  0.00003447
 Iteration 12 RMS(Cart)=  0.00000099 RMS(Int)=  0.00003473
 Variable       Old X    -DE/DX   Delta X   Delta X   Delta X     New X
                                 (Linear)    (Quad)   (Total)
    R1        2.32515   0.02095   0.00000   0.02254   0.02254   2.34769
    R2        2.32195   0.02130   0.00000   0.02275   0.02275   2.34470
    R3        2.83500  -0.02271   0.00000  -0.06610  -0.06610   2.76890
    R4        2.63596  -0.03112   0.00000  -0.06674  -0.06650   2.56946
    R5        2.79772  -0.02026   0.00000  -0.05816  -0.05799   2.73974
    R6        2.58887  -0.02129   0.00000  -0.04111  -0.04098   2.54788
    R7        2.08455  -0.01064   0.00000  -0.03009  -0.03009   2.05445
    R8        2.82570  -0.02018   0.00000  -0.05611  -0.05619   2.76951
    R9        1.93298  -0.00683   0.00000  -0.01488  -0.01488   1.91809
   R10        2.11816  -0.01207   0.00000  -0.03606  -0.03606   2.08210
   R11        2.92750  -0.01276   0.00000  -0.04390  -0.04391   2.88359
   R12        2.90515  -0.00401   0.00000  -0.00774  -0.00783   2.89732
   R13        2.91148  -0.00459   0.00000  -0.01438  -0.01440   2.89708
   R14        2.09917  -0.00986   0.00000  -0.02857  -0.02857   2.07059
   R15        2.09890  -0.00813   0.00000  -0.02355  -0.02355   2.07536
   R16        2.90432  -0.00194   0.00000  -0.00750  -0.00756   2.89676
   R17        2.10140  -0.01055   0.00000  -0.03067  -0.03067   2.07073
   R18        2.10315  -0.00900   0.00000  -0.02625  -0.02625   2.07691
   R19        2.91743  -0.00915   0.00000  -0.02947  -0.02946   2.88797
   R20        2.10408  -0.01163   0.00000  -0.03395  -0.03395   2.07013
   R21        2.10111  -0.00993   0.00000  -0.02886  -0.02886   2.07226
   R22        2.93524  -0.01057   0.00000  -0.03685  -0.03684   2.89840
   R23        2.10155  -0.01076   0.00000  -0.03129  -0.03129   2.07026
   R24        2.09786  -0.00789   0.00000  -0.02280  -0.02280   2.07506
   R25        2.10757  -0.00946   0.00000  -0.02778  -0.02778   2.07979
   R26        2.77063  -0.00613   0.00000  -0.01377  -0.01400   2.75663
   R27        2.44191  -0.00554   0.00000  -0.00790  -0.00793   2.43398
   R28        2.08036  -0.00486   0.00000  -0.01364  -0.01364   2.06671
    A1        2.18810   0.00098   0.00000   0.00358   0.00348   2.19158
    A2        2.05075   0.00378   0.00000   0.01395   0.01385   2.06459
    A3        2.04152  -0.00423   0.00000  -0.01574  -0.01584   2.02569
    A4        2.00943  -0.00197   0.00000  -0.00462  -0.00559   2.00383
    A5        2.02206  -0.00377   0.00000  -0.01125  -0.01225   2.00981
    A6        2.25020   0.00571   0.00000   0.01212   0.01172   2.26192
    A7        2.19149   0.00895   0.00000   0.03122   0.03163   2.22312
    A8        2.06065  -0.00269   0.00000  -0.00550  -0.00574   2.05491
    A9        2.03006  -0.00622   0.00000  -0.02513  -0.02539   2.00467
   A10        2.25245  -0.00693   0.00000  -0.02461  -0.02451   2.22794
   A11        2.11085  -0.01140   0.00000  -0.06909  -0.06933   2.04152
   A12        1.87058   0.01836   0.00000   0.10006   0.10016   1.97074
   A13        1.83796  -0.00190   0.00000  -0.01913  -0.01892   1.81904
   A14        2.00551  -0.00102   0.00000  -0.01338  -0.01334   1.99217
   A15        1.97011   0.00145   0.00000   0.00249   0.00185   1.97196
   A16        1.85258   0.00280   0.00000   0.02502   0.02479   1.87737
   A17        1.84916   0.00094   0.00000   0.02079   0.02073   1.86989
   A18        1.93462  -0.00195   0.00000  -0.01110  -0.01079   1.92383
   A19        1.91007   0.00040   0.00000  -0.00425  -0.00438   1.90569
   A20        1.92206  -0.00074   0.00000  -0.01373  -0.01370   1.90836
   A21        1.92297  -0.00180   0.00000  -0.00742  -0.00744   1.91552
   A22        1.91933  -0.00047   0.00000   0.00579   0.00573   1.92506
   A23        1.90479   0.00300   0.00000   0.02549   0.02551   1.93030
   A24        1.88442  -0.00036   0.00000  -0.00546  -0.00573   1.87869
   A25        1.94066  -0.00088   0.00000   0.00604   0.00587   1.94654
   A26        1.91883  -0.00062   0.00000  -0.00676  -0.00677   1.91206
   A27        1.90494   0.00025   0.00000  -0.00314  -0.00319   1.90175
   A28        1.91607   0.00072   0.00000   0.00735   0.00740   1.92347
   A29        1.89852   0.00176   0.00000   0.01139   0.01144   1.90997
   A30        1.88376  -0.00123   0.00000  -0.01540  -0.01550   1.86827
   A31        1.94457   0.00067   0.00000   0.00529   0.00549   1.95006
   A32        1.90249   0.00061   0.00000   0.00635   0.00626   1.90875
   A33        1.91728   0.00041   0.00000   0.00556   0.00553   1.92281
   A34        1.90692  -0.00124   0.00000  -0.01508  -0.01515   1.89177
   A35        1.91528  -0.00041   0.00000   0.00037   0.00025   1.91553
   A36        1.87593  -0.00007   0.00000  -0.00287  -0.00290   1.87303
   A37        1.94628  -0.00291   0.00000  -0.01914  -0.01920   1.92709
   A38        1.90621   0.00245   0.00000   0.01695   0.01676   1.92297
   A39        1.91126   0.00144   0.00000   0.01436   0.01437   1.92564
   A40        1.90629   0.00021   0.00000  -0.00335  -0.00315   1.90314
   A41        1.91199  -0.00029   0.00000  -0.00482  -0.00476   1.90723
   A42        1.88060  -0.00083   0.00000  -0.00347  -0.00368   1.87692
   A43        1.84573   0.00470   0.00000   0.02499   0.02506   1.87079
   A44        1.93567  -0.00433   0.00000  -0.03041  -0.03089   1.90478
   A45        1.98962   0.00122   0.00000   0.01336   0.01350   2.00312
   A46        1.88150   0.00230   0.00000   0.03206   0.03233   1.91383
   A47        1.89130  -0.00447   0.00000  -0.03152  -0.03157   1.85973
   A48        1.91534   0.00077   0.00000  -0.00596  -0.00569   1.90964
   A49        2.08776  -0.00653   0.00000  -0.01836  -0.01839   2.06937
   A50        2.24604  -0.00220   0.00000  -0.01209  -0.01218   2.23385
   A51        1.97683   0.00477   0.00000   0.02625   0.02569   2.00251
   A52        2.06027  -0.00259   0.00000  -0.01464  -0.01518   2.04509
    D1        0.81925  -0.00761   0.00000  -0.06666  -0.06605   0.75321
    D2       -2.26894  -0.00736   0.00000   0.00000   0.00000  -2.26894
    D3       -2.39853  -0.00034   0.00000  -0.04233  -0.04202  -2.44055
    D4        0.79647  -0.00009   0.00000   0.02433   0.02402   0.82049
    D5        3.08036   0.00019   0.00000   0.03559   0.03567   3.11603
    D6       -0.01171  -0.00041   0.00000   0.02138   0.02142   0.00971
    D7       -0.12302  -0.00050   0.00000  -0.04250  -0.04300  -0.16602
    D8        3.06809  -0.00110   0.00000  -0.05671  -0.05724   3.01085
    D9       -2.79614  -0.00104   0.00000  -0.05929  -0.05983  -2.85597
   D10        0.35646   0.00114   0.00000  -0.00524  -0.00526   0.35120
   D11        0.40761  -0.00040   0.00000   0.01907   0.01886   0.42647
   D12       -2.72297   0.00178   0.00000   0.07312   0.07342  -2.64955
   D13       -0.04106   0.00016   0.00000   0.02901   0.02920  -0.01187
   D14        2.72374   0.00382   0.00000   0.07148   0.07101   2.79475
   D15        3.05178   0.00083   0.00000   0.04346   0.04354   3.09532
   D16       -0.46660   0.00449   0.00000   0.08593   0.08535  -0.38125
   D17       -2.55316  -0.00070   0.00000  -0.01452  -0.01411  -2.56727
   D18        1.69810  -0.00235   0.00000  -0.02550  -0.02513   1.67298
   D19       -0.54372   0.00002   0.00000   0.00019   0.00029  -0.54343
   D20        0.92506   0.00045   0.00000  -0.02677  -0.02701   0.89805
   D21       -1.10686  -0.00120   0.00000  -0.03774  -0.03803  -1.14489
   D22        2.93451   0.00117   0.00000  -0.01206  -0.01262   2.92189
   D23        2.94233   0.00214   0.00000   0.02763   0.02757   2.96991
   D24       -1.22899   0.00134   0.00000   0.02341   0.02335  -1.20564
   D25        0.84787  -0.00069   0.00000   0.00349   0.00352   0.85138
   D26        0.91879   0.00319   0.00000   0.04208   0.04213   0.96091
   D27        3.03065   0.00239   0.00000   0.03785   0.03790   3.06855
   D28       -1.17568   0.00036   0.00000   0.01793   0.01807  -1.15761
   D29       -1.08142   0.00149   0.00000   0.00927   0.00921  -1.07220
   D30        1.03045   0.00070   0.00000   0.00504   0.00499   1.03544
   D31        3.10730  -0.00133   0.00000  -0.01487  -0.01484   3.09246
   D32       -2.89792  -0.00101   0.00000  -0.01467  -0.01441  -2.91234
   D33       -0.86283   0.00219   0.00000   0.02209   0.02193  -0.84090
   D34        1.30939   0.00069   0.00000   0.00000   0.00001   1.30939
   D35       -0.89521  -0.00199   0.00000  -0.02395  -0.02378  -0.91900
   D36        1.13988   0.00121   0.00000   0.01282   0.01256   1.15244
   D37       -2.97109  -0.00029   0.00000  -0.00928  -0.00936  -2.98045
   D38        1.10713   0.00087   0.00000   0.01150   0.01165   1.11878
   D39       -3.14096   0.00408   0.00000   0.04827   0.04800  -3.09297
   D40       -0.96875   0.00257   0.00000   0.02617   0.02607  -0.94268
   D41        0.95665   0.00077   0.00000   0.00000   0.00001   0.95666
   D42        3.08229   0.00068   0.00000   0.00871   0.00865   3.09095
   D43       -1.13780  -0.00103   0.00000  -0.01588  -0.01584  -1.15365
   D44       -1.15687   0.00173   0.00000   0.01604   0.01612  -1.14075
   D45        0.96877   0.00164   0.00000   0.02475   0.02477   0.99354
   D46        3.03186  -0.00007   0.00000   0.00016   0.00027   3.03213
   D47        3.06222   0.00066   0.00000   0.00400   0.00398   3.06620
   D48       -1.09532   0.00056   0.00000   0.01271   0.01262  -1.08270
   D49        0.96776  -0.00114   0.00000  -0.01188  -0.01188   0.95589
   D50       -0.92192  -0.00066   0.00000   0.00000   0.00001  -0.92191
   D51        1.18383  -0.00137   0.00000  -0.01127  -0.01128   1.17255
   D52       -3.04812  -0.00086   0.00000  -0.00781  -0.00786  -3.05598
   D53       -3.04916   0.00022   0.00000  -0.00048  -0.00045  -3.04961
   D54       -0.94341  -0.00050   0.00000  -0.01175  -0.01174  -0.95516
   D55        1.10782   0.00001   0.00000  -0.00829  -0.00832   1.09950
   D56        1.17634   0.00025   0.00000   0.00722   0.00726   1.18360
   D57       -3.00109  -0.00047   0.00000  -0.00405  -0.00403  -3.00513
   D58       -0.94986   0.00005   0.00000  -0.00059  -0.00061  -0.95047
   D59        0.98977  -0.00091   0.00000  -0.01188  -0.01197   0.97780
   D60        3.09830  -0.00087   0.00000  -0.01704  -0.01723   3.08106
   D61       -1.12931   0.00039   0.00000  -0.00300  -0.00299  -1.13231
   D62       -1.11338  -0.00128   0.00000  -0.01320  -0.01321  -1.12660
   D63        0.99514  -0.00124   0.00000  -0.01836  -0.01848   0.97666
   D64        3.05072   0.00001   0.00000  -0.00432  -0.00424   3.04648
   D65        3.11713  -0.00023   0.00000  -0.00108  -0.00109   3.11604
   D66       -1.05753  -0.00020   0.00000  -0.00624  -0.00636  -1.06388
   D67        0.99805   0.00106   0.00000   0.00780   0.00788   1.00593
   D68       -1.05647  -0.00009   0.00000  -0.00128  -0.00116  -1.05763
   D69       -3.12790   0.00135   0.00000   0.00512   0.00469  -3.12321
   D70        1.08341   0.00161   0.00000   0.01169   0.01150   1.09491
   D71        3.11824  -0.00143   0.00000  -0.00799  -0.00777   3.11047
   D72        1.04681   0.00001   0.00000  -0.00159  -0.00192   1.04489
   D73       -1.02506   0.00027   0.00000   0.00498   0.00489  -1.02018
   D74        1.06219  -0.00038   0.00000   0.00098   0.00123   1.06342
   D75       -1.00924   0.00106   0.00000   0.00737   0.00708  -1.00216
   D76       -3.08111   0.00132   0.00000   0.01394   0.01389  -3.06723
   D77       -1.17216   0.00386   0.00000   0.00000   0.00001  -1.17215
   D78        3.06123   0.00026   0.00000  -0.01810  -0.01789   3.04334
   D79        1.01091  -0.00036   0.00000  -0.03508  -0.03537   0.97553
   D80        0.20045   0.00032   0.00000   0.00251   0.00225   0.20269
   D81       -2.95260  -0.00191   0.00000  -0.05354  -0.05324  -3.00585
         Item               Value     Threshold  Converged?
 Maximum Force            0.030852     0.000450     NO 
 RMS     Force            0.006371     0.000300     NO 
 Maximum Displacement     0.214505     0.001800     NO 
 RMS     Displacement     0.049568     0.001200     NO 
 Predicted change in Energy=-1.120664D-02
 GradGradGradGradGradGradGradGradGradGradGradGradGradGradGradGradGradGrad

                          Input orientation:                          
 ---------------------------------------------------------------------
 Center     Atomic      Atomic             Coordinates (Angstroms)
 Number     Number       Type             X           Y           Z
 ---------------------------------------------------------------------
      1          8           0       -3.794399    0.534897   -0.794918
      2          7           0       -3.117833   -0.238474   -0.096656
      3          8           0       -3.548903   -1.239368    0.496542
      4          6           0       -1.673636   -0.008421   -0.005558
      5          6           0       -1.312129    1.292402    0.155550
      6          7           0       -0.064340    1.783935    0.294414
      7          6           0        1.195281    1.035175    0.318564
      8          1           0        1.838506    1.609505    1.004403
      9          6           0        1.906118    0.965887   -1.029905
     10          6           0        3.309238    0.381285   -0.830410
     11          6           0        3.257382   -0.975573   -0.119052
     12          6           0        2.457849   -0.902501    1.181311
     13          6           0        1.044762   -0.370769    0.911319
     14          1           0        0.486733   -0.305468    1.857687
     15          7           0        0.397397   -1.338494    0.032476
     16          6           0       -0.847145   -1.173133   -0.255149
     17          1           0       -2.104573    2.034582    0.211580
     18          1           0        0.066300    2.770882    0.096636
     19          1           0        1.325934    0.336685   -1.714063
     20          1           0        1.965023    1.970167   -1.470435
     21          1           0        3.806104    0.280592   -1.801865
     22          1           0        3.907522    1.084247   -0.233909
     23          1           0        2.782154   -1.712175   -0.776027
     24          1           0        4.273164   -1.331941    0.089996
     25          1           0        2.384870   -1.896361    1.636401
     26          1           0        2.961142   -0.244603    1.902169
     27          1           0       -1.343541   -1.976949   -0.806111
 ---------------------------------------------------------------------
                    Distance matrix (angstroms):
                    1          2          3          4          5
     1  O    0.000000
     2  N    1.242342   0.000000
     3  O    2.208201   1.240763   0.000000
     4  C    2.327212   1.465239   2.298686   0.000000
     5  C    2.763850   2.380705   3.395482   1.359700   0.000000
     6  N    4.081676   3.683326   4.617727   2.427418   1.348282
     7  C    5.136831   4.516364   5.264267   3.069990   2.525835
     8  H    6.010154   5.403023   6.115405   3.996605   3.278354
     9  C    5.721614   5.249907   6.078688   3.848792   3.445145
    10  C    7.105386   6.498441   7.170873   5.065697   4.812409
    11  C    7.243337   6.417724   6.839157   5.026252   5.108771
    12  C    6.712838   5.758677   6.055036   4.390582   4.481352
    13  C    5.210466   4.284940   4.693428   2.891652   2.981989
    14  H    5.105939   4.100833   4.360188   2.868294   2.947263
    15  N    4.665333   3.685588   3.974729   2.461650   3.139943
    16  C    3.448916   2.460636   2.805160   1.449806   2.542390
    17  H    2.473379   2.507686   3.589713   2.099218   1.087170
    18  H    4.549670   4.385463   5.414030   3.280602   2.022236
    19  H    5.205951   4.763809   5.579852   3.469223   3.371679
    20  H    5.973882   5.709710   6.676339   4.393236   3.720607
    21  H    7.671132   7.149690   7.854240   5.773890   5.572390
    22  H    7.741841   7.150107   7.844171   5.691695   5.238297
    23  H    6.949873   6.119084   6.474972   4.832232   5.163184
    24  H    8.327889   7.473777   7.833172   6.093051   6.171464
    25  H    7.071470   6.002650   6.077876   4.767790   5.101855
    26  H    7.315684   6.399162   6.733946   5.017606   4.865583
    27  H    3.509444   2.583357   2.665436   2.150569   3.407995
                    6          7          8          9         10
     6  N    0.000000
     7  C    1.465561   0.000000
     8  H    2.038463   1.101802   0.000000
     9  C    2.511120   1.525929   2.134765   0.000000
    10  C    3.822784   2.493296   2.652944   1.533070   0.000000
    11  C    4.338165   2.913224   3.155628   2.534726   1.532900
    12  C    3.790114   2.468400   2.593272   2.946991   2.533770
    13  C    2.500685   1.533197   2.135458   2.509369   2.954159
    14  H    2.667041   2.160617   2.494495   3.459651   3.957781
    15  N    3.167234   2.520471   3.422300   2.952129   3.490133
    16  C    3.107902   3.062234   4.067219   3.571570   4.474669
    17  H    2.057240   3.449536   4.044395   4.332324   5.755734
    18  H    1.015011   2.082434   2.305114   2.812833   4.133550
    19  H    2.839255   2.153261   3.045136   1.095710   2.171710
    20  H    2.695865   2.160378   2.504178   1.098233   2.177405
    21  H    4.651318   3.447029   3.675947   2.162290   1.095783
    22  H    4.067477   2.768372   2.467820   2.157136   1.099051
    23  H    4.633697   3.356222   3.885094   2.829118   2.159479
    24  H    5.344568   3.889581   3.926296   3.483834   2.170586
    25  H    4.619971   3.427203   3.604030   3.940921   3.482425
    26  H    3.981630   2.695162   2.346062   3.342965   2.824870
    27  H    4.122105   4.096755   5.125039   4.389834   5.216340
                   11         12         13         14         15
    11  C    0.000000
    12  C    1.528246   0.000000
    13  C    2.514585   1.533770   0.000000
    14  H    3.468867   2.167772   1.100579   0.000000
    15  N    2.886899   2.399035   1.458745   2.099171   0.000000
    16  C    4.111532   3.613813   2.362995   2.645023   1.288005
    17  H    6.157996   5.512035   4.024134   3.860099   4.203519
    18  H    4.925998   4.515503   3.389848   3.569593   4.123192
    19  H    2.827821   3.346640   2.733528   3.724784   2.592065
    20  H    3.489099   3.940413   3.464046   4.294212   3.957706
    21  H    2.170462   3.480925   3.925640   4.975340   4.195895
    22  H    2.163038   2.837528   3.409401   4.243569   4.273361
    23  H    1.095464   2.142876   2.768580   3.766196   2.545659
    24  H    1.096591   2.161193   3.467132   4.302957   3.876199
    25  H    2.165813   1.095532   2.156169   2.486530   2.614161
    26  H    2.169656   1.098076   2.161068   2.475557   3.356358
    27  H    4.758497   4.422086   3.351621   3.638621   2.035121
                   16         17         18         19         20
    16  C    0.000000
    17  H    3.476837   0.000000
    18  H    4.063667   2.295221   0.000000
    19  H    3.021631   4.284779   3.284909   0.000000
    20  H    4.389254   4.403968   2.588824   1.770891   0.000000
    21  H    5.114526   6.485872   4.877703   2.482357   2.520731
    22  H    5.263371   6.103022   4.208204   3.068273   2.467215
    23  H    3.705899   6.236478   5.313681   2.682967   3.835303
    24  H    5.134385   7.212751   5.876300   3.837330   4.320460
    25  H    3.814045   6.134943   5.434133   4.163345   4.977825
    26  H    4.474286   5.806396   4.553373   4.011101   4.155949
    27  H    1.093657   4.207997   5.034332   3.647379   5.193038
                   21         22         23         24         25
    21  H    0.000000
    22  H    1.764832   0.000000
    23  H    2.464130   3.062731   0.000000
    24  H    2.529337   2.465071   1.765697   0.000000
    25  H    4.310534   3.834130   2.451850   2.505114   0.000000
    26  H    3.835317   2.687807   3.059173   2.487504   1.769471
    27  H    5.710242   6.105079   4.134292   5.724196   4.457960
                   26         27
    26  H    0.000000
    27  H    5.372718   0.000000
 Symmetry turned off by external request.
 Stoichiometry    C9H13N3O2
 Framework group  C1[X(C9H13N3O2)]
 Deg. of freedom    75
 Full point group                 C1      NOp   1
 Rotational constants (GHZ):           1.6679846           0.4211904           0.3750374
 Standard basis: 6-31G(d) (6D, 7F)
   236 basis functions,   444 primitive gaussians,   236 cartesian basis functions
    52 alpha electrons       52 beta electrons
       nuclear repulsion energy       931.3071934065 Hartrees.
 NAtoms=   27 NActive=   27 NUniq=   27 SFac= 1.00D+00 NAtFMM=   60 NAOKFM=F Big=F
 Integral buffers will be    131072 words long.
 Raffenetti 1 integral format.
 Two-electron integral symmetry is turned off.
 One-electron integrals computed using PRISM.
 NBasis=   236 RedAO= T EigKep=  1.54D-03  NBF=   236
 NBsUse=   236 1.00D-06 EigRej= -1.00D+00 NBFU=   236
 Initial guess from the checkpoint file:  "/home/alexey/tmp/Gau-1153863.chk"
 B after Tr=     0.044900    0.001375    0.000225
         Rot=    0.999999   -0.000881    0.001376    0.000434 Ang=  -0.19 deg.
 ExpMin= 1.61D-01 ExpMax= 5.48D+03 ExpMxC= 8.25D+02 IAcc=3 IRadAn=         5 AccDes= 0.00D+00
 Harris functional with IExCor=  205 and IRadAn=       5 diagonalized for initial guess.
 HarFok:  IExCor=  205 AccDes= 0.00D+00 IRadAn=         5 IDoV= 1 UseB2=F ITyADJ=14
 ICtDFT=  3500011 ScaDFX=  1.000000  1.000000  1.000000  1.000000
 FoFCou: FMM=F IPFlag=           0 FMFlag=      100000 FMFlg1=           0
         NFxFlg=           0 DoJE=T BraDBF=F KetDBF=T FulRan=T
         wScrn=  0.000000 ICntrl=       500 IOpCl=  0 I1Cent=   200000004 NGrid=           0
         NMat0=    1 NMatS0=      1 NMatT0=    0 NMatD0=    1 NMtDS0=    0 NMtDT0=    0
 Symmetry not used in FoFCou.
 Keep R1 ints in memory in canonical form, NReq=397720213.
 Requested convergence on RMS density matrix=1.00D-08 within 128 cycles.
 Requested convergence on MAX density matrix=1.00D-06.
 Requested convergence on             energy=1.00D-06.
 No special actions if energy rises.
 SCF Done:  E(RHF) =  -661.290671744     A.U. after   15 cycles
            NFock= 15  Conv=0.36D-08     -V/T= 2.0025
 ExpMin= 1.61D-01 ExpMax= 5.48D+03 ExpMxC= 8.25D+02 IAcc=3 IRadAn=         5 AccDes= 0.00D+00
 HarFok:  IExCor=  205 AccDes= 0.00D+00 IRadAn=         5 IDoV=-2 UseB2=F ITyADJ=14
 ICtDFT= 12500011 ScaDFX=  1.000000  1.000000  1.000000  1.000000
 Range of M.O.s used for correlation:    15   236
 NBasis=   236 NAE=    52 NBE=    52 NFC=    14 NFV=     0
 NROrb=    222 NOA=    38 NOB=    38 NVA=   184 NVB=   184
 Fully direct method using O(ONN) memory.
 JobTyp=1 Pass  1:  I=  15 to  52 NPSUse=  4 ParTrn=T ParDer=T DoDerP=T.
 Spin components of T(2) and E(2):
     alpha-alpha T2 =       0.9137366067D-01 E2=     -0.2724577667D+00
     alpha-beta  T2 =       0.4939621667D+00 E2=     -0.1490843344D+01
     beta-beta   T2 =       0.9137366067D-01 E2=     -0.2724577667D+00
 ANorm=    0.1294878175D+01
 E2 =    -0.2035758877D+01 EUMP2 =    -0.66332643062091D+03
          IDoAtm=111111111111111111111111111
          Differentiating once with respect to electric field.
                with respect to dipole field.
          Differentiating once with respect to nuclear coordinates.
 Keep R1 ints in memory in canonical form, NReq=397723379.
          There are     1 degrees of freedom in the 1st order CPHF.  IDoFFX=0 NUNeed=     1.
 LinEq1:  Iter=  0 NonCon=     1 RMS=4.51D-03 Max=9.69D-02 NDo=     1
 AX will form     1 AO Fock derivatives at one time.
 LinEq1:  Iter=  1 NonCon=     1 RMS=1.51D-03 Max=2.70D-02 NDo=     1
 LinEq1:  Iter=  2 NonCon=     1 RMS=6.39D-04 Max=1.64D-02 NDo=     1
 LinEq1:  Iter=  3 NonCon=     1 RMS=2.79D-04 Max=5.84D-03 NDo=     1
 LinEq1:  Iter=  4 NonCon=     1 RMS=8.59D-05 Max=1.45D-03 NDo=     1
 LinEq1:  Iter=  5 NonCon=     1 RMS=3.45D-05 Max=1.29D-03 NDo=     1
 LinEq1:  Iter=  6 NonCon=     1 RMS=1.36D-05 Max=5.15D-04 NDo=     1
 LinEq1:  Iter=  7 NonCon=     1 RMS=5.31D-06 Max=8.10D-05 NDo=     1
 LinEq1:  Iter=  8 NonCon=     1 RMS=2.16D-06 Max=4.98D-05 NDo=     1
[...]
    27  H    4.736458   4.421132   3.355463   3.642009   2.032935
                   16         17         18         19         20
    16  C    0.000000
    17  H    3.463950   0.000000
    18  H    4.100499   2.240663   0.000000
    19  H    2.995537   4.240122   3.515085   0.000000
    20  H    4.380327   4.387158   2.881684   1.768288   0.000000
    21  H    5.098721   6.465013   5.087230   2.499582   2.520998
    22  H    5.249741   6.084297   4.312619   3.070405   2.461715
    23  H    3.693117   6.218135   5.425200   2.704816   3.843181
    24  H    5.131366   7.199810   5.938678   3.849910   4.317118
    25  H    3.818008   6.127961   5.373504   4.172722   4.984968
    26  H    4.490445   5.818716   4.482773   4.033104   4.178319
    27  H    1.092766   4.203649   5.099933   3.612449   5.174500
                   21         22         23         24         25
    21  H    0.000000
    22  H    1.758902   0.000000
    23  H    2.469810   3.062312   0.000000
    24  H    2.517356   2.459629   1.764533   0.000000
    25  H    4.311935   3.837812   2.445381   2.518849   0.000000
    26  H    3.844739   2.701182   3.060601   2.492956   1.768009
    27  H    5.677881   6.078503   4.104617   5.705330   4.452155
                   26         27
    26  H    0.000000
    27  H    5.378894   0.000000
 Symmetry turned off by external request.
 Stoichiometry    C9H13N3O2
 Framework group  C1[X(C9H13N3O2)]
 Deg. of freedom    75
 Full point group                 C1      NOp   1
 Rotational constants (GHZ):           1.6538451           0.4221568           0.3763954

 **********************************************************************

            Population analysis using the SCF Density.

 **********************************************************************

 Alpha  occ. eigenvalues --  -20.59801 -20.59734 -15.84611 -15.63673 -15.56107
 Alpha  occ. eigenvalues --  -11.34899 -11.29985 -11.29458 -11.28487 -11.27073
 Alpha  occ. eigenvalues --  -11.23572 -11.23098 -11.22614 -11.22009  -1.57272
 Alpha  occ. eigenvalues --   -1.36997  -1.30645  -1.23120  -1.14728  -1.09855
 Alpha  occ. eigenvalues --   -1.02684  -1.01180  -0.94527  -0.89684  -0.85433
 Alpha  occ. eigenvalues --   -0.82573  -0.78461  -0.77668  -0.75121  -0.72018
 Alpha  occ. eigenvalues --   -0.70451  -0.68787  -0.67176  -0.65125  -0.63569
 Alpha  occ. eigenvalues --   -0.62425  -0.60246  -0.57599  -0.56896  -0.55077
 Alpha  occ. eigenvalues --   -0.54560  -0.50824  -0.50384  -0.48774  -0.48111
 Alpha  occ. eigenvalues --   -0.47722  -0.46218  -0.45964  -0.43583  -0.41634
 Alpha  occ. eigenvalues --   -0.39997  -0.33453
 Alpha virt. eigenvalues --    0.07964   0.11214   0.17363   0.21649   0.23791
 Alpha virt. eigenvalues --    0.25136   0.26634   0.28234   0.29105   0.29436
 Alpha virt. eigenvalues --    0.29735   0.31629   0.32042   0.32798   0.33913
 Alpha virt. eigenvalues --    0.34382   0.35761   0.37391   0.38692   0.40342
 Alpha virt. eigenvalues --    0.41589   0.42434   0.44890   0.45917   0.46809
 Alpha virt. eigenvalues --    0.47916   0.48766   0.53579   0.57574   0.58478
 Alpha virt. eigenvalues --    0.62459   0.69552   0.69916   0.72974   0.74251
 Alpha virt. eigenvalues --    0.75149   0.75815   0.76705   0.78707   0.79227
 Alpha virt. eigenvalues --    0.81271   0.84311   0.85267   0.85963   0.88577
 Alpha virt. eigenvalues --    0.89422   0.90637   0.91689   0.92689   0.94089
 Alpha virt. eigenvalues --    0.95295   0.97958   0.99147   1.01763   1.01877
 Alpha virt. eigenvalues --    1.04105   1.05913   1.06475   1.07946   1.08629
 Alpha virt. eigenvalues --    1.10900   1.11322   1.11636   1.12020   1.13876
 Alpha virt. eigenvalues --    1.14256   1.14834   1.15843   1.16232   1.17683
 Alpha virt. eigenvalues --    1.18247   1.19534   1.20061   1.21953   1.23565
 Alpha virt. eigenvalues --    1.24120   1.24677   1.25863   1.27886   1.29517
 Alpha virt. eigenvalues --    1.31831   1.33777   1.35934   1.37067   1.38207
 Alpha virt. eigenvalues --    1.38885   1.42608   1.44051   1.50493   1.52684
 Alpha virt. eigenvalues --    1.55459   1.57035   1.60978   1.62989   1.65693
 Alpha virt. eigenvalues --    1.68405   1.70138   1.74212   1.74847   1.75277
 Alpha virt. eigenvalues --    1.78012   1.82627   1.86717   1.90379   1.92095
 Alpha virt. eigenvalues --    1.92438   1.96157   1.99451   2.01398   2.02701
 Alpha virt. eigenvalues --    2.04399   2.05215   2.07542   2.10554   2.13791
 Alpha virt. eigenvalues --    2.15190   2.15485   2.19524   2.20560   2.21258
 Alpha virt. eigenvalues --    2.22714   2.25174   2.26255   2.28210   2.29818
 Alpha virt. eigenvalues --    2.31578   2.33214   2.33707   2.37106   2.37641
 Alpha virt. eigenvalues --    2.38892   2.40423   2.42769   2.45559   2.47281
 Alpha virt. eigenvalues --    2.50440   2.52494   2.54213   2.55146   2.62416
 Alpha virt. eigenvalues --    2.62725   2.64869   2.67131   2.70493   2.71391
 Alpha virt. eigenvalues --    2.72318   2.72765   2.75111   2.78129   2.84262
 Alpha virt. eigenvalues --    2.87667   2.89678   2.92277   2.96084   2.97056
 Alpha virt. eigenvalues --    3.00095   3.01484   3.02679   3.05282   3.08581
 Alpha virt. eigenvalues --    3.09315   3.15596   3.20054   3.21178   3.25471
 Alpha virt. eigenvalues --    3.32288   3.36634   3.39058   3.47672   3.64006
 Alpha virt. eigenvalues --    4.09650   4.21056   4.26747   4.36535   4.47134
 Alpha virt. eigenvalues --    4.56013   4.62131   4.63945   4.73723   4.78380
 Alpha virt. eigenvalues --    4.98974   5.00985   5.04986   5.11239
          Condensed to atoms (all electrons):
               1          2          3          4          5          6
     1  O    8.320702   0.297718  -0.076640  -0.088813   0.008192   0.000406
     2  N    0.297718   5.800370   0.294102   0.236863  -0.049930   0.001536
     3  O   -0.076640   0.294102   8.303890  -0.082846   0.003533  -0.000027
     4  C   -0.088813   0.236863  -0.082846   5.249375   0.557765  -0.049230
     5  C    0.008192  -0.049930   0.003533   0.557765   4.673316   0.323652
     6  N    0.000406   0.001536  -0.000027  -0.049230   0.323652   7.191707
     7  C   -0.000005  -0.000113   0.000006   0.004957  -0.031679   0.175230
     8  H    0.000000   0.000002  -0.000000  -0.000275   0.003386  -0.050018
     9  C   -0.000000  -0.000005  -0.000000   0.000892   0.000635  -0.063512
    10  C    0.000000   0.000000   0.000000  -0.000045  -0.000056   0.003814
    11  C   -0.000000  -0.000000  -0.000000  -0.000025   0.000026  -0.000187
    12  C    0.000000   0.000002  -0.000000  -0.000140  -0.000187   0.003793
    13  C    0.000001  -0.000057  -0.000027  -0.011708  -0.000838  -0.047973
    14  H    0.000001  -0.000093  -0.000010   0.002510   0.005466  -0.006571
    15  N   -0.000037   0.002571   0.000138  -0.067727  -0.005433   0.002237
    16  C    0.001698  -0.025383   0.002383   0.319415  -0.040003  -0.002874
    17  H    0.009519  -0.004218   0.000082  -0.031836   0.384436  -0.033825
    18  H    0.000007  -0.000066   0.000001   0.001797  -0.029255   0.337568
    19  H    0.000000  -0.000005   0.000000  -0.001414   0.001240  -0.000292
    20  H    0.000000  -0.000000  -0.000000  -0.000072   0.000128  -0.000181
    21  H   -0.000000   0.000000   0.000000   0.000001   0.000001  -0.000079
    22  H    0.000000   0.000000  -0.000000  -0.000000  -0.000003  -0.000114
    23  H    0.000000  -0.000000  -0.000000   0.000040  -0.000001  -0.000030
    24  H    0.000000   0.000000   0.000000   0.000000  -0.000000   0.000006
    25  H    0.000000  -0.000000   0.000000   0.000023  -0.000000  -0.000088
    26  H    0.000000  -0.000000  -0.000000   0.000007  -0.000003  -0.000059
    27  H    0.000036  -0.000131   0.003793  -0.074718   0.002307   0.000027
               7          8          9         10         11         12
     1  O   -0.000005   0.000000  -0.000000   0.000000  -0.000000   0.000000
     2  N   -0.000113   0.000002  -0.000005   0.000000  -0.000000   0.000002
     3  O    0.000006  -0.000000  -0.000000   0.000000  -0.000000  -0.000000
     4  C    0.004957  -0.000275   0.000892  -0.000045  -0.000025  -0.000140
     5  C   -0.031679   0.003386   0.000635  -0.000056   0.000026  -0.000187
     6  N    0.175230  -0.050018  -0.063512   0.003814  -0.000187   0.003793
     7  C    5.018215   0.417800   0.352052  -0.054684  -0.008976  -0.060558
     8  H    0.417800   0.538501  -0.054865   0.000641  -0.000297  -0.002393
     9  C    0.352052  -0.054865   5.157426   0.324878  -0.050451  -0.005164
    10  C   -0.054684   0.000641   0.324878   5.119246   0.336991  -0.061211
    11  C   -0.008976  -0.000297  -0.050451   0.336991   5.120165   0.335967
    12  C   -0.060558  -0.002393  -0.005164  -0.061211   0.335967   5.118681
    13  C    0.335737  -0.037491  -0.061719   0.000010  -0.050978   0.371011
    14  H   -0.046738  -0.000772   0.004423  -0.000402   0.004181  -0.036058
    15  N   -0.057841   0.003789  -0.013836   0.001580  -0.013174  -0.081844
    16  C   -0.003213   0.000055  -0.001290  -0.000037   0.000011   0.002998
    17  H    0.001983  -0.000064  -0.000069   0.000001   0.000000   0.000000
    18  H   -0.021632  -0.004587   0.001404  -0.000084   0.000004  -0.000113
    19  H   -0.037083   0.004345   0.390622  -0.032293  -0.002215   0.000683
    20  H   -0.042525  -0.002028   0.399477  -0.035279   0.003932  -0.000416
    21  H    0.004601  -0.000077  -0.036325   0.402312  -0.034980   0.004374
    22  H   -0.004868   0.003573  -0.046918   0.397725  -0.045405  -0.001073
    23  H    0.000567   0.000034  -0.001948  -0.039036   0.399276  -0.037935
    24  H   -0.000134  -0.000104   0.004385  -0.038433   0.402345  -0.038695
    25  H    0.005129  -0.000020  -0.000430   0.004202  -0.033463   0.398426
    26  H   -0.003965   0.001673   0.000984  -0.002267  -0.041428   0.396738
    27  H   -0.000429   0.000009  -0.000062   0.000007   0.000012  -0.000043
              13         14         15         16         17         18
     1  O    0.000001   0.000001  -0.000037   0.001698   0.009519   0.000007
     2  N   -0.000057  -0.000093   0.002571  -0.025383  -0.004218  -0.000066
     3  O   -0.000027  -0.000010   0.000138   0.002383   0.000082   0.000001
     4  C   -0.011708   0.002510  -0.067727   0.319415  -0.031836   0.001797
     5  C   -0.000838   0.005466  -0.005433  -0.040003   0.384436  -0.029255
     6  N   -0.047973  -0.006571   0.002237  -0.002874  -0.033825   0.337568
     7  C    0.335737  -0.046738  -0.057841  -0.003213   0.001983  -0.021632
     8  H   -0.037491  -0.000772   0.003789   0.000055  -0.000064  -0.004587
     9  C   -0.061719   0.004423  -0.013836  -0.001290  -0.000069   0.001404
    10  C    0.000010  -0.000402   0.001580  -0.000037   0.000001  -0.000084
    11  C   -0.050978   0.004181  -0.013174   0.000011   0.000000   0.000004
    12  C    0.371011  -0.036058  -0.081844   0.002998   0.000000  -0.000113
    13  C    5.040631   0.404106   0.250412  -0.072011  -0.000065   0.002914
    14  H    0.404106   0.524905  -0.037998  -0.004679   0.000081  -0.000122
    15  N    0.250412  -0.037998   6.946583   0.598722  -0.000041  -0.000138
    16  C   -0.072011  -0.004679   0.598722   4.691654   0.002077  -0.000187
    17  H   -0.000065   0.000081  -0.000041   0.002077   0.401360  -0.003081
    18  H    0.002914  -0.000122  -0.000138  -0.000187  -0.003081   0.311741
    19  H   -0.007371   0.000106   0.007376   0.003014   0.000017  -0.000153
    20  H    0.004387  -0.000066   0.000123  -0.000036  -0.000000   0.000790
    21  H   -0.000450   0.000010  -0.000044   0.000003  -0.000000   0.000001
    22  H    0.000065  -0.000054   0.000020  -0.000001  -0.000000   0.000001
    23  H   -0.007512   0.000004   0.008480   0.000102   0.000000   0.000000
    24  H    0.004709  -0.000057   0.000129   0.000007   0.000000  -0.000000
    25  H   -0.035646  -0.002843   0.000392  -0.000014  -0.000000   0.000002
    26  H   -0.047269  -0.001015   0.004863  -0.000072   0.000000  -0.000000
    27  H    0.005356  -0.000171  -0.038145   0.407054  -0.000088   0.000001
              19         20         21         22         23         24
     1  O    0.000000   0.000000  -0.000000   0.000000   0.000000   0.000000
     2  N   -0.000005  -0.000000   0.000000   0.000000  -0.000000   0.000000
     3  O    0.000000  -0.000000   0.000000  -0.000000  -0.000000   0.000000
     4  C   -0.001414  -0.000072   0.000001  -0.000000   0.000040   0.000000
     5  C    0.001240   0.000128   0.000001  -0.000003  -0.000001  -0.000000
     6  N   -0.000292  -0.000181  -0.000079  -0.000114  -0.000030   0.000006
     7  C   -0.037083  -0.042525   0.004601  -0.004868   0.000567  -0.000134
     8  H    0.004345  -0.002028  -0.000077   0.003573   0.000034  -0.000104
     9  C    0.390622   0.399477  -0.036325  -0.046918  -0.001948   0.004385
    10  C   -0.032293  -0.035279   0.402312   0.397725  -0.039036  -0.038433
    11  C   -0.002215   0.003932  -0.034980  -0.045405   0.399276   0.402345
    12  C    0.000683  -0.000416   0.004374  -0.001073  -0.037935  -0.038695
    13  C   -0.007371   0.004387  -0.000450   0.000065  -0.007512   0.004709
    14  H    0.000106  -0.000066   0.000010  -0.000054   0.000004  -0.000057
    15  N    0.007376   0.000123  -0.000044   0.000020   0.008480   0.000129
    16  C    0.003014  -0.000036   0.000003  -0.000001   0.000102   0.000007
    17  H    0.000017  -0.000000  -0.000000  -0.000000   0.000000   0.000000
    18  H   -0.000153   0.000790   0.000001   0.000001   0.000000  -0.000000
    19  H    0.505830  -0.024706  -0.002788   0.003971   0.001516  -0.000068
    20  H   -0.024706   0.540880  -0.002722  -0.002979  -0.000046  -0.000083
    21  H   -0.002788  -0.002722   0.524792  -0.027469  -0.002900  -0.002251
    22  H    0.003971  -0.002979  -0.027469   0.571676   0.004142  -0.003654
    23  H    0.001516  -0.000046  -0.002900   0.004142   0.499618  -0.025530
    24  H   -0.000068  -0.000083  -0.002251  -0.003654  -0.025530   0.538603
    25  H   -0.000029   0.000012  -0.000087  -0.000081  -0.002303  -0.002311
    26  H    0.000020  -0.000030  -0.000080   0.002385   0.004068  -0.003020
    27  H    0.000100   0.000000  -0.000000   0.000000  -0.000035  -0.000000
              25         26         27
     1  O    0.000000   0.000000   0.000036
     2  N   -0.000000  -0.000000  -0.000131
     3  O    0.000000  -0.000000   0.003793
     4  C    0.000023   0.000007  -0.074718
     5  C   -0.000000  -0.000003   0.002307
     6  N   -0.000088  -0.000059   0.000027
     7  C    0.005129  -0.003965  -0.000429
     8  H   -0.000020   0.001673   0.000009
     9  C   -0.000430   0.000984  -0.000062
    10  C    0.004202  -0.002267   0.000007
    11  C   -0.033463  -0.041428   0.000012
    12  C    0.398426   0.396738  -0.000043
    13  C   -0.035646  -0.047269   0.005356
    14  H   -0.002843  -0.001015  -0.000171
    15  N    0.000392   0.004863  -0.038145
    16  C   -0.000014  -0.000072   0.407054
    17  H   -0.000000   0.000000  -0.000088
    18  H    0.000002  -0.000000   0.000001
    19  H   -0.000029   0.000020   0.000100
    20  H    0.000012  -0.000030   0.000000
    21  H   -0.000087  -0.000080  -0.000000
    22  H   -0.000081   0.002385   0.000000
    23  H   -0.002303   0.004068  -0.000035
    24  H   -0.002311  -0.003020  -0.000000
    25  H    0.506403  -0.024114  -0.000013
    26  H   -0.024114   0.562240   0.000001
    27  H   -0.000013   0.000001   0.460436
 Mulliken charges:
               1
     1  O   -0.472787
     2  N    0.446837
     3  O   -0.448378
     4  C    0.035206
     5  C    0.193307
     6  N   -0.784914
     7  C    0.058169
     8  H    0.179180
     9  C   -0.300586
    10  C   -0.327581
    11  C   -0.321330
    12  C   -0.306842
    13  C   -0.038223
    14  H    0.191857
    15  N   -0.511154
    16  C    0.120606
    17  H    0.273732
    18  H    0.403186
    19  H    0.189577
    20  H    0.161438
    21  H    0.174159
    22  H    0.149063
    23  H    0.199429
    24  H    0.164155
    25  H    0.186851
    26  H    0.150346
    27  H    0.234697
 Sum of Mulliken charges =  -0.00000
 Mulliken charges with hydrogens summed into heavy atoms:
               1
     1  O   -0.472787
     2  N    0.446837
     3  O   -0.448378
     4  C    0.035206
     5  C    0.467039
     6  N   -0.381729
     7  C    0.237349
     9  C    0.050429
    10  C   -0.004360
    11  C    0.042255
    12  C    0.030355
    13  C    0.153634
    15  N   -0.511154
    16  C    0.355304
 Electronic spatial extent (au):  <R**2>=           2986.7748
 Charge=              0.0000 electrons
 Dipole moment (field-independent basis, Debye):
    X=              5.0128    Y=              4.8343    Z=              1.1926  Tot=              7.0655
 Quadrupole moment (field-independent basis, Debye-Ang):
   XX=           -103.8223   YY=            -77.9594   ZZ=            -83.5415
   XY=             -2.3507   XZ=             -1.7008   YZ=              4.2864
 Traceless Quadrupole moment (field-independent basis, Debye-Ang):
   XX=            -15.3812   YY=             10.4817   ZZ=              4.8996
   XY=             -2.3507   XZ=             -1.7008   YZ=              4.2864
 Octapole moment (field-independent basis, Debye-Ang**2):
  XXX=             78.1954  YYY=             36.6517  ZZZ=             -0.2913  XYY=             -9.1761
  XXY=             14.2314  XXZ=             12.4723  XZZ=             -4.1510  YZZ=             -2.1732
  YYZ=              3.2688  XYZ=             -9.2871
 Hexadecapole moment (field-independent basis, Debye-Ang**3):
 XXXX=          -3287.5228 YYYY=           -574.2576 ZZZZ=           -337.4029 XXXY=            -47.1706
 XXXZ=            -71.7629 YYYX=             -7.1075 YYYZ=             59.1319 ZZZX=            -27.1661
 ZZZY=             42.9154 XXYY=           -605.0448 XXZZ=           -543.7313 YYZZ=           -162.9479
 XXYZ=             44.2817 YYXZ=             -0.0636 ZZXY=              5.9596
 N-N= 9.314016539070D+02 E-N=-3.409488735013D+03  KE= 6.596149209354D+02
 Unable to Open any file for archive entry.
 1\1\GINC-LOTUS\FOpt\RMP2-FC\6-31G(d)\C9H13N3O2\ALEXEY\30-Jun-2023\0\\#
 MP2/6-31G* SCF=Tight Opt=(ModRedun, MaxCycle=20 ) NoSymm\\MolName:\\0,
 1\O,-3.7400022023,0.5880524566,-0.8568262532\N,-3.1007979127,-0.229188
 4069,-0.1639800905\O,-3.580309517,-1.2798734054,0.3086274215\C,-1.6798
 376326,-0.024119731,0.0492421449\C,-1.3001576592,1.2853202756,0.173140
 6366\N,-0.0564406213,1.7831527067,0.2818386648\C,1.2021903013,1.051189
 4078,0.3029494874\H,1.8606849709,1.6357241742,0.9627076944\C,1.8867045
 786,0.9447253284,-1.0589931595\C,3.288508152,0.3551803428,-0.865157365
 \C,3.2529541698,-0.9816142057,-0.1199658025\C,2.4783703207,-0.87884901
 86,1.1954566623\C,1.0627598658,-0.3526043459,0.9313762417\H,0.49816372
 66,-0.2528261501,1.8717659177\N,0.4066904491,-1.3315066828,0.069368241
 3\C,-0.8456110518,-1.1759741163,-0.2150973781\H,-2.0920382447,2.030444
 7686,0.1901793101\H,0.0047380418,2.783184361,0.4299336715\H,1.28224646
 43,0.3073800962,-1.7134720639\H,1.9447101856,1.9360537017,-1.525310137
 7\H,3.7776141708,0.2337581056,-1.8384892468\H,3.8967687753,1.074083885
 6,-0.2979077953\H,2.7660179015,-1.7364272507,-0.7453264045\H,4.2754568
 267,-1.3278799991,0.0721445864\H,2.4029351303,-1.8629243626,1.66963920
 12\H,2.9971164892,-0.2136926435,1.8995087556\H,-1.3304556789,-1.994759
 2923,-0.7523629404\\Version=ES64L-G16RevC.02\HF=-661.2918824\MP2=-663.
 3295898\RMSD=6.871e-09\RMSF=1.608e-03\Dipole=1.8505291,1.7115404,0.427
 9033\PG=C01 [X(C9H13N3O2)]\\@
 The archive entry for this job was punched.


 ONE OF THE BENEFITS OF A COLLEGE EDUCATION
 IS TO SHOW THE BOY ITS LITTLE AVAIL 
                                    EMERSON IN 'CULTURE'
 Job cpu time:       0 days  1 hours  7 minutes  8.1 seconds.
 Elapsed time:       0 days  0 hours 20 minutes  6.2 seconds.
 File lengths (MBytes):  RWF=     36 Int=      0 D2E=      0 Chk=      7 Scr=      1
 Normal termination of Gaussian 16 at Fri Jun 30 14:05:53 2023.
