 Entering Gaussian System, Link 0=g16
 Initial command:
 /home/alexey/programs//g16/l1.exe "/home/alexey/tmp/Gau-1151012.inp" -scrdir="/home/alexey/tmp/"
 Entering Link 1 = /home/alexey/programs//g16/l1.exe PID=   1151014.
  
 Copyright (c) 1988-2021, Gaussian, Inc.  All Rights Reserved.
  
 This is part of the Gaussian(R) 16 program.  It is based on
 the Gaussian(R) 09 system (copyright 2009, Gaussian, Inc.),
 the Gaussian(R) 03 system (copyright 2003, Gaussian, Inc.),
 the Gaussian(R) 98 system (copyright 1998, Gaussian, Inc.),
 the Gaussian(R) 94 system (copyright 1995, Gaussian, Inc.),
 the Gaussian 92(TM) system (copyright 1992, Gaussian, Inc.),
 the Gaussian 90(TM) system (copyright 1990, Gaussian, Inc.),
 the Gaussian 88(TM) system (copyright 1988, Gaussian, Inc.),
 the Gaussian 86(TM) system (copyright 1986, Carnegie Mellon
 University), and the Gaussian 82(TM) system (copyright 1983,
 Carnegie Mellon University). Gaussian is a federally registered
 trademark of Gaussian, Inc.
  
 This software contains proprietary and confidential information,
 including trade secrets, belonging to Gaussian, Inc.
  
 This software is provided under written license and may be
 used, copied, transmitted, or stored only in accord with that
 written license.
  
 The following legend is applicable only to US Government
 contracts under FAR:
  
                    RESTRICTED RIGHTS LEGEND
  
 Use, reproduction and disclosure by the US Government is
 subject to restrictions as set forth in subparagraphs (a)
 and (c) of the Commercial Computer Software - Restricted
 Rights clause in FAR 52.227-19.
  
 Gaussian, Inc.
 340 Quinnipiac St., Bldg. 40, Wallingford CT 06492
  
  
 ---------------------------------------------------------------
 Warning -- This program may not be used in any manner that
 competes with the business of Gaussian, Inc. or will provide
 assistance to any competitor of Gaussian, Inc.  The licensee
 of this program is prohibited from giving any competitor of
 Gaussian, Inc. access to this program.  By using this program,
 the user acknowledges that Gaussian, Inc. is engaged in the
 business of creating and licensing software in the field of
 computational chemistry and represents and warrants to the
 licensee that it is not a competitor of Gaussian, Inc. and that
 it will not use this program in any manner prohibited above.
 ---------------------------------------------------------------
  

 Cite this work as:
 Gaussian 16, Revision C.02,
 M. J. Frisch, G. W. Trucks, H. B. Schlegel, G. E. Scuseria, 
 M. A. Robb, J. R. Cheeseman, G. Scalmani, V. Barone, 
 G. A. Petersson, H. Nakatsuji, X. Li, M. Caricato, A. V. Marenich, 
 J. Bloino, B. G. Janesko, R. Gomperts, B. Mennucci, H. P. Hratchian, 
 J. V. Ortiz, A. F. Izmaylov, J. L. Sonnenberg, D. Williams-Young, 
 F. Ding, F. Lipparini, F. Egidi, J. Goings, B. Peng, A. Petrone, 
 T. Henderson, D. Ranasinghe, V. G. Zakrzewski, J. Gao, N. Rega, 
 G. Zheng, W. Liang, M. Hada, M. Ehara, K. Toyota, R. Fukuda, 
 J. Hasegawa, M. Ishida, T. Nakajima, Y. Honda, O. Kitao, H. Nakai, 
 T. Vreven, K. Throssell, J. A. Montgomery, Jr., J. E. Peralta, 
 F. Ogliaro, M. J. Bearpark, J. J. Heyd, E. N. Brothers, K. N. Kudin, 
 V. N. Staroverov, T. A. Keith, R. Kobayashi, J. Normand, 
 K. Raghavachari, A. P. Rendell, J. C. Burant, S. S. Iyengar, 
 J. Tomasi, M. Cossi, J. M. Millam, M. Klene, C. Adamo, R. Cammi, 
 J. W. Ochterski, R. L. Martin, K. Morokuma, O. Farkas, 
 J. B. Foresman, and D. J. Fox, Gaussian, Inc., Wallingford CT, 2019.
 
 ******************************************
 Gaussian 16:  ES64L-G16RevC.02  7-Dec-2021
                30-Jun-2023 
 ******************************************
 %mem=8GB
 %NPROCS=4
 Will use up to    4 processors via shared memory.
 %NoSave
 ---------------------------------------------------------
 #MP2/6-31G* SCF=Tight Opt=(ModRedun, MaxCycle=20 ) NoSymm
 ---------------------------------------------------------
 1/6=20,18=120,19=15,38=1/1,3;
 2/9=110,12=2,15=1,17=6,18=5,40=1/2;
 3/5=1,6=6,7=1,11=9,25=1,30=1,71=1/1,2,3;
 4//1;
 5/5=2,32=2,38=5/2;
 8/6=4,10=2/1;
 9/15=2,16=-3/6;
 10/5=1,31=1/2;
 6/7=2,8=2,9=2,10=2/1;
 7/12=2,30=1/1,2,3,16;
 1/6=20,18=20,19=15/3(2);
 2/9=110,15=1/2;
 99//99;
 2/9=110,15=1/2;
 3/5=1,6=6,7=1,11=9,25=1,30=1,71=1/1,2,3;
 4/5=5,16=3,69=1/1;
 5/5=2,32=2,38=5/2;
 8/6=4,10=2/1;
 9/15=2,16=-3/6;
 10/5=1,31=1/2;
 7/12=2,30=1/1,2,3,16;
 1/6=20,18=20,19=15/3(-8);
 2/9=110,15=1/2;
 6/7=2,8=2,9=2,10=2/1;
 99/9=10/99;
 --------
 MolName:
 --------
 Symbolic Z-matrix:
 Charge =  0 Multiplicity = 1
 8                    0    -3.8548    0.39143  -0.91536 
 7                    0    -3.20944  -0.2382   -0.07909 
 8                    0    -3.64501  -1.13694   0.636 
 6                    0    -1.7375    0.00462  -0.03374 
 6                    0    -1.37216   1.33487   0.16378 
 7                    0    -0.08877   1.79217   0.30599 
 6                    0     1.1908    1.01809   0.31745 
 1                    0     1.86541   1.57214   1.02047 
 6                    0     1.93342   0.96594  -1.04113 
 6                    0     3.34998   0.39814  -0.82976 
 6                    0     3.30196  -0.96762  -0.12657 
 6                    0     2.47474  -0.90258   1.17528 
 6                    0     1.03204  -0.39275   0.90816 
 1                    0     0.49673  -0.35628   1.88588 
 7                    0     0.36434  -1.34388   0.01365 
 6                    0    -0.88272  -1.17678  -0.28056 
 1                    0    -2.17458   2.08574   0.25935 
 1                    0     0.14901   2.7646    0.09594 
 1                    0     1.37288   0.32977  -1.7588 
 1                    0     2.01073   1.9855   -1.47491 
 1                    0     3.86892   0.29957  -1.80832 
 1                    0     3.93626   1.10461  -0.20062 
 1                    0     2.84528  -1.71406  -0.81503 
 1                    0     4.33448  -1.31139   0.10143 
 1                    0     2.42655  -1.91654   1.62945 
 1                    0     2.97801  -0.23015   1.90119 
 1                    0    -1.40859  -1.99505  -0.79613 
 
 The following ModRedundant input section has been read:
 D       1       2       4      16 F                                           
 D       7      13      15      16 F                                           
 D       7       9      10      11 F                                           
 D       9      10      11      12 F                                           
 D       6       7      13      15 F                                           
 

 GradGradGradGradGradGradGradGradGradGradGradGradGradGradGradGradGradGrad
 Berny optimization.
 Initialization pass.
                           ----------------------------
                           !    Initial Parameters    !
                           ! (Angstroms and Degrees)  !
 --------------------------                            --------------------------
 ! Name  Definition              Value          Derivative Info.                !
 --------------------------------------------------------------------------------
 ! R1    R(1,2)                  1.2297         estimate D2E/DX2                !
 ! R2    R(2,3)                  1.2283         estimate D2E/DX2                !
 ! R3    R(2,4)                  1.4925         estimate D2E/DX2                !
 ! R4    R(4,5)                  1.3936         estimate D2E/DX2                !
 ! R5    R(4,16)                 1.4789         estimate D2E/DX2                !
 ! R6    R(5,6)                  1.3698         estimate D2E/DX2                !
 ! R7    R(5,17)                 1.1031         estimate D2E/DX2                !
 ! R8    R(6,7)                  1.4955         estimate D2E/DX2                !
 ! R9    R(6,18)                 1.0229         estimate D2E/DX2                !
 ! R10   R(7,8)                  1.1209         estimate D2E/DX2                !
 ! R11   R(7,9)                  1.5492         estimate D2E/DX2                !
 ! R12   R(7,13)                 1.5377         estimate D2E/DX2                !
 ! R13   R(9,10)                 1.5407         estimate D2E/DX2                !
 ! R14   R(9,19)                 1.1108         estimate D2E/DX2                !
 ! R15   R(9,20)                 1.1107         estimate D2E/DX2                !
 ! R16   R(10,11)                1.5369         estimate D2E/DX2                !
 ! R17   R(10,21)                1.112          estimate D2E/DX2                !
 ! R18   R(10,22)                1.1129         estimate D2E/DX2                !
 ! R19   R(11,12)                1.5438         estimate D2E/DX2                !
 ! R20   R(11,23)                1.1134         estimate D2E/DX2                !
 ! R21   R(11,24)                1.1119         estimate D2E/DX2                !
 ! R22   R(12,13)                1.5533         estimate D2E/DX2                !
 ! R23   R(12,25)                1.1121         estimate D2E/DX2                !
 ! R24   R(12,26)                1.1101         estimate D2E/DX2                !
 ! R25   R(13,14)                1.1153         estimate D2E/DX2                !
 ! R26   R(13,15)                1.4665         estimate D2E/DX2                !
 ! R27   R(15,16)                1.2921         estimate D2E/DX2                !
 ! R28   R(16,27)                1.1009         estimate D2E/DX2                !
 ! A1    A(1,2,3)              125.7617         estimate D2E/DX2                !
 ! A2    A(1,2,4)              117.0598         estimate D2E/DX2                !
 ! A3    A(3,2,4)              116.8117         estimate D2E/DX2                !
 ! A4    A(2,4,5)              114.7178         estimate D2E/DX2                !
 ! A5    A(2,4,16)             115.7831         estimate D2E/DX2                !
 ! A6    A(5,4,16)             129.3939         estimate D2E/DX2                !
 ! A7    A(4,5,6)              125.3801         estimate D2E/DX2                !
 ! A8    A(4,5,17)             118.1213         estimate D2E/DX2                !
 ! A9    A(6,5,17)             116.4418         estimate D2E/DX2                !
 ! A10   A(5,6,7)              129.021          estimate D2E/DX2                !
 ! A11   A(5,6,18)             120.9203         estimate D2E/DX2                !
 ! A12   A(7,6,18)             107.1424         estimate D2E/DX2                !
 ! A13   A(6,7,8)              105.3023         estimate D2E/DX2                !
 ! A14   A(6,7,9)              114.8879         estimate D2E/DX2                !
 ! A15   A(6,7,13)             112.9229         estimate D2E/DX2                !
 ! A16   A(8,7,9)              106.1514         estimate D2E/DX2                !
 ! A17   A(8,7,13)             105.9453         estimate D2E/DX2                !
 ! A18   A(9,7,13)             110.8234         estimate D2E/DX2                !
 ! A19   A(7,9,10)             109.4411         estimate D2E/DX2                !
 ! A20   A(7,9,19)             110.1185         estimate D2E/DX2                !
 ! A21   A(7,9,20)             110.1796         estimate D2E/DX2                !
 ! A22   A(10,9,19)            109.9701         estimate D2E/DX2                !
 ! A23   A(10,9,20)            109.1402         estimate D2E/DX2                !
 ! A24   A(19,9,20)            107.9693         estimate D2E/DX2                !
 ! A25   A(9,10,11)            111.1948         estimate D2E/DX2                !
 ! A26   A(9,10,21)            109.9382         estimate D2E/DX2                !
 ! A27   A(9,10,22)            109.1449         estimate D2E/DX2                !
 ! A28   A(11,10,21)           109.7815         estimate D2E/DX2                !
 ! A29   A(11,10,22)           108.7782         estimate D2E/DX2                !
 ! A30   A(21,10,22)           107.9318         estimate D2E/DX2                !
 ! A31   A(10,11,12)           111.4157         estimate D2E/DX2                !
 ! A32   A(10,11,23)           109.0053         estimate D2E/DX2                !
 ! A33   A(10,11,24)           109.85           estimate D2E/DX2                !
 ! A34   A(12,11,23)           109.2619         estimate D2E/DX2                !
 ! A35   A(12,11,24)           109.7365         estimate D2E/DX2                !
 ! A36   A(23,11,24)           107.482          estimate D2E/DX2                !
 ! A37   A(11,12,13)           111.4996         estimate D2E/DX2                !
 ! A38   A(11,12,25)           109.2202         estimate D2E/DX2                !
 ! A39   A(11,12,26)           109.5127         estimate D2E/DX2                !
 ! A40   A(13,12,25)           109.2236         estimate D2E/DX2                !
 ! A41   A(13,12,26)           109.5547         estimate D2E/DX2                !
 ! A42   A(25,12,26)           107.7507         estimate D2E/DX2                !
 ! A43   A(7,13,12)            105.7424         estimate D2E/DX2                !
 ! A44   A(7,13,14)            110.8743         estimate D2E/DX2                !
 ! A45   A(7,13,15)            114.0633         estimate D2E/DX2                !
 ! A46   A(12,13,14)           107.8054         estimate D2E/DX2                !
 ! A47   A(12,13,15)           108.3552         estimate D2E/DX2                !
 ! A48   A(14,13,15)           109.7189         estimate D2E/DX2                !
 ! A49   A(13,15,16)           119.6319         estimate D2E/DX2                !
 ! A50   A(4,16,15)            128.5431         estimate D2E/DX2                !
 ! A51   A(4,16,27)            113.3175         estimate D2E/DX2                !
 ! A52   A(15,16,27)           118.1336         estimate D2E/DX2                !
 ! D1    D(1,2,4,5)             56.6265         estimate D2E/DX2                !
 ! D2    D(1,2,4,16)          -120.0001         Frozen                          !
 ! D3    D(3,2,4,5)           -129.9209         estimate D2E/DX2                !
 ! D4    D(3,2,4,16)            53.4525         estimate D2E/DX2                !
 ! D5    D(2,4,5,6)            176.6151         estimate D2E/DX2                !
 ! D6    D(2,4,5,17)            -0.539          estimate D2E/DX2                !
 ! D7    D(16,4,5,6)            -7.3163         estimate D2E/DX2                !
 ! D8    D(16,4,5,17)          175.5296         estimate D2E/DX2                !
 ! D9    D(2,4,16,15)         -161.1867         estimate D2E/DX2                !
 ! D10   D(2,4,16,27)           19.7166         estimate D2E/DX2                !
 ! D11   D(5,4,16,15)           22.7794         estimate D2E/DX2                !
 ! D12   D(5,4,16,27)         -156.3173         estimate D2E/DX2                !
 ! D13   D(4,5,6,7)             -1.4948         estimate D2E/DX2                !
 ! D14   D(4,5,6,18)           156.5735         estimate D2E/DX2                !
 ! D15   D(17,5,6,7)           175.702          estimate D2E/DX2                !
 ! D16   D(17,5,6,18)          -26.2297         estimate D2E/DX2                !
 ! D17   D(5,6,7,8)           -146.9147         estimate D2E/DX2                !
 ! D18   D(5,6,7,9)             96.6707         estimate D2E/DX2                !
 ! D19   D(5,6,7,13)           -31.7676         estimate D2E/DX2                !
 ! D20   D(18,6,7,8)            52.6771         estimate D2E/DX2                !
 ! D21   D(18,6,7,9)           -63.7374         estimate D2E/DX2                !
 ! D22   D(18,6,7,13)          167.8242         estimate D2E/DX2                !
 ! D23   D(6,7,9,10)           168.5513         estimate D2E/DX2                !
 ! D24   D(6,7,9,19)           -70.4506         estimate D2E/DX2                !
 ! D25   D(6,7,9,20)            48.5403         estimate D2E/DX2                !
 ! D26   D(8,7,9,10)            52.6233         estimate D2E/DX2                !
 ! D27   D(8,7,9,19)           173.6214         estimate D2E/DX2                !
 ! D28   D(8,7,9,20)           -67.3877         estimate D2E/DX2                !
 ! D29   D(13,7,9,10)          -61.968          estimate D2E/DX2                !
 ! D30   D(13,7,9,19)           59.0302         estimate D2E/DX2                !
 ! D31   D(13,7,9,20)          178.021          estimate D2E/DX2                !
 ! D32   D(6,7,13,12)         -166.0177         estimate D2E/DX2                !
 ! D33   D(6,7,13,14)          -49.4333         estimate D2E/DX2                !
 ! D34   D(6,7,13,15)           75.0225         Frozen                          !
 ! D35   D(8,7,13,12)          -51.257          estimate D2E/DX2                !
 ! D36   D(8,7,13,14)           65.3274         estimate D2E/DX2                !
 ! D37   D(8,7,13,15)         -170.2168         estimate D2E/DX2                !
 ! D38   D(9,7,13,12)           63.4634         estimate D2E/DX2                !
 ! D39   D(9,7,13,14)         -179.9521         estimate D2E/DX2                !
 ! D40   D(9,7,13,15)          -55.4964         estimate D2E/DX2                !
 ! D41   D(7,9,10,11)           54.8124         Frozen                          !
 ! D42   D(7,9,10,21)          176.6017         estimate D2E/DX2                !
 ! D43   D(7,9,10,22)          -65.1937         estimate D2E/DX2                !
 ! D44   D(19,9,10,11)         -66.2756         estimate D2E/DX2                !
 ! D45   D(19,9,10,21)          55.5136         estimate D2E/DX2                !
 ! D46   D(19,9,10,22)         173.7183         estimate D2E/DX2                !
 ! D47   D(20,9,10,11)         175.4582         estimate D2E/DX2                !
 ! D48   D(20,9,10,21)         -62.7526         estimate D2E/DX2                !
 ! D49   D(20,9,10,22)          55.4521         estimate D2E/DX2                !
 ! D50   D(9,10,11,12)         -52.8227         Frozen                          !
 ! D51   D(9,10,11,23)          67.8326         estimate D2E/DX2                !
 ! D52   D(9,10,11,24)        -174.6422         estimate D2E/DX2                !
 ! D53   D(21,10,11,12)       -174.7031         estimate D2E/DX2                !
 ! D54   D(21,10,11,23)        -54.0478         estimate D2E/DX2                !
 ! D55   D(21,10,11,24)         63.4774         estimate D2E/DX2                !
 ! D56   D(22,10,11,12)         67.4006         estimate D2E/DX2                !
 ! D57   D(22,10,11,23)       -171.9441         estimate D2E/DX2                !
 ! D58   D(22,10,11,24)        -54.4189         estimate D2E/DX2                !
 ! D59   D(10,11,12,13)         56.731          estimate D2E/DX2                !
 ! D60   D(10,11,12,25)        177.5345         estimate D2E/DX2                !
 ! D61   D(10,11,12,26)        -64.6847         estimate D2E/DX2                !
 ! D62   D(23,11,12,13)        -63.7736         estimate D2E/DX2                !
 ! D63   D(23,11,12,25)         57.0298         estimate D2E/DX2                !
 ! D64   D(23,11,12,26)        174.8106         estimate D2E/DX2                !
 ! D65   D(24,11,12,13)        178.6163         estimate D2E/DX2                !
 ! D66   D(24,11,12,25)        -60.5802         estimate D2E/DX2                !
 ! D67   D(24,11,12,26)         57.2005         estimate D2E/DX2                !
 ! D68   D(11,12,13,7)         -60.5687         estimate D2E/DX2                !
 ! D69   D(11,12,13,14)       -179.2125         estimate D2E/DX2                !
 ! D70   D(11,12,13,15)         62.1062         estimate D2E/DX2                !
 ! D71   D(25,12,13,7)         178.6299         estimate D2E/DX2                !
 ! D72   D(25,12,13,14)         59.9861         estimate D2E/DX2                !
 ! D73   D(25,12,13,15)        -58.6952         estimate D2E/DX2                !
 ! D74   D(26,12,13,7)          60.8227         estimate D2E/DX2                !
 ! D75   D(26,12,13,14)        -57.8211         estimate D2E/DX2                !
 ! D76   D(26,12,13,15)       -176.5024         estimate D2E/DX2                !
 ! D77   D(7,13,15,16)         -67.16           Frozen                          !
 ! D78   D(12,13,15,16)        175.3739         estimate D2E/DX2                !
 ! D79   D(14,13,15,16)         57.9115         estimate D2E/DX2                !
 ! D80   D(13,15,16,4)          12.0736         estimate D2E/DX2                !
 ! D81   D(13,15,16,27)       -168.867          estimate D2E/DX2                !
 --------------------------------------------------------------------------------
 Trust Radius=3.00D-01 FncErr=1.00D-07 GrdErr=1.00D-07 EigMax=2.50D+02 EigMin=1.00D-04
 Number of steps in this run=     20 maximum allowed number of steps=    162.
 GradGradGradGradGradGradGradGradGradGradGradGradGradGradGradGradGradGrad

                          Input orientation:                          
 ---------------------------------------------------------------------
 Center     Atomic      Atomic             Coordinates (Angstroms)
 Number     Number       Type             X           Y           Z
 ---------------------------------------------------------------------
      1          8           0       -3.854800    0.391430   -0.915360
      2          7           0       -3.209440   -0.238200   -0.079090
      3          8           0       -3.645010   -1.136940    0.636000
      4          6           0       -1.737500    0.004620   -0.033740
      5          6           0       -1.372160    1.334870    0.163780
      6          7           0       -0.088770    1.792170    0.305990
      7          6           0        1.190800    1.018090    0.317450
      8          1           0        1.865410    1.572140    1.020470
      9          6           0        1.933420    0.965940   -1.041130
     10          6           0        3.349980    0.398140   -0.829760
     11          6           0        3.301960   -0.967620   -0.126570
     12          6           0        2.474740   -0.902580    1.175280
     13          6           0        1.032040   -0.392750    0.908160
     14          1           0        0.496730   -0.356280    1.885880
     15          7           0        0.364340   -1.343880    0.013650
     16          6           0       -0.882720   -1.176780   -0.280560
     17          1           0       -2.174580    2.085740    0.259350
     18          1           0        0.149010    2.764600    0.095940
     19          1           0        1.372880    0.329770   -1.758800
     20          1           0        2.010730    1.985500   -1.474910
     21          1           0        3.868920    0.299570   -1.808320
     22          1           0        3.936260    1.104610   -0.200620
     23          1           0        2.845280   -1.714060   -0.815030
     24          1           0        4.334480   -1.311390    0.101430
     25          1           0        2.426550   -1.916540    1.629450
     26          1           0        2.978010   -0.230150    1.901190
     27          1           0       -1.408590   -1.995050   -0.796130
 ---------------------------------------------------------------------
                    Distance matrix (angstroms):
                    1          2          3          4          5
     1  O    0.000000
     2  N    1.229744   0.000000
     3  O    2.187840   1.228336   0.000000
     4  C    2.325905   1.492523   2.321703   0.000000
     5  C    2.866727   2.430871   3.390971   1.393575   0.000000
     6  N    4.199613   3.742896   4.619030   2.455415   1.369831
     7  C    5.231692   4.593215   5.303837   3.118557   2.587031
     8  H    6.153236   5.499133   6.152370   4.068100   3.357391
     9  C    5.818021   5.368844   6.193040   3.926146   3.537623
    10  C    7.205292   6.632829   7.309912   5.164393   4.915607
    11  C    7.327238   6.552300   6.990749   5.133228   5.218540
    12  C    6.790310   5.858733   6.147934   4.475233   4.563765
    13  C    5.274597   4.357603   4.743700   2.952191   3.052696
    14  H    5.228941   4.196516   4.396094   2.967655   3.052600
    15  N    4.655696   3.742063   4.062638   2.497685   3.195884
    16  C    3.419870   2.516972   2.910656   1.478944   2.597186
    17  H    2.659656   2.566354   3.562260   2.146626   1.103094
    18  H    4.762894   4.508506   5.468845   3.345628   2.088705
    19  H    5.295643   4.913418   5.750263   3.571557   3.498826
    20  H    6.103982   5.843229   6.796541   4.477732   3.814783
    21  H    7.775710   7.306341   8.031028   5.887960   5.694729
    22  H    7.856214   7.271790   7.949851   5.781815   5.325892
    23  H    7.023833   6.275301   6.675509   4.956425   5.295361
    24  H    8.426017   7.622011   7.999279   6.214426   6.290653
    25  H    7.159479   6.123750   6.201497   4.878152   5.210571
    26  H    7.416644   6.496623   6.803482   5.102461   4.938812
    27  H    3.419568   2.616052   2.790864   2.165202   3.465707
                    6          7          8          9         10
     6  N    0.000000
     7  C    1.495537   0.000000
     8  H    2.092299   1.120851   0.000000
     9  C    2.566445   1.549175   2.149953   0.000000
    10  C    3.880496   2.522397   2.646805   1.540687   0.000000
    11  C    4.393245   2.932097   3.135244   2.539287   1.536907
    12  C    3.819545   2.464416   2.553329   2.949045   2.545212
    13  C    2.528379   1.537730   2.137267   2.541310   3.003118
    14  H    2.730330   2.197862   2.518139   3.518484   4.010597
    15  N    3.182072   2.520760   3.430754   2.984936   3.558092
    16  C    3.128748   3.078077   4.098958   3.619442   4.549477
    17  H    2.106884   3.531152   4.143019   4.452063   5.878343
    18  H    1.022879   2.045652   2.285333   2.777089   4.086962
    19  H    2.922053   2.194938   3.083895   1.110841   2.185570
    20  H    2.759870   2.195614   2.533556   1.110696   2.174746
    21  H    4.728792   3.493923   3.692633   2.186044   1.112023
    22  H    4.114640   2.795252   2.449095   2.176478   1.112943
    23  H    4.707333   3.388873   3.889514   2.839896   2.171711
    24  H    5.407316   3.918656   3.905853   3.500966   2.181478
    25  H    4.672570   3.443904   3.585613   3.960286   3.501168
    26  H    4.004945   2.694523   2.293860   3.343508   2.826871
    27  H    4.159282   4.132300   5.171456   4.471747   5.326582
                   11         12         13         14         15
    11  C    0.000000
    12  C    1.543806   0.000000
    13  C    2.560015   1.553275   0.000000
    14  H    3.506138   2.171617   1.115268   0.000000
    15  N    2.964936   2.449065   1.466499   2.120879   0.000000
    16  C    4.192733   3.669767   2.386224   2.696213   1.292146
    17  H    6.282072   5.602246   4.104422   3.967992   4.274199
    18  H    4.890815   4.474618   3.377618   3.614511   4.114942
    19  H    2.840554   3.367730   2.784041   3.810774   2.638150
    20  H    3.493739   3.947128   3.506127   4.367040   4.001398
    21  H    2.180710   3.505820   3.988290   5.044692   4.278152
    22  H    2.168400   2.838653   3.450503   4.279959   4.335854
    23  H    1.113421   2.181085   2.828972   3.828076   2.641743
    24  H    1.111872   2.186072   3.521480   4.338758   3.971243
    25  H    2.179541   1.112074   2.187888   2.494869   2.681690
    26  H    2.181884   1.110130   2.190741   2.484531   3.410934
    27  H    4.867567   4.490011   3.380628   3.675458   2.055005
                   16         17         18         19         20
    16  C    0.000000
    17  H    3.550273   0.000000
    18  H    4.091539   2.426237   0.000000
    19  H    3.089113   4.443066   3.296409   0.000000
    20  H    4.449555   4.531504   2.557453   1.796911   0.000000
    21  H    5.204973   6.632462   4.851836   2.496714   2.531085
    22  H    5.332326   6.206171   4.145694   3.098261   2.471325
    23  H    3.804249   6.386843   5.306424   2.689964   3.849501
    24  H    5.232897   7.343929   5.842250   3.863281   4.330606
    25  H    3.891870   6.250265   5.426962   4.199567   5.003586
    26  H    4.534466   5.882871   4.497855   4.035527   4.152443
    27  H    1.100871   4.284113   5.086863   3.750746   5.291245
                   21         22         23         24         25
    21  H    0.000000
    22  H    1.799256   0.000000
    23  H    2.467624   3.084256   0.000000
    24  H    2.541473   2.467158   1.794369   0.000000
    25  H    4.337031   3.841318   2.488336   2.518184   0.000000
    26  H    3.851596   2.667852   3.097976   2.499645   1.794955
    27  H    5.843109   6.207249   4.263182   5.852850   4.538491
                   26         27
    26  H    0.000000
    27  H    5.443590   0.000000
 Symmetry turned off by external request.
 Stoichiometry    C9H13N3O2
 Framework group  C1[X(C9H13N3O2)]
 Deg. of freedom    75
 Full point group                 C1      NOp   1
 Rotational constants (GHZ):           1.6540463           0.4050811           0.3646501
 Standard basis: 6-31G(d) (6D, 7F)
   236 basis functions,   444 primitive gaussians,   236 cartesian basis functions
    52 alpha electrons       52 beta electrons
       nuclear repulsion energy       920.1233935266 Hartrees.
 NAtoms=   27 NActive=   27 NUniq=   27 SFac= 1.00D+00 NAtFMM=   60 NAOKFM=F Big=F
 Integral buffers will be    131072 words long.
 Raffenetti 1 integral format.
 Two-electron integral symmetry is turned off.
 One-electron integrals computed using PRISM.
 NBasis=   236 RedAO= T EigKep=  1.70D-03  NBF=   236
 NBsUse=   236 1.00D-06 EigRej= -1.00D+00 NBFU=   236
 ExpMin= 1.61D-01 ExpMax= 5.48D+03 ExpMxC= 8.25D+02 IAcc=3 IRadAn=         5 AccDes= 0.00D+00
 Harris functional with IExCor=  205 and IRadAn=       5 diagonalized for initial guess.
 HarFok:  IExCor=  205 AccDes= 0.00D+00 IRadAn=         5 IDoV= 1 UseB2=F ITyADJ=14
 ICtDFT=  3500011 ScaDFX=  1.000000  1.000000  1.000000  1.000000
 FoFCou: FMM=F IPFlag=           0 FMFlag=      100000 FMFlg1=           0
         NFxFlg=           0 DoJE=T BraDBF=F KetDBF=T FulRan=T
         wScrn=  0.000000 ICntrl=       500 IOpCl=  0 I1Cent=   200000004 NGrid=           0
         NMat0=    1 NMatS0=      1 NMatT0=    0 NMatD0=    1 NMtDS0=    0 NMtDT0=    0
 Symmetry not used in FoFCou.
 Keep R1 ints in memory in canonical form, NReq=397720213.
 Requested convergence on RMS density matrix=1.00D-08 within 128 cycles.
 Requested convergence on MAX density matrix=1.00D-06.
 Requested convergence on             energy=1.00D-06.
 No special actions if energy rises.
 SCF Done:  E(RHF) =  -661.273846851     A.U. after   17 cycles
            NFock= 17  Conv=0.49D-08     -V/T= 2.0035
 ExpMin= 1.61D-01 ExpMax= 5.48D+03 ExpMxC= 8.25D+02 IAcc=3 IRadAn=         5 AccDes= 0.00D+00
 HarFok:  IExCor=  205 AccDes= 0.00D+00 IRadAn=         5 IDoV=-2 UseB2=F ITyADJ=14
 ICtDFT= 12500011 ScaDFX=  1.000000  1.000000  1.000000  1.000000
 Range of M.O.s used for correlation:    15   236
 NBasis=   236 NAE=    52 NBE=    52 NFC=    14 NFV=     0
 NROrb=    222 NOA=    38 NOB=    38 NVA=   184 NVB=   184
 Fully direct method using O(ONN) memory.
 JobTyp=1 Pass  1:  I=  15 to  52 NPSUse=  4 ParTrn=T ParDer=T DoDerP=T.
 Spin components of T(2) and E(2):
     alpha-alpha T2 =       0.9182730195D-01 E2=     -0.2718007343D+00
     alpha-beta  T2 =       0.5009502944D+00 E2=     -0.1495312867D+01
     beta-beta   T2 =       0.9182730195D-01 E2=     -0.2718007343D+00
 ANorm=    0.1297923302D+01
 E2 =    -0.2038914336D+01 EUMP2 =    -0.66331276118628D+03
          IDoAtm=111111111111111111111111111
          Differentiating once with respect to electric field.
                with respect to dipole field.
          Differentiating once with respect to nuclear coordinates.
 Keep R1 ints in memory in canonical form, NReq=397723379.
          There are     1 degrees of freedom in the 1st order CPHF.  IDoFFX=0 NUNeed=     1.
 LinEq1:  Iter=  0 NonCon=     1 RMS=4.52D-03 Max=1.24D-01 NDo=     1
 AX will form     1 AO Fock derivatives at one time.
 LinEq1:  Iter=  1 NonCon=     1 RMS=1.51D-03 Max=3.00D-02 NDo=     1
 LinEq1:  Iter=  2 NonCon=     1 RMS=6.19D-04 Max=1.82D-02 NDo=     1
 LinEq1:  Iter=  3 NonCon=     1 RMS=2.81D-04 Max=6.20D-03 NDo=     1
 LinEq1:  Iter=  4 NonCon=     1 RMS=8.60D-05 Max=1.69D-03 NDo=     1
 LinEq1:  Iter=  5 NonCon=     1 RMS=3.48D-05 Max=1.39D-03 NDo=     1
 LinEq1:  Iter=  6 NonCon=     1 RMS=1.45D-05 Max=5.98D-04 NDo=     1
 LinEq1:  Iter=  7 NonCon=     1 RMS=5.56D-06 Max=8.13D-05 NDo=     1
 LinEq1:  Iter=  8 NonCon=     1 RMS=2.20D-06 Max=4.81D-05 NDo=     1
 LinEq1:  Iter=  9 NonCon=     1 RMS=7.54D-07 Max=1.81D-05 NDo=     1
 LinEq1:  Iter= 10 NonCon=     1 RMS=3.50D-07 Max=1.33D-05 NDo=     1
 LinEq1:  Iter= 11 NonCon=     1 RMS=1.59D-07 Max=4.40D-06 NDo=     1
 LinEq1:  Iter= 12 NonCon=     1 RMS=6.68D-08 Max=1.60D-06 NDo=     1
 LinEq1:  Iter= 13 NonCon=     1 RMS=2.20D-08 Max=4.80D-07 NDo=     1
 LinEq1:  Iter= 14 NonCon=     1 RMS=7.59D-09 Max=2.25D-07 NDo=     1
 LinEq1:  Iter= 15 NonCon=     1 RMS=2.63D-09 Max=5.95D-08 NDo=     1
 LinEq1:  Iter= 16 NonCon=     1 RMS=9.40D-10 Max=1.92D-08 NDo=     1
 LinEq1:  Iter= 17 NonCon=     1 RMS=2.91D-10 Max=3.46D-09 NDo=     1
 LinEq1:  Iter= 18 NonCon=     1 RMS=1.05D-10 Max=1.60D-09 NDo=     1
 LinEq1:  Iter= 19 NonCon=     0 RMS=3.45D-11 Max=7.92D-10 NDo=     1
 Linear equations converged to 1.000D-10 1.000D-09 after    19 iterations.
 End of Minotr F.D. properties file   721 does not exist.
 End of Minotr F.D. properties file   722 does not exist.
 End of Minotr F.D. properties file   788 does not exist.

 **********************************************************************

            Population analysis using the SCF Density.

 **********************************************************************

 Alpha  occ. eigenvalues --  -20.60328 -20.60190 -15.84970 -15.62634 -15.56831
 Alpha  occ. eigenvalues --  -11.35348 -11.30882 -11.29878 -11.29407 -11.27652
 Alpha  occ. eigenvalues --  -11.24422 -11.23744 -11.23308 -11.22763  -1.59066
 Alpha  occ. eigenvalues --   -1.38734  -1.28212  -1.22692  -1.13477  -1.08860
 Alpha  occ. eigenvalues --   -1.01699  -1.00671  -0.93684  -0.89042  -0.84752
 Alpha  occ. eigenvalues --   -0.81775  -0.78305  -0.77170  -0.74094  -0.71357
 Alpha  occ. eigenvalues --   -0.71083  -0.69110  -0.66941  -0.64473  -0.63079
 Alpha  occ. eigenvalues --   -0.61654  -0.60382  -0.57337  -0.56353  -0.54763
 Alpha  occ. eigenvalues --   -0.53629  -0.50876  -0.50278  -0.48615  -0.47973
 Alpha  occ. eigenvalues --   -0.47601  -0.46186  -0.45532  -0.44075  -0.42013
 Alpha  occ. eigenvalues --   -0.39948  -0.33063
 Alpha virt. eigenvalues --    0.08546   0.10580   0.18307   0.21131   0.23176
 Alpha virt. eigenvalues --    0.24166   0.25235   0.27739   0.28625   0.28774
 Alpha virt. eigenvalues --    0.29099   0.30881   0.31942   0.32400   0.33398
 Alpha virt. eigenvalues --    0.33915   0.34923   0.36420   0.37758   0.38685
 Alpha virt. eigenvalues --    0.40739   0.41819   0.44401   0.45151   0.45471
 Alpha virt. eigenvalues --    0.47630   0.48418   0.53885   0.57557   0.58117
 Alpha virt. eigenvalues --    0.62343   0.68795   0.69340   0.72202   0.74041
 Alpha virt. eigenvalues --    0.74433   0.75823   0.76146   0.78032   0.78846
 Alpha virt. eigenvalues --    0.80537   0.82992   0.84788   0.85532   0.88337
 Alpha virt. eigenvalues --    0.89102   0.89459   0.91116   0.91911   0.93309
 Alpha virt. eigenvalues --    0.94550   0.97138   0.98610   1.00716   1.01568
 Alpha virt. eigenvalues --    1.03928   1.05089   1.06583   1.07465   1.08551
 Alpha virt. eigenvalues --    1.10242   1.10543   1.10832   1.11061   1.12513
 Alpha virt. eigenvalues --    1.13296   1.13840   1.14887   1.15352   1.16142
 Alpha virt. eigenvalues --    1.16961   1.17384   1.18588   1.20985   1.22008
 Alpha virt. eigenvalues --    1.23071   1.23645   1.25689   1.26023   1.28536
 Alpha virt. eigenvalues --    1.30826   1.32070   1.32740   1.34003   1.38216
 Alpha virt. eigenvalues --    1.39595   1.40990   1.43439   1.47276   1.51634
 Alpha virt. eigenvalues --    1.53316   1.55640   1.60223   1.63087   1.67430
 Alpha virt. eigenvalues --    1.68520   1.71902   1.72835   1.73698   1.75285
 Alpha virt. eigenvalues --    1.77968   1.79059   1.85036   1.89957   1.90028
 Alpha virt. eigenvalues --    1.92051   1.97151   1.98003   2.00054   2.00632
 Alpha virt. eigenvalues --    2.02722   2.03706   2.05991   2.10346   2.11756
 Alpha virt. eigenvalues --    2.13104   2.15915   2.17478   2.18642   2.20190
 Alpha virt. eigenvalues --    2.21988   2.22604   2.25270   2.26234   2.27447
 Alpha virt. eigenvalues --    2.30204   2.31066   2.33071   2.34530   2.35231
 Alpha virt. eigenvalues --    2.39028   2.39894   2.41374   2.44043   2.44589
 Alpha virt. eigenvalues --    2.48555   2.49982   2.51574   2.56766   2.57915
 Alpha virt. eigenvalues --    2.60643   2.62626   2.65547   2.68235   2.69319
 Alpha virt. eigenvalues --    2.69794   2.71822   2.74431   2.75331   2.82225
 Alpha virt. eigenvalues --    2.85592   2.87007   2.88738   2.93690   2.95991
 Alpha virt. eigenvalues --    2.96978   3.00274   3.03755   3.04808   3.05985
 Alpha virt. eigenvalues --    3.08130   3.13416   3.18607   3.21345   3.24911
 Alpha virt. eigenvalues --    3.28917   3.33546   3.37925   3.40976   3.59190
 Alpha virt. eigenvalues --    4.10541   4.20203   4.25369   4.32833   4.44406
 Alpha virt. eigenvalues --    4.52978   4.59805   4.61615   4.71298   4.77516
 Alpha virt. eigenvalues --    4.97526   4.99385   5.03592   5.09953
          Condensed to atoms (all electrons):
               1          2          3          4          5          6
     1  O    8.313847   0.294919  -0.080363  -0.090505   0.008971   0.000203
     2  N    0.294919   5.769456   0.303893   0.241469  -0.046898   0.001301
     3  O   -0.080363   0.303893   8.295617  -0.082846   0.001762  -0.000032
     4  C   -0.090505   0.241469  -0.082846   5.246046   0.580488  -0.053236
     5  C    0.008971  -0.046898   0.001762   0.580488   4.642603   0.316963
     6  N    0.000203   0.001301  -0.000032  -0.053236   0.316963   7.175634
     7  C   -0.000004  -0.000099   0.000005   0.003494  -0.030150   0.206885
     8  H    0.000000   0.000002  -0.000000  -0.000157   0.002422  -0.048808
     9  C    0.000000  -0.000005   0.000000   0.000440   0.001920  -0.058131
    10  C    0.000000   0.000000  -0.000000  -0.000019  -0.000073   0.003404
    11  C   -0.000000  -0.000000  -0.000000  -0.000018   0.000017  -0.000156
    12  C    0.000000   0.000001  -0.000000  -0.000091  -0.000157   0.003586
    13  C    0.000002  -0.000040  -0.000025  -0.009461   0.000420  -0.045713
    14  H    0.000001  -0.000055  -0.000007   0.002334   0.004476  -0.005410
    15  N   -0.000037   0.001973   0.000031  -0.065601  -0.005137   0.002768
    16  C    0.000880  -0.026320   0.004653   0.320011  -0.031613  -0.001370
    17  H    0.004625  -0.002034  -0.000031  -0.035219   0.385653  -0.031590
    18  H    0.000009  -0.000052   0.000000   0.001627  -0.023860   0.328307
    19  H    0.000000   0.000000  -0.000000  -0.000892   0.000648   0.000616
    20  H    0.000000  -0.000000  -0.000000  -0.000029   0.000013  -0.001389
    21  H   -0.000000  -0.000000   0.000000   0.000000   0.000001  -0.000061
    22  H    0.000000   0.000000  -0.000000  -0.000000  -0.000002  -0.000096
    23  H    0.000000  -0.000000  -0.000000   0.000024  -0.000000  -0.000023
    24  H    0.000000   0.000000  -0.000000   0.000000  -0.000000   0.000004
    25  H    0.000000  -0.000000   0.000000   0.000020  -0.000001  -0.000070
    26  H    0.000000  -0.000000  -0.000000   0.000004  -0.000000  -0.000068
    27  H    0.000084   0.000531   0.001589  -0.075725   0.001918   0.000046
               7          8          9         10         11         12
     1  O   -0.000004   0.000000   0.000000   0.000000  -0.000000   0.000000
     2  N   -0.000099   0.000002  -0.000005   0.000000  -0.000000   0.000001
     3  O    0.000005  -0.000000   0.000000  -0.000000  -0.000000  -0.000000
     4  C    0.003494  -0.000157   0.000440  -0.000019  -0.000018  -0.000091
     5  C   -0.030150   0.002422   0.001920  -0.000073   0.000017  -0.000157
     6  N    0.206885  -0.048808  -0.058131   0.003404  -0.000156   0.003586
     7  C    5.006009   0.415850   0.341759  -0.049533  -0.007660  -0.064263
     8  H    0.415850   0.547497  -0.060357   0.001243  -0.000268  -0.003039
     9  C    0.341759  -0.060357   5.180280   0.317888  -0.053142  -0.005897
    10  C   -0.049533   0.001243   0.317888   5.127704   0.332698  -0.060294
    11  C   -0.007660  -0.000268  -0.053142   0.332698   5.124561   0.330434
    12  C   -0.064263  -0.003039  -0.005897  -0.060294   0.330434   5.137826
    13  C    0.329171  -0.039272  -0.052048  -0.001441  -0.048057   0.367523
    14  H   -0.040320  -0.000953   0.003827  -0.000385   0.003943  -0.040609
    15  N   -0.059070   0.003970  -0.012433   0.001504  -0.007819  -0.073915
    16  C   -0.002452  -0.000010  -0.000579  -0.000052   0.000010   0.002540
    17  H    0.001625  -0.000034  -0.000068   0.000001   0.000000   0.000001
    18  H   -0.029546  -0.002900   0.000759  -0.000116   0.000011  -0.000140
    19  H   -0.035156   0.004077   0.386592  -0.033001  -0.002243   0.000617
    20  H   -0.041491  -0.001783   0.397244  -0.037372   0.004133  -0.000362
    21  H    0.004055  -0.000081  -0.035820   0.400000  -0.035907   0.004227
    22  H   -0.004282   0.003534  -0.045573   0.395836  -0.045608  -0.001262
    23  H    0.000428   0.000034  -0.001985  -0.040160   0.396714  -0.036724
    24  H   -0.000146  -0.000100   0.004384  -0.038476   0.400276  -0.037887
    25  H    0.004992  -0.000001  -0.000380   0.004101  -0.033948   0.395389
    26  H   -0.004478   0.001544   0.001054  -0.002410  -0.042223   0.394692
    27  H   -0.000410   0.000009  -0.000057   0.000005   0.000005  -0.000025
              13         14         15         16         17         18
     1  O    0.000002   0.000001  -0.000037   0.000880   0.004625   0.000009
     2  N   -0.000040  -0.000055   0.001973  -0.026320  -0.002034  -0.000052
     3  O   -0.000025  -0.000007   0.000031   0.004653  -0.000031   0.000000
     4  C   -0.009461   0.002334  -0.065601   0.320011  -0.035219   0.001627
     5  C    0.000420   0.004476  -0.005137  -0.031613   0.385653  -0.023860
     6  N   -0.045713  -0.005410   0.002768  -0.001370  -0.031590   0.328307
     7  C    0.329171  -0.040320  -0.059070  -0.002452   0.001625  -0.029546
     8  H   -0.039272  -0.000953   0.003970  -0.000010  -0.000034  -0.002900
     9  C   -0.052048   0.003827  -0.012433  -0.000579  -0.000068   0.000759
    10  C   -0.001441  -0.000385   0.001504  -0.000052   0.000001  -0.000116
    11  C   -0.048057   0.003943  -0.007819   0.000010   0.000000   0.000011
    12  C    0.367523  -0.040609  -0.073915   0.002540   0.000001  -0.000140
    13  C    5.019885   0.404013   0.245957  -0.070284  -0.000059   0.003787
    14  H    0.404013   0.514657  -0.035974  -0.004635   0.000052   0.000013
    15  N    0.245957  -0.035974   6.921162   0.605331  -0.000046  -0.000126
    16  C   -0.070284  -0.004635   0.605331   4.657061   0.001531  -0.000151
    17  H   -0.000059   0.000052  -0.000046   0.001531   0.410184  -0.002230
    18  H    0.003787   0.000013  -0.000126  -0.000151  -0.002230   0.329404
    19  H   -0.006092   0.000061   0.006708   0.002360   0.000011  -0.000119
    20  H    0.003887  -0.000050   0.000078  -0.000031  -0.000003   0.002745
    21  H   -0.000391   0.000009  -0.000033   0.000002  -0.000000  -0.000000
    22  H    0.000329  -0.000043   0.000005  -0.000001   0.000000   0.000003
    23  H   -0.005879   0.000007   0.006720   0.000084   0.000000   0.000000
    24  H    0.004152  -0.000059   0.000036   0.000005   0.000000  -0.000000
    25  H   -0.034576  -0.002662   0.000878  -0.000052  -0.000000   0.000002
    26  H   -0.044655  -0.000886   0.004155  -0.000052   0.000000  -0.000001
    27  H    0.004964  -0.000156  -0.037487   0.405672  -0.000067   0.000002
              19         20         21         22         23         24
     1  O    0.000000   0.000000  -0.000000   0.000000   0.000000   0.000000
     2  N    0.000000  -0.000000  -0.000000   0.000000  -0.000000   0.000000
     3  O   -0.000000  -0.000000   0.000000  -0.000000  -0.000000  -0.000000
     4  C   -0.000892  -0.000029   0.000000  -0.000000   0.000024   0.000000
     5  C    0.000648   0.000013   0.000001  -0.000002  -0.000000  -0.000000
     6  N    0.000616  -0.001389  -0.000061  -0.000096  -0.000023   0.000004
     7  C   -0.035156  -0.041491   0.004055  -0.004282   0.000428  -0.000146
     8  H    0.004077  -0.001783  -0.000081   0.003534   0.000034  -0.000100
     9  C    0.386592   0.397244  -0.035820  -0.045573  -0.001985   0.004384
    10  C   -0.033001  -0.037372   0.400000   0.395836  -0.040160  -0.038476
    11  C   -0.002243   0.004133  -0.035907  -0.045608   0.396714   0.400276
    12  C    0.000617  -0.000362   0.004227  -0.001262  -0.036724  -0.037887
    13  C   -0.006092   0.003887  -0.000391   0.000329  -0.005879   0.004152
    14  H    0.000061  -0.000050   0.000009  -0.000043   0.000007  -0.000059
    15  N    0.006708   0.000078  -0.000033   0.000005   0.006720   0.000036
    16  C    0.002360  -0.000031   0.000002  -0.000001   0.000084   0.000005
    17  H    0.000011  -0.000003  -0.000000   0.000000   0.000000   0.000000
    18  H   -0.000119   0.002745  -0.000000   0.000003   0.000000  -0.000000
    19  H    0.507717  -0.023821  -0.002596   0.003772   0.001653  -0.000072
    20  H   -0.023821   0.548996  -0.002643  -0.002941  -0.000050  -0.000090
    21  H   -0.002596  -0.002643   0.526937  -0.024760  -0.002828  -0.002074
    22  H    0.003772  -0.002941  -0.024760   0.569363   0.004070  -0.003589
    23  H    0.001653  -0.000050  -0.002828   0.004070   0.510648  -0.025041
    24  H   -0.000072  -0.000090  -0.002074  -0.003589  -0.025041   0.541551
    25  H   -0.000027   0.000011  -0.000086  -0.000082  -0.002080  -0.002395
    26  H    0.000023  -0.000035  -0.000073   0.002456   0.003820  -0.002748
    27  H    0.000084   0.000000  -0.000000   0.000000  -0.000020  -0.000000
              25         26         27
     1  O    0.000000   0.000000   0.000084
     2  N   -0.000000  -0.000000   0.000531
     3  O    0.000000  -0.000000   0.001589
     4  C    0.000020   0.000004  -0.075725
     5  C   -0.000001  -0.000000   0.001918
     6  N   -0.000070  -0.000068   0.000046
     7  C    0.004992  -0.004478  -0.000410
     8  H   -0.000001   0.001544   0.000009
     9  C   -0.000380   0.001054  -0.000057
    10  C    0.004101  -0.002410   0.000005
    11  C   -0.033948  -0.042223   0.000005
    12  C    0.395389   0.394692  -0.000025
    13  C   -0.034576  -0.044655   0.004964
    14  H   -0.002662  -0.000886  -0.000156
    15  N    0.000878   0.004155  -0.037487
    16  C   -0.000052  -0.000052   0.405672
    17  H   -0.000000   0.000000  -0.000067
    18  H    0.000002  -0.000001   0.000002
    19  H   -0.000027   0.000023   0.000084
    20  H    0.000011  -0.000035   0.000000
    21  H   -0.000086  -0.000073  -0.000000
    22  H   -0.000082   0.002456   0.000000
    23  H   -0.002080   0.003820  -0.000020
    24  H   -0.002395  -0.002748  -0.000000
    25  H    0.510703  -0.023142  -0.000012
    26  H   -0.023142   0.560688   0.000001
    27  H   -0.000012   0.000001   0.472245
 Mulliken charges:
               1
     1  O   -0.452633
     2  N    0.461958
     3  O   -0.444246
     4  C    0.017840
     5  C    0.189617
     6  N   -0.793566
     7  C    0.054785
     8  H    0.177580
     9  C   -0.309672
    10  C   -0.321052
    11  C   -0.315754
    12  C   -0.312172
    13  C   -0.026096
    14  H    0.198813
    15  N   -0.503598
    16  C    0.137462
    17  H    0.267697
    18  H    0.392572
    19  H    0.189078
    20  H    0.154983
    21  H    0.172122
    22  H    0.148869
    23  H    0.190588
    24  H    0.162267
    25  H    0.183417
    26  H    0.152336
    27  H    0.226804
 Sum of Mulliken charges =  -0.00000
 Mulliken charges with hydrogens summed into heavy atoms:
               1
     1  O   -0.452633
     2  N    0.461958
     3  O   -0.444246
     4  C    0.017840
     5  C    0.457315
     6  N   -0.400995
     7  C    0.232365
     9  C    0.034389
    10  C   -0.000060
    11  C    0.037101
    12  C    0.023580
    13  C    0.172717
    15  N   -0.503598
    16  C    0.364267
 Electronic spatial extent (au):  <R**2>=           3079.0850
 Charge=             -0.0000 electrons
 Dipole moment (field-independent basis, Debye):
    X=              4.8332    Y=              4.3551    Z=              0.4896  Tot=              6.5243
 Quadrupole moment (field-independent basis, Debye-Ang):
   XX=           -102.3191   YY=            -78.2006   ZZ=            -85.0382
   XY=             -2.1682   XZ=             -0.7234   YZ=              2.6319
 Traceless Quadrupole moment (field-independent basis, Debye-Ang):
   XX=            -13.7998   YY=             10.3187   ZZ=              3.4811
   XY=             -2.1682   XZ=             -0.7234   YZ=              2.6319
 Octapole moment (field-independent basis, Debye-Ang**2):
  XXX=             81.6372  YYY=             32.5838  ZZZ=             -2.8706  XYY=            -11.2356
  XXY=             15.6501  XXZ=              8.3512  XZZ=              1.0106  YZZ=             -3.1793
  YYZ=             -3.7152  XYZ=            -11.1673
 Hexadecapole moment (field-independent basis, Debye-Ang**3):
 XXXX=          -3413.9434 YYYY=           -578.2315 ZZZZ=           -347.5409 XXXY=            -59.7942
 XXXZ=            -40.8222 YYYX=             -5.0089 YYYZ=             45.3127 ZZZX=            -10.6076
 ZZZY=             44.5794 XXYY=           -608.1098 XXZZ=           -575.6952 YYZZ=           -168.3469
 XXYZ=             52.8541 YYXZ=              8.7074 ZZXY=              2.0799
 N-N= 9.201233935266D+02 E-N=-3.386345840746D+03  KE= 6.589695069534D+02
 Calling FoFJK, ICntrl=  10002127 FMM=F ISym2X=0 I1Cent= 0 IOpClX= 0 NMat=1 NMatS=1 NMatT=0.
 -------------------------------------------------------------------
 Center     Atomic                   Forces (Hartrees/Bohr)
 Number     Number              X              Y              Z
 -------------------------------------------------------------------
      1        8          -0.016286084    0.016882291   -0.008482853
      2        7           0.041463264   -0.001079835   -0.010365333
      3        8          -0.007967847   -0.015386991    0.014218793
      4        6           0.003254064    0.015786482    0.009753700
      5        6           0.006624588   -0.021049776   -0.006488413
      6        7           0.018608594   -0.003828450   -0.003866482
      7        6          -0.006240480    0.006027807    0.002086216
      8        1          -0.010459623   -0.002424860   -0.007312397
      9        6          -0.003710543   -0.000113649   -0.001896630
     10        6           0.002782516   -0.000853730    0.000791367
     11        6          -0.000760457   -0.004641289   -0.001888439
     12        6           0.000646703   -0.009309942   -0.002481107
     13        6           0.008507019   -0.000681812    0.002977097
     14        1           0.000638468    0.003151103   -0.010622094
     15        7           0.000816242   -0.002808817    0.003744940
     16        6          -0.016425125    0.012872558    0.007001164
     17        1           0.009226312   -0.005163820   -0.003799380
     18        1          -0.017223670   -0.002034846    0.004653550
     19        1           0.003176418    0.006442578    0.007038163
     20        1          -0.003245824   -0.007245450    0.003282579
     21        1          -0.004135415    0.003125765    0.009474160
     22        1          -0.004103408   -0.004562404   -0.006976604
     23        1           0.004056862    0.006798271    0.008713779
     24        1          -0.009415340    0.002374954   -0.002191096
     25        1          -0.000870347    0.010365636   -0.003264536
     26        1          -0.004883236   -0.005111809   -0.003952132
     27        1           0.005926350    0.002470035   -0.000148014
 -------------------------------------------------------------------
 Cartesian Forces:  Max     0.041463264 RMS     0.009032213

 GradGradGradGradGradGradGradGradGradGradGradGradGradGradGradGradGradGrad
 Berny optimization.
 FormGI is forming the generalized inverse of G from B-inverse, IUseBI=4.
 Internal  Forces:  Max     0.030015641 RMS     0.006293021
 Search for a local minimum.
 Step number   1 out of a maximum of   20
 All quantities printed in internal units (Hartrees-Bohrs-Radians)
 Mixed Optimization -- RFO/linear search
 Second derivative matrix not updated -- first step.
 ITU=  0
     Eigenvalues ---    0.00519   0.00770   0.01095   0.01178   0.01272
     Eigenvalues ---    0.01493   0.01537   0.01643   0.01997   0.02055
     Eigenvalues ---    0.02136   0.02676   0.03660   0.04508   0.04697
     Eigenvalues ---    0.04837   0.05072   0.05139   0.05302   0.05872
     Eigenvalues ---    0.06268   0.07211   0.07699   0.07716   0.07857
     Eigenvalues ---    0.07996   0.08039   0.08049   0.10458   0.11735
     Eigenvalues ---    0.12265   0.13360   0.15138   0.15576   0.15990
     Eigenvalues ---    0.16000   0.20098   0.22063   0.23273   0.24959
     Eigenvalues ---    0.25000   0.25000   0.25333   0.26161   0.26653
     Eigenvalues ---    0.27987   0.28081   0.28439   0.31478   0.31832
     Eigenvalues ---    0.32049   0.32240   0.32290   0.32381   0.32387
     Eigenvalues ---    0.32403   0.32511   0.32526   0.32586   0.33175
     Eigenvalues ---    0.33342   0.33586   0.33954   0.35265   0.43882
     Eigenvalues ---    0.45197   0.49542   0.67284   0.91193   0.91783
     Eigenvalues --- 1000.000001000.000001000.000001000.000001000.00000
     Eigenvalues --- 1000.000001000.000001000.000001000.000001000.00000
     Eigenvalues --- 1000.000001000.000001000.000001000.000001000.00000
     Eigenvalues --- 1000.000001000.000001000.000001000.000001000.00000
     Eigenvalues --- 1000.000001000.000001000.000001000.000001000.00000
     Eigenvalues --- 1000.000001000.000001000.000001000.000001000.00000
     Eigenvalues --- 1000.000001000.000001000.000001000.000001000.00000
     Eigenvalues --- 1000.000001000.000001000.000001000.000001000.00000
     Eigenvalues --- 1000.000001000.000001000.000001000.000001000.00000
     Eigenvalues --- 1000.000001000.000001000.000001000.000001000.00000
     Eigenvalues --- 1000.000001000.000001000.000001000.000001000.00000
     Eigenvalues --- 1000.000001000.000001000.000001000.000001000.00000
     Eigenvalues --- 1000.000001000.000001000.000001000.000001000.00000
     Eigenvalues --- 1000.000001000.000001000.000001000.000001000.00000
     Eigenvalues --- 1000.000001000.000001000.000001000.000001000.00000
     Eigenvalues --- 1000.000001000.000001000.000001000.000001000.00000
     Eigenvalues --- 1000.000001000.000001000.000001000.000001000.00000
     Eigenvalues --- 1000.000001000.000001000.000001000.000001000.00000
     Eigenvalues --- 1000.00000
 RFO step:  Lambda=-1.97610008D-02 EMin= 5.18910056D-03
 Linear search not attempted -- first point.
 Iteration  1 RMS(Cart)=  0.04705634 RMS(Int)=  0.00120358
 Iteration  2 RMS(Cart)=  0.00146829 RMS(Int)=  0.00036109
 Iteration  3 RMS(Cart)=  0.00000124 RMS(Int)=  0.00036109
 Iteration  4 RMS(Cart)=  0.00000000 RMS(Int)=  0.00036109
 Iteration  1 RMS(Cart)=  0.00002445 RMS(Int)=  0.00001956
 Iteration  2 RMS(Cart)=  0.00001319 RMS(Int)=  0.00002162
 Iteration  3 RMS(Cart)=  0.00000784 RMS(Int)=  0.00002417
 Iteration  4 RMS(Cart)=  0.00000514 RMS(Int)=  0.00002602
 Iteration  5 RMS(Cart)=  0.00000369 RMS(Int)=  0.00002733
 Iteration  6 RMS(Cart)=  0.00000286 RMS(Int)=  0.00002831
 Iteration  7 RMS(Cart)=  0.00000234 RMS(Int)=  0.00002908
 Iteration  8 RMS(Cart)=  0.00000198 RMS(Int)=  0.00002972
 Iteration  9 RMS(Cart)=  0.00000171 RMS(Int)=  0.00003027
 Iteration 10 RMS(Cart)=  0.00000148 RMS(Int)=  0.00003074
 Iteration 11 RMS(Cart)=  0.00000130 RMS(Int)=  0.00003116
 Iteration 12 RMS(Cart)=  0.00000113 RMS(Int)=  0.00003154
 Iteration 13 RMS(Cart)=  0.00000099 RMS(Int)=  0.00003186
 Variable       Old X    -DE/DX   Delta X   Delta X   Delta X     New X
                                 (Linear)    (Quad)   (Total)
    R1        2.32388   0.02296   0.00000   0.02464   0.02464   2.34852
    R2        2.32122   0.02236   0.00000   0.02385   0.02385   2.34507
    R3        2.82046  -0.01690   0.00000  -0.04808  -0.04808   2.77238
    R4        2.63348  -0.03002   0.00000  -0.06419  -0.06394   2.56953
    R5        2.79480  -0.01989   0.00000  -0.05708  -0.05691   2.73789
    R6        2.58861  -0.02003   0.00000  -0.03860  -0.03846   2.55014
    R7        2.08455  -0.01056   0.00000  -0.02989  -0.02989   2.05466
    R8        2.82616  -0.02051   0.00000  -0.05698  -0.05706   2.76910
    R9        1.93296  -0.00689   0.00000  -0.01503  -0.01503   1.91793
   R10        2.11810  -0.01208   0.00000  -0.03611  -0.03611   2.08199
   R11        2.92752  -0.01271   0.00000  -0.04371  -0.04371   2.88381
   R12        2.90589  -0.00400   0.00000  -0.00780  -0.00791   2.89798
   R13        2.91148  -0.00457   0.00000  -0.01434  -0.01436   2.89712
   R14        2.09919  -0.00984   0.00000  -0.02853  -0.02853   2.07065
   R15        2.09891  -0.00816   0.00000  -0.02365  -0.02365   2.07526
   R16        2.90433  -0.00198   0.00000  -0.00758  -0.00766   2.89667
   R17        2.10142  -0.01054   0.00000  -0.03068  -0.03068   2.07073
   R18        2.10316  -0.00900   0.00000  -0.02627  -0.02627   2.07689
   R19        2.91737  -0.00916   0.00000  -0.02960  -0.02960   2.88777
   R20        2.10406  -0.01161   0.00000  -0.03393  -0.03393   2.07013
   R21        2.10113  -0.00993   0.00000  -0.02888  -0.02888   2.07226
   R22        2.93526  -0.01056   0.00000  -0.03687  -0.03685   2.89841
   R23        2.10151  -0.01075   0.00000  -0.03128  -0.03128   2.07024
   R24        2.09784  -0.00789   0.00000  -0.02284  -0.02284   2.07500
   R25        2.10755  -0.00952   0.00000  -0.02797  -0.02797   2.07959
   R26        2.77128  -0.00634   0.00000  -0.01438  -0.01459   2.75669
   R27        2.44180  -0.00519   0.00000  -0.00750  -0.00753   2.43427
   R28        2.08035  -0.00460   0.00000  -0.01293  -0.01293   2.06742
    A1        2.19496  -0.00217   0.00000  -0.00554  -0.00748   2.18747
    A2        2.04308   0.00601   0.00000   0.02477   0.02282   2.06590
    A3        2.03875  -0.00256   0.00000  -0.00701  -0.00895   2.02979
    A4        2.00220  -0.00006   0.00000   0.00238   0.00102   2.00323
    A5        2.02080  -0.00406   0.00000  -0.01236  -0.01370   2.00710
    A6        2.25835   0.00410   0.00000   0.00501   0.00434   2.26269
    A7        2.18830   0.00990   0.00000   0.03525   0.03571   2.22401
    A8        2.06161  -0.00278   0.00000  -0.00538  -0.00564   2.05596
    A9        2.03229  -0.00709   0.00000  -0.02935  -0.02962   2.00267
   A10        2.25184  -0.00726   0.00000  -0.02584  -0.02568   2.22616
   A11        2.11046  -0.01110   0.00000  -0.06808  -0.06828   2.04218
   A12        1.86999   0.01833   0.00000   0.09961   0.09966   1.96965
   A13        1.83787  -0.00193   0.00000  -0.01888  -0.01866   1.81921
   A14        2.00517  -0.00096   0.00000  -0.01332  -0.01330   1.99187
   A15        1.97088   0.00147   0.00000   0.00219   0.00154   1.97242
   A16        1.85269   0.00280   0.00000   0.02497   0.02474   1.87743
   A17        1.84909   0.00098   0.00000   0.02145   0.02142   1.87052
   A18        1.93423  -0.00204   0.00000  -0.01159  -0.01129   1.92295
   A19        1.91011   0.00046   0.00000  -0.00406  -0.00418   1.90592
   A20        1.92193  -0.00073   0.00000  -0.01375  -0.01372   1.90821
   A21        1.92300  -0.00185   0.00000  -0.00757  -0.00760   1.91540
   A22        1.91934  -0.00049   0.00000   0.00565   0.00559   1.92493
   A23        1.90486   0.00299   0.00000   0.02568   0.02570   1.93056
   A24        1.88442  -0.00036   0.00000  -0.00554  -0.00582   1.87860
   A25        1.94072  -0.00090   0.00000   0.00601   0.00582   1.94653
   A26        1.91878  -0.00059   0.00000  -0.00664  -0.00664   1.91215
   A27        1.90494   0.00025   0.00000  -0.00313  -0.00318   1.90176
   A28        1.91605   0.00071   0.00000   0.00734   0.00740   1.92345
   A29        1.89854   0.00178   0.00000   0.01137   0.01143   1.90997
   A30        1.88377  -0.00123   0.00000  -0.01548  -0.01558   1.86819
   A31        1.94457   0.00068   0.00000   0.00537   0.00559   1.95016
   A32        1.90250   0.00060   0.00000   0.00636   0.00626   1.90876
   A33        1.91724   0.00042   0.00000   0.00560   0.00557   1.92281
   A34        1.90698  -0.00125   0.00000  -0.01519  -0.01526   1.89172
   A35        1.91526  -0.00040   0.00000   0.00039   0.00026   1.91552
   A36        1.87591  -0.00007   0.00000  -0.00293  -0.00295   1.87296
   A37        1.94604  -0.00289   0.00000  -0.01945  -0.01952   1.92652
   A38        1.90625   0.00242   0.00000   0.01683   0.01663   1.92288
   A39        1.91136   0.00146   0.00000   0.01465   0.01468   1.92604
   A40        1.90631   0.00023   0.00000  -0.00332  -0.00311   1.90320
   A41        1.91209  -0.00032   0.00000  -0.00477  -0.00471   1.90738
   A42        1.88060  -0.00083   0.00000  -0.00340  -0.00362   1.87699
   A43        1.84555   0.00473   0.00000   0.02532   0.02540   1.87095
   A44        1.93512  -0.00430   0.00000  -0.03007  -0.03056   1.90456
   A45        1.99078   0.00123   0.00000   0.01305   0.01315   2.00393
   A46        1.88156   0.00231   0.00000   0.03251   0.03276   1.91432
   A47        1.89115  -0.00455   0.00000  -0.03193  -0.03197   1.85919
   A48        1.91496   0.00077   0.00000  -0.00628  -0.00599   1.90897
   A49        2.08797  -0.00631   0.00000  -0.01806  -0.01807   2.06990
   A50        2.24350  -0.00154   0.00000  -0.01006  -0.01012   2.23338
   A51        1.97776   0.00451   0.00000   0.02560   0.02508   2.00285
   A52        2.06182  -0.00299   0.00000  -0.01620  -0.01670   2.04512
    D1        0.98832  -0.00965   0.00000  -0.07935  -0.07894   0.90938
    D2       -2.09440  -0.00942   0.00000   0.00000   0.00000  -2.09440
    D3       -2.26755   0.00160   0.00000   0.02887   0.02908  -2.23846
    D4        0.93292   0.00183   0.00000   0.10822   0.10802   1.04094
    D5        3.08252   0.00028   0.00000   0.04493   0.04506   3.12758
    D6       -0.00941  -0.00025   0.00000   0.03275   0.03286   0.02346
    D7       -0.12769  -0.00036   0.00000  -0.04828  -0.04873  -0.17642
    D8        3.06357  -0.00089   0.00000  -0.06046  -0.06093   3.00264
    D9       -2.81324  -0.00083   0.00000  -0.06436  -0.06466  -2.87790
   D10        0.34412   0.00116   0.00000  -0.01293  -0.01276   0.33136
   D11        0.39758  -0.00032   0.00000   0.02918   0.02882   0.42640
   D12       -2.72825   0.00168   0.00000   0.08061   0.08072  -2.64753
   D13       -0.02609   0.00014   0.00000   0.02849   0.02872   0.00263
   D14        2.73272   0.00366   0.00000   0.06841   0.06811   2.80084
   D15        3.06658   0.00076   0.00000   0.04106   0.04115   3.10773
   D16       -0.45779   0.00428   0.00000   0.08098   0.08054  -0.37725
   D17       -2.56415  -0.00070   0.00000  -0.01253  -0.01214  -2.57628
   D18        1.68722  -0.00237   0.00000  -0.02366  -0.02329   1.66394
   D19       -0.55445   0.00006   0.00000   0.00296   0.00308  -0.55137
   D20        0.91939   0.00057   0.00000  -0.02237  -0.02253   0.89686
   D21       -1.11243  -0.00110   0.00000  -0.03350  -0.03368  -1.14610
   D22        2.92909   0.00133   0.00000  -0.00687  -0.00731   2.92177
   D23        2.94177   0.00213   0.00000   0.02857   0.02851   2.97028
   D24       -1.22960   0.00135   0.00000   0.02428   0.02422  -1.20538
   D25        0.84719  -0.00070   0.00000   0.00416   0.00419   0.85137
   D26        0.91845   0.00318   0.00000   0.04270   0.04276   0.96121
   D27        3.03027   0.00240   0.00000   0.03841   0.03847   3.06873
   D28       -1.17614   0.00036   0.00000   0.01829   0.01843  -1.15770
   D29       -1.08154   0.00148   0.00000   0.00939   0.00933  -1.07221
   D30        1.03027   0.00070   0.00000   0.00510   0.00504   1.03531
   D31        3.10705  -0.00134   0.00000  -0.01502  -0.01499   3.09206
   D32       -2.89756  -0.00102   0.00000  -0.01511  -0.01486  -2.91241
   D33       -0.86277   0.00223   0.00000   0.02253   0.02236  -0.84042
   D34        1.30939   0.00074   0.00000   0.00000   0.00001   1.30940
   D35       -0.89460  -0.00200   0.00000  -0.02382  -0.02364  -0.91825
   D36        1.14018   0.00125   0.00000   0.01382   0.01357   1.15375
   D37       -2.97084  -0.00023   0.00000  -0.00871  -0.00878  -2.97962
   D38        1.10765   0.00085   0.00000   0.01169   0.01184   1.11949
   D39       -3.14076   0.00409   0.00000   0.04932   0.04906  -3.09170
   D40       -0.96859   0.00261   0.00000   0.02680   0.02671  -0.94189
   D41        0.95666   0.00081   0.00000   0.00000   0.00001   0.95667
   D42        3.08228   0.00070   0.00000   0.00876   0.00871   3.09099
   D43       -1.13784  -0.00099   0.00000  -0.01584  -0.01580  -1.15365
   D44       -1.15673   0.00174   0.00000   0.01603   0.01611  -1.14062
   D45        0.96890   0.00163   0.00000   0.02479   0.02480   0.99370
   D46        3.03196  -0.00007   0.00000   0.00019   0.00029   3.03225
   D47        3.06232   0.00067   0.00000   0.00405   0.00403   3.06636
   D48       -1.09524   0.00056   0.00000   0.01281   0.01273  -1.08251
   D49        0.96782  -0.00113   0.00000  -0.01179  -0.01178   0.95604
   D50       -0.92193  -0.00063   0.00000   0.00000   0.00001  -0.92192
   D51        1.18390  -0.00136   0.00000  -0.01133  -0.01135   1.17255
   D52       -3.04808  -0.00085   0.00000  -0.00791  -0.00797  -3.05605
   D53       -3.04914   0.00023   0.00000  -0.00061  -0.00058  -3.04972
   D54       -0.94331  -0.00051   0.00000  -0.01195  -0.01194  -0.95525
   D55        1.10789   0.00001   0.00000  -0.00853  -0.00856   1.09933
   D56        1.17636   0.00027   0.00000   0.00720   0.00724   1.18360
   D57       -3.00099  -0.00047   0.00000  -0.00414  -0.00412  -3.00511
   D58       -0.94979   0.00004   0.00000  -0.00072  -0.00074  -0.95053
   D59        0.99014  -0.00094   0.00000  -0.01183  -0.01193   0.97821
   D60        3.09856  -0.00089   0.00000  -0.01723  -0.01745   3.08112
   D61       -1.12896   0.00036   0.00000  -0.00301  -0.00301  -1.13197
   D62       -1.11306  -0.00129   0.00000  -0.01316  -0.01317  -1.12623
   D63        0.99536  -0.00124   0.00000  -0.01856  -0.01869   0.97667
   D64        3.05102   0.00001   0.00000  -0.00433  -0.00426   3.04676
   D65        3.11744  -0.00024   0.00000  -0.00091  -0.00092   3.11652
   D66       -1.05732  -0.00019   0.00000  -0.00631  -0.00644  -1.06376
   D67        0.99834   0.00106   0.00000   0.00791   0.00799   1.00633
   D68       -1.05712  -0.00010   0.00000  -0.00166  -0.00153  -1.05866
   D69       -3.12785   0.00129   0.00000   0.00397   0.00352  -3.12433
   D70        1.08396   0.00159   0.00000   0.01091   0.01067   1.09463
   D71        3.11768  -0.00142   0.00000  -0.00804  -0.00780   3.10988
   D72        1.04695  -0.00003   0.00000  -0.00241  -0.00275   1.04420
   D73       -1.02442   0.00027   0.00000   0.00452   0.00440  -1.02002
   D74        1.06156  -0.00037   0.00000   0.00080   0.00107   1.06263
   D75       -1.00917   0.00102   0.00000   0.00643   0.00612  -1.00305
   D76       -3.08055   0.00132   0.00000   0.01336   0.01328  -3.06727
   D77       -1.17216   0.00382   0.00000   0.00000   0.00001  -1.17216
   D78        3.06085   0.00022   0.00000  -0.01802  -0.01782   3.04303
   D79        1.01075  -0.00036   0.00000  -0.03514  -0.03545   0.97530
   D80        0.21072  -0.00014   0.00000  -0.00429  -0.00456   0.20617
   D81       -2.94728  -0.00216   0.00000  -0.05753  -0.05722  -3.00450
         Item               Value     Threshold  Converged?
 Maximum Force            0.029759     0.000450     NO 
 RMS     Force            0.006275     0.000300     NO 
 Maximum Displacement     0.192600     0.001800     NO 
 RMS     Displacement     0.047588     0.001200     NO 
 Predicted change in Energy=-1.118176D-02
 GradGradGradGradGradGradGradGradGradGradGradGradGradGradGradGradGradGrad

                          Input orientation:                          
 ---------------------------------------------------------------------
 Center     Atomic      Atomic             Coordinates (Angstroms)
 Number     Number       Type             X           Y           Z
 ---------------------------------------------------------------------
      1          8           0       -3.752880    0.418782   -0.954519
      2          7           0       -3.116418   -0.241976   -0.116170
      3          8           0       -3.600577   -1.098138    0.640500
      4          6           0       -1.671904   -0.013682    0.000419
      5          6           0       -1.312025    1.287231    0.164734
      6          7           0       -0.064769    1.780714    0.312767
      7          6           0        1.195410    1.033095    0.328444
      8          1           0        1.840282    1.603563    1.015861
      9          6           0        1.901939    0.973112   -1.022862
     10          6           0        3.306154    0.388168   -0.832122
     11          6           0        3.257680   -0.973380   -0.129642
     12          6           0        2.462714   -0.909657    1.173885
     13          6           0        1.048299   -0.377639    0.911489
     14          1           0        0.492282   -0.319791    1.859397
     15          7           0        0.400026   -1.340692    0.028140
     16          6           0       -0.845734   -1.176072   -0.255305
     17          1           0       -2.104513    2.029738    0.217861
     18          1           0        0.065566    2.768952    0.121804
     19          1           0        1.319858    0.347886   -1.709102
     20          1           0        1.958349    1.980243   -1.457038
     21          1           0        3.799804    0.294270   -1.805897
     22          1           0        3.906039    1.087558   -0.233054
     23          1           0        2.780671   -1.705942   -0.789841
     24          1           0        4.274421   -1.330461    0.073446
     25          1           0        2.392145   -1.906629    1.622476
     26          1           0        2.967546   -0.256079    1.897542
     27          1           0       -1.342391   -1.978205   -0.809215
 ---------------------------------------------------------------------
                    Distance matrix (angstroms):
                    1          2          3          4          5
     1  O    0.000000
     2  N    1.242785   0.000000
     3  O    2.206428   1.240956   0.000000
     4  C    2.330106   1.467083   2.303373   0.000000
     5  C    2.822181   2.381851   3.339732   1.359738   0.000000
     6  N    4.130743   3.686167   4.571339   2.429054   1.349477
     7  C    5.148684   4.518335   5.257473   3.069989   2.525593
     8  H    6.047277   5.408917   6.086299   3.997756   3.280476
     9  C    5.682336   5.242370   6.110200   3.846196   3.440730
    10  C    7.060161   6.493004   7.216693   5.063168   4.809326
    11  C    7.194893   6.415938   6.902490   5.023817   5.106782
    12  C    6.702870   5.765133   6.089624   4.390314   4.482561
    13  C    5.212254   4.291778   4.712176   2.891715   2.983381
    14  H    5.146359   4.114807   4.340856   2.869356   2.951259
    15  N    4.616058   3.686920   4.054459   2.460613   3.139388
    16  C    3.388799   2.459248   2.897878   1.448828   2.541992
    17  H    2.585879   2.509226   3.492913   2.099999   1.087279
    18  H    4.611107   4.387180   5.353881   3.282772   2.023635
    19  H    5.129044   4.750360   5.641125   3.464655   3.364586
    20  H    5.942123   5.699951   6.691618   4.390747   3.715610
    21  H    7.601538   7.139809   7.917657   5.770373   5.567779
    22  H    7.721840   7.148162   7.866997   5.690403   5.237012
    23  H    6.872326   6.113321   6.567772   4.828424   5.159502
    24  H    8.279742   7.472969   7.898805   6.090815   6.170010
    25  H    7.057604   6.011508   6.126226   4.767684   5.103590
    26  H    7.331699   6.408577   6.740138   5.018200   4.868178
    27  H    3.402517   2.577204   2.824110   2.150218   3.407723
                    6          7          8          9         10
     6  N    0.000000
     7  C    1.465343   0.000000
     8  H    2.038367   1.101742   0.000000
     9  C    2.510790   1.526044   2.134868   0.000000
    10  C    3.822705   2.493609   2.653490   1.533088   0.000000
    11  C    4.338136   2.913545   3.156237   2.534701   1.532854
    12  C    3.790486   2.468828   2.593967   2.947030   2.533733
    13  C    2.501175   1.533543   2.136186   2.508973   2.953735
    14  H    2.667301   2.160673   2.495586   3.459213   3.957696
    15  N    3.168631   2.521445   3.423239   2.951955   3.489210
    16  C    3.110498   3.063895   4.069019   3.571813   4.474119
    17  H    2.057079   3.448915   4.047201   4.325218   5.750872
    18  H    1.014923   2.081453   2.303711   2.812040   4.132737
    19  H    2.838687   2.153275   3.045159   1.095743   2.171656
    20  H    2.695371   2.160350   2.504208   1.098182   2.177568
    21  H    4.651148   3.447339   3.676451   2.162374   1.095785
    22  H    4.067640   2.768710   2.468481   2.157153   1.099042
    23  H    4.633470   3.356477   3.885578   2.829099   2.159448
    24  H    5.344647   3.889952   3.927044   3.483821   2.170548
    25  H    4.620418   3.427633   3.604717   3.940942   3.482320
    26  H    3.981830   2.695274   2.346562   3.342931   2.825026
    27  H    4.125608   4.099101   5.127316   4.391082   5.216245
                   11         12         13         14         15
    11  C    0.000000
    12  C    1.528141   0.000000
    13  C    2.514006   1.533775   0.000000
    14  H    3.468556   2.168057   1.100469   0.000000
    15  N    2.885481   2.398584   1.458778   2.098631   0.000000
    16  C    4.110339   3.613778   2.363528   2.644895   1.288161
    17  H    6.155696   5.514851   4.027009   3.867592   4.203392
    18  H    4.925228   4.515014   3.389750   3.569545   4.124295
    19  H    2.827648   3.346513   2.732696   3.723555   2.591409
    20  H    3.489145   3.940515   3.463772   4.293979   3.957617
    21  H    2.170407   3.480855   3.925102   4.975054   4.194674
    22  H    2.162991   2.837522   3.409319   4.244140   4.272792
    23  H    1.095466   2.142752   2.767675   3.765183   2.543614
    24  H    1.096592   2.161094   3.466706   4.302982   3.874674
    25  H    2.165646   1.095522   2.156208   2.486698   2.613566
    26  H    2.169832   1.098043   2.161154   2.476378   3.356070
    27  H    4.757325   4.421912   3.352317   3.638386   2.035584
                   16         17         18         19         20
    16  C    0.000000
    17  H    3.476439   0.000000
    18  H    4.066436   2.294539   0.000000
    19  H    3.020888   4.274123   3.284361   0.000000
    20  H    4.389689   4.394835   2.587939   1.770818   0.000000
    21  H    5.113440   6.478302   4.876947   2.482413   2.520946
    22  H    5.263446   6.100636   4.207403   3.068251   2.467493
    23  H    3.703688   6.231837   5.312962   2.682765   3.835274
    24  H    5.133021   7.211282   5.875541   3.837157   4.320571
    25  H    3.813612   6.139043   5.433787   4.163178   4.977887
    26  H    4.474622   5.811374   4.552532   4.010926   4.156058
    27  H    1.094030   4.207057   5.038318   3.648022   5.194600
                   21         22         23         24         25
    21  H    0.000000
    22  H    1.764775   0.000000
    23  H    2.464113   3.062696   0.000000
    24  H    2.529218   2.465049   1.765655   0.000000
    25  H    4.310360   3.834061   2.451632   2.504881   0.000000
    26  H    3.835492   2.688041   3.059256   2.487879   1.769481
    27  H    5.709613   6.105480   4.132087   5.722520   4.457017
                   26         27
    26  H    0.000000
    27  H    5.372877   0.000000
 Symmetry turned off by external request.
 Stoichiometry    C9H13N3O2
 Framework group  C1[X(C9H13N3O2)]
 Deg. of freedom    75
 Full point group                 C1      NOp   1
 Rotational constants (GHZ):           1.6666564           0.4188281           0.3764887
 Standard basis: 6-31G(d) (6D, 7F)
   236 basis functions,   444 primitive gaussians,   236 cartesian basis functions
    52 alpha electrons       52 beta electrons
       nuclear repulsion energy       930.7690113944 Hartrees.
 NAtoms=   27 NActive=   27 NUniq=   27 SFac= 1.00D+00 NAtFMM=   60 NAOKFM=F Big=F
 Integral buffers will be    131072 words long.
 Raffenetti 1 integral format.
 Two-electron integral symmetry is turned off.
 One-electron integrals computed using PRISM.
 NBasis=   236 RedAO= T EigKep=  1.54D-03  NBF=   236
 NBsUse=   236 1.00D-06 EigRej= -1.00D+00 NBFU=   236
 Initial guess from the checkpoint file:  "/home/alexey/tmp/Gau-1151014.chk"
 B after Tr=     0.040031    0.002414    0.001775
         Rot=    0.999999    0.000378    0.001113    0.000817 Ang=   0.16 deg.
 ExpMin= 1.61D-01 ExpMax= 5.48D+03 ExpMxC= 8.25D+02 IAcc=3 IRadAn=         5 AccDes= 0.00D+00
 Harris functional with IExCor=  205 and IRadAn=       5 diagonalized for initial guess.
 HarFok:  IExCor=  205 AccDes= 0.00D+00 IRadAn=         5 IDoV= 1 UseB2=F ITyADJ=14
 ICtDFT=  3500011 ScaDFX=  1.000000  1.000000  1.000000  1.000000
 FoFCou: FMM=F IPFlag=           0 FMFlag=      100000 FMFlg1=           0
         NFxFlg=           0 DoJE=T BraDBF=F KetDBF=T FulRan=T
         wScrn=  0.000000 ICntrl=       500 IOpCl=  0 I1Cent=   200000004 NGrid=           0
         NMat0=    1 NMatS0=      1 NMatT0=    0 NMatD0=    1 NMtDS0=    0 NMtDT0=    0
 Symmetry not used in FoFCou.
 Keep R1 ints in memory in canonical form, NReq=397720213.
 Requested convergence on RMS density matrix=1.00D-08 within 128 cycles.
 Requested convergence on MAX density matrix=1.00D-06.
 Requested convergence on             energy=1.00D-06.
 No special actions if energy rises.
 SCF Done:  E(RHF) =  -661.286534511     A.U. after   15 cycles
            NFock= 15  Conv=0.44D-08     -V/T= 2.0025
 ExpMin= 1.61D-01 ExpMax= 5.48D+03 ExpMxC= 8.25D+02 IAcc=3 IRadAn=         5 AccDes= 0.00D+00
 HarFok:  IExCor=  205 AccDes= 0.00D+00 IRadAn=         5 IDoV=-2 UseB2=F ITyADJ=14
 ICtDFT= 12500011 ScaDFX=  1.000000  1.000000  1.000000  1.000000
 Range of M.O.s used for correlation:    15   236
 NBasis=   236 NAE=    52 NBE=    52 NFC=    14 NFV=     0
 NROrb=    222 NOA=    38 NOB=    38 NVA=   184 NVB=   184
 Fully direct method using O(ONN) memory.
 JobTyp=1 Pass  1:  I=  15 to  52 NPSUse=  4 ParTrn=T ParDer=T DoDerP=T.
 Spin components of T(2) and E(2):
     alpha-alpha T2 =       0.9139760893D-01 E2=     -0.2724656647D+00
     alpha-beta  T2 =       0.4951346383D+00 E2=     -0.1492031071D+01
     beta-beta   T2 =       0.9139760893D-01 E2=     -0.2724656647D+00
 ANorm=    0.1295349318D+01
 E2 =    -0.2036962401D+01 EUMP2 =    -0.66332349691167D+03
          IDoAtm=111111111111111111111111111
          Differentiating once with respect to electric field.
                with respect to dipole field.
          Differentiating once with respect to nuclear coordinates.
 Keep R1 ints in memory in canonical form, NReq=397723379.
          There are     1 degrees of freedom in the 1st order CPHF.  IDoFFX=0 NUNeed=     1.
 LinEq1:  Iter=  0 NonCon=     1 RMS=4.51D-03 Max=1.01D-01 NDo=     1
 AX will form     1 AO Fock derivatives at one time.
 LinEq1:  Iter=  1 NonCon=     1 RMS=1.51D-03 Max=2.82D-02 NDo=     1
 LinEq1:  Iter=  2 NonCon=     1 RMS=6.38D-04 Max=1.63D-02 NDo=     1
 LinEq1:  Iter=  3 NonCon=     1 RMS=2.78D-04 Max=4.92D-03 NDo=     1
 LinEq1:  Iter=  4 NonCon=     1 RMS=8.52D-05 Max=1.30D-03 NDo=     1
 LinEq1:  Iter=  5 NonCon=     1 RMS=3.36D-05 Max=1.10D-03 NDo=     1
 LinEq1:  Iter=  6 NonCon=     1 RMS=1.31D-05 Max=5.14D-04 NDo=     1
[...]
    27  H    4.736377   4.421293   3.355361   3.640850   2.033307
                   16         17         18         19         20
    16  C    0.000000
    17  H    3.463184   0.000000
    18  H    4.101418   2.240622   0.000000
    19  H    2.995965   4.232357   3.514901   0.000000
    20  H    4.380722   4.379900   2.881357   1.768133   0.000000
    21  H    5.098586   6.459163   5.087387   2.499566   2.521076
    22  H    5.249574   6.081949   4.313156   3.070365   2.461788
    23  H    3.692356   6.215056   5.425595   2.705001   3.843246
    24  H    5.130667   7.198700   5.939379   3.850014   4.317200
    25  H    3.817863   6.131458   5.374472   4.173305   4.985057
    26  H    4.489670   5.821700   4.482935   4.032645   4.177500
    27  H    1.093378   4.201767   5.101180   3.613233   5.175294
                   21         22         23         24         25
    21  H    0.000000
    22  H    1.758845   0.000000
    23  H    2.469919   3.062250   0.000000
    24  H    2.517383   2.459620   1.764465   0.000000
    25  H    4.311972   3.837441   2.445674   2.518589   0.000000
    26  H    3.844341   2.700540   3.060579   2.493261   1.767944
    27  H    5.678103   6.078827   4.104254   5.705057   4.452725
                   26         27
    26  H    0.000000
    27  H    5.378876   0.000000
 Symmetry turned off by external request.
 Stoichiometry    C9H13N3O2
 Framework group  C1[X(C9H13N3O2)]
 Deg. of freedom    75
 Full point group                 C1      NOp   1
 Rotational constants (GHZ):           1.6496440           0.4211701           0.3780072

 **********************************************************************

            Population analysis using the SCF Density.

 **********************************************************************

 Alpha  occ. eigenvalues --  -20.60048 -20.60033 -15.84642 -15.63440 -15.56145
 Alpha  occ. eigenvalues --  -11.34796 -11.30105 -11.29374 -11.28471 -11.27037
 Alpha  occ. eigenvalues --  -11.23494 -11.23048 -11.22581 -11.21975  -1.57396
 Alpha  occ. eigenvalues --   -1.37132  -1.30478  -1.23129  -1.14708  -1.09828
 Alpha  occ. eigenvalues --   -1.02626  -1.01119  -0.94507  -0.89700  -0.85376
 Alpha  occ. eigenvalues --   -0.82589  -0.78401  -0.77762  -0.75048  -0.72020
 Alpha  occ. eigenvalues --   -0.70626  -0.68697  -0.67031  -0.65183  -0.63493
 Alpha  occ. eigenvalues --   -0.62389  -0.60231  -0.57540  -0.56858  -0.55046
 Alpha  occ. eigenvalues --   -0.54522  -0.50969  -0.50361  -0.48808  -0.48143
 Alpha  occ. eigenvalues --   -0.47792  -0.46222  -0.45930  -0.43608  -0.41578
 Alpha  occ. eigenvalues --   -0.40047  -0.33322
 Alpha virt. eigenvalues --    0.08216   0.10877   0.17405   0.21560   0.23645
 Alpha virt. eigenvalues --    0.24950   0.26415   0.28156   0.29141   0.29435
 Alpha virt. eigenvalues --    0.29489   0.31632   0.32069   0.32827   0.33943
 Alpha virt. eigenvalues --    0.34407   0.35716   0.37387   0.38745   0.40247
 Alpha virt. eigenvalues --    0.41526   0.42492   0.44755   0.45878   0.46868
 Alpha virt. eigenvalues --    0.47953   0.49175   0.53584   0.57674   0.58286
 Alpha virt. eigenvalues --    0.61575   0.69632   0.69976   0.72995   0.74276
 Alpha virt. eigenvalues --    0.75168   0.75840   0.76617   0.78665   0.79212
 Alpha virt. eigenvalues --    0.80946   0.84193   0.85195   0.86036   0.88511
 Alpha virt. eigenvalues --    0.89468   0.90241   0.91829   0.92707   0.93836
 Alpha virt. eigenvalues --    0.95199   0.97883   0.98998   1.01748   1.01926
 Alpha virt. eigenvalues --    1.04226   1.05991   1.06309   1.07913   1.08840
 Alpha virt. eigenvalues --    1.10846   1.11285   1.11621   1.12116   1.13764
 Alpha virt. eigenvalues --    1.13881   1.14652   1.15953   1.16162   1.16704
 Alpha virt. eigenvalues --    1.17893   1.19247   1.19544   1.21935   1.23615
 Alpha virt. eigenvalues --    1.23909   1.24784   1.25534   1.27703   1.29617
 Alpha virt. eigenvalues --    1.31477   1.32858   1.35329   1.35864   1.37724
 Alpha virt. eigenvalues --    1.39668   1.42569   1.43831   1.50555   1.52806
 Alpha virt. eigenvalues --    1.55578   1.56893   1.61024   1.63157   1.65686
 Alpha virt. eigenvalues --    1.68254   1.70529   1.73712   1.74333   1.75847
 Alpha virt. eigenvalues --    1.78224   1.82717   1.87146   1.90774   1.92059
 Alpha virt. eigenvalues --    1.92478   1.96233   1.99586   2.01239   2.02592
 Alpha virt. eigenvalues --    2.04215   2.05289   2.07438   2.10749   2.13213
 Alpha virt. eigenvalues --    2.15036   2.15877   2.18732   2.20593   2.21626
 Alpha virt. eigenvalues --    2.22749   2.25333   2.26783   2.28247   2.29816
 Alpha virt. eigenvalues --    2.31430   2.33092   2.33854   2.37216   2.37403
 Alpha virt. eigenvalues --    2.38652   2.40850   2.42310   2.45740   2.47249
 Alpha virt. eigenvalues --    2.50371   2.52256   2.54352   2.55094   2.62266
 Alpha virt. eigenvalues --    2.62658   2.64453   2.67272   2.70499   2.71094
 Alpha virt. eigenvalues --    2.72474   2.73250   2.75151   2.78174   2.83460
 Alpha virt. eigenvalues --    2.87667   2.89999   2.92375   2.95850   2.97696
 Alpha virt. eigenvalues --    2.99810   3.01848   3.03437   3.05611   3.08712
 Alpha virt. eigenvalues --    3.09307   3.15642   3.19881   3.21232   3.24882
 Alpha virt. eigenvalues --    3.32005   3.36638   3.39146   3.45804   3.63409
 Alpha virt. eigenvalues --    4.10153   4.19191   4.27506   4.36301   4.47574
 Alpha virt. eigenvalues --    4.55994   4.62182   4.64205   4.73832   4.78577
 Alpha virt. eigenvalues --    4.99077   5.01041   5.05068   5.11293
          Condensed to atoms (all electrons):
               1          2          3          4          5          6
     1  O    8.313498   0.297158  -0.076600  -0.089257   0.008652   0.000300
     2  N    0.297158   5.816607   0.290060   0.234100  -0.049446   0.001591
     3  O   -0.076600   0.290060   8.302750  -0.080674   0.002942  -0.000029
     4  C   -0.089257   0.234100  -0.080674   5.244239   0.560636  -0.049965
     5  C    0.008652  -0.049446   0.002942   0.560636   4.663380   0.326972
     6  N    0.000300   0.001591  -0.000029  -0.049965   0.326972   7.190000
     7  C   -0.000006  -0.000108   0.000006   0.004750  -0.031883   0.177510
     8  H    0.000000   0.000002  -0.000000  -0.000274   0.003425  -0.049901
     9  C   -0.000000  -0.000005  -0.000000   0.000910   0.000677  -0.063942
    10  C    0.000000   0.000000   0.000000  -0.000046  -0.000058   0.003832
    11  C   -0.000000  -0.000000  -0.000000  -0.000025   0.000025  -0.000186
    12  C    0.000000   0.000002  -0.000000  -0.000135  -0.000190   0.003766
    13  C    0.000002  -0.000065  -0.000025  -0.011809  -0.000878  -0.048178
    14  H    0.000001  -0.000093  -0.000011   0.002642   0.005434  -0.006553
    15  N   -0.000038   0.002481   0.000095  -0.067914  -0.005673   0.002432
    16  C    0.001937  -0.027561   0.002207   0.321540  -0.038544  -0.003284
    17  H    0.007230  -0.003772   0.000041  -0.034025   0.387434  -0.034119
    18  H    0.000005  -0.000069   0.000001   0.001892  -0.028688   0.337355
    19  H    0.000001  -0.000005   0.000000  -0.001417   0.001221  -0.000237
    20  H    0.000000  -0.000000  -0.000000  -0.000070   0.000122  -0.000118
    21  H   -0.000000   0.000000   0.000000   0.000001   0.000001  -0.000080
    22  H    0.000000   0.000000  -0.000000  -0.000000  -0.000003  -0.000114
    23  H    0.000000  -0.000000  -0.000000   0.000040  -0.000001  -0.000030
    24  H    0.000000   0.000000  -0.000000   0.000000  -0.000000   0.000006
    25  H    0.000000  -0.000000   0.000000   0.000023   0.000000  -0.000088
    26  H    0.000000  -0.000000  -0.000000   0.000007  -0.000003  -0.000058
    27  H    0.000117  -0.000046   0.002747  -0.075923   0.002256   0.000023
               7          8          9         10         11         12
     1  O   -0.000006   0.000000  -0.000000   0.000000  -0.000000   0.000000
     2  N   -0.000108   0.000002  -0.000005   0.000000  -0.000000   0.000002
     3  O    0.000006  -0.000000  -0.000000   0.000000  -0.000000  -0.000000
     4  C    0.004750  -0.000274   0.000910  -0.000046  -0.000025  -0.000135
     5  C   -0.031883   0.003425   0.000677  -0.000058   0.000025  -0.000190
     6  N    0.177510  -0.049901  -0.063942   0.003832  -0.000186   0.003766
     7  C    5.015907   0.417795   0.352497  -0.054710  -0.008946  -0.060530
     8  H    0.417795   0.539008  -0.055033   0.000624  -0.000293  -0.002400
     9  C    0.352497  -0.055033   5.157505   0.324781  -0.050435  -0.005130
    10  C   -0.054710   0.000624   0.324781   5.119361   0.337008  -0.061212
    11  C   -0.008946  -0.000293  -0.050435   0.337008   5.120252   0.335923
    12  C   -0.060530  -0.002400  -0.005130  -0.061212   0.335923   5.118663
    13  C    0.335700  -0.037445  -0.062119   0.000089  -0.051050   0.370820
    14  H   -0.046646  -0.000781   0.004420  -0.000401   0.004177  -0.035952
    15  N   -0.058036   0.003778  -0.013734   0.001598  -0.013222  -0.081863
    16  C   -0.003393   0.000054  -0.001235  -0.000040   0.000009   0.003034
    17  H    0.002087  -0.000067  -0.000073   0.000001   0.000000   0.000000
    18  H   -0.021769  -0.004598   0.001414  -0.000084   0.000004  -0.000113
    19  H   -0.037098   0.004347   0.390720  -0.032374  -0.002222   0.000691
    20  H   -0.042516  -0.002017   0.399428  -0.035293   0.003935  -0.000416
    21  H    0.004599  -0.000078  -0.036296   0.402268  -0.035006   0.004378
    22  H   -0.004860   0.003581  -0.046894   0.397695  -0.045420  -0.001086
    23  H    0.000566   0.000035  -0.001943  -0.039047   0.399300  -0.037972
    24  H   -0.000136  -0.000104   0.004381  -0.038420   0.402331  -0.038707
    25  H    0.005119  -0.000018  -0.000432   0.004205  -0.033509   0.398463
    26  H   -0.003971   0.001669   0.000985  -0.002273  -0.041393   0.396782
    27  H   -0.000430   0.000010  -0.000063   0.000007   0.000012  -0.000044
              13         14         15         16         17         18
     1  O    0.000002   0.000001  -0.000038   0.001937   0.007230   0.000005
     2  N   -0.000065  -0.000093   0.002481  -0.027561  -0.003772  -0.000069
     3  O   -0.000025  -0.000011   0.000095   0.002207   0.000041   0.000001
     4  C   -0.011809   0.002642  -0.067914   0.321540  -0.034025   0.001892
     5  C   -0.000878   0.005434  -0.005673  -0.038544   0.387434  -0.028688
     6  N   -0.048178  -0.006553   0.002432  -0.003284  -0.034119   0.337355
     7  C    0.335700  -0.046646  -0.058036  -0.003393   0.002087  -0.021769
     8  H   -0.037445  -0.000781   0.003778   0.000054  -0.000067  -0.004598
     9  C   -0.062119   0.004420  -0.013734  -0.001235  -0.000073   0.001414
    10  C    0.000089  -0.000401   0.001598  -0.000040   0.000001  -0.000084
    11  C   -0.051050   0.004177  -0.013222   0.000009   0.000000   0.000004
    12  C    0.370820  -0.035952  -0.081863   0.003034   0.000000  -0.000113
    13  C    5.041262   0.404195   0.251342  -0.071950  -0.000071   0.002914
    14  H    0.404195   0.524074  -0.038093  -0.004841   0.000080  -0.000125
    15  N    0.251342  -0.038093   6.939650   0.604499  -0.000040  -0.000140
    16  C   -0.071950  -0.004841   0.604499   4.682665   0.002049  -0.000182
    17  H   -0.000071   0.000080  -0.000040   0.002049   0.409998  -0.003183
    18  H    0.002914  -0.000125  -0.000140  -0.000182  -0.003183   0.312480
    19  H   -0.007340   0.000105   0.007281   0.002960   0.000017  -0.000153
    20  H    0.004404  -0.000066   0.000124  -0.000037  -0.000001   0.000790
    21  H   -0.000454   0.000010  -0.000046   0.000003  -0.000000   0.000001
    22  H    0.000066  -0.000053   0.000020  -0.000001  -0.000000   0.000001
    23  H   -0.007524   0.000004   0.008458   0.000104   0.000000   0.000000
    24  H    0.004712  -0.000057   0.000129   0.000008   0.000000  -0.000000
    25  H   -0.035685  -0.002844   0.000374  -0.000011  -0.000000   0.000002
    26  H   -0.047228  -0.001013   0.004859  -0.000073   0.000000  -0.000000
    27  H    0.005416  -0.000178  -0.037984   0.407472  -0.000092   0.000001
              19         20         21         22         23         24
     1  O    0.000001   0.000000  -0.000000   0.000000   0.000000   0.000000
     2  N   -0.000005  -0.000000   0.000000   0.000000  -0.000000   0.000000
     3  O    0.000000  -0.000000   0.000000  -0.000000  -0.000000  -0.000000
     4  C   -0.001417  -0.000070   0.000001  -0.000000   0.000040   0.000000
     5  C    0.001221   0.000122   0.000001  -0.000003  -0.000001  -0.000000
     6  N   -0.000237  -0.000118  -0.000080  -0.000114  -0.000030   0.000006
     7  C   -0.037098  -0.042516   0.004599  -0.004860   0.000566  -0.000136
     8  H    0.004347  -0.002017  -0.000078   0.003581   0.000035  -0.000104
     9  C    0.390720   0.399428  -0.036296  -0.046894  -0.001943   0.004381
    10  C   -0.032374  -0.035293   0.402268   0.397695  -0.039047  -0.038420
    11  C   -0.002222   0.003935  -0.035006  -0.045420   0.399300   0.402331
    12  C    0.000691  -0.000416   0.004378  -0.001086  -0.037972  -0.038707
    13  C   -0.007340   0.004404  -0.000454   0.000066  -0.007524   0.004712
    14  H    0.000105  -0.000066   0.000010  -0.000053   0.000004  -0.000057
    15  N    0.007281   0.000124  -0.000046   0.000020   0.008458   0.000129
    16  C    0.002960  -0.000037   0.000003  -0.000001   0.000104   0.000008
    17  H    0.000017  -0.000001  -0.000000  -0.000000   0.000000   0.000000
    18  H   -0.000153   0.000790   0.000001   0.000001   0.000000  -0.000000
    19  H    0.506052  -0.024692  -0.002792   0.003976   0.001518  -0.000068
    20  H   -0.024692   0.541025  -0.002729  -0.002978  -0.000046  -0.000083
    21  H   -0.002792  -0.002729   0.525116  -0.027505  -0.002903  -0.002253
    22  H    0.003976  -0.002978  -0.027505   0.571842   0.004146  -0.003653
    23  H    0.001518  -0.000046  -0.002903   0.004146   0.499972  -0.025567
    24  H   -0.000068  -0.000083  -0.002253  -0.003653  -0.025567   0.538835
    25  H   -0.000028   0.000013  -0.000087  -0.000081  -0.002302  -0.002316
    26  H    0.000020  -0.000031  -0.000080   0.002386   0.004069  -0.003018
    27  H    0.000101   0.000000  -0.000000   0.000000  -0.000035  -0.000000
              25         26         27
     1  O    0.000000   0.000000   0.000117
     2  N   -0.000000  -0.000000  -0.000046
     3  O    0.000000  -0.000000   0.002747
     4  C    0.000023   0.000007  -0.075923
     5  C    0.000000  -0.000003   0.002256
     6  N   -0.000088  -0.000058   0.000023
     7  C    0.005119  -0.003971  -0.000430
     8  H   -0.000018   0.001669   0.000010
     9  C   -0.000432   0.000985  -0.000063
    10  C    0.004205  -0.002273   0.000007
    11  C   -0.033509  -0.041393   0.000012
    12  C    0.398463   0.396782  -0.000044
    13  C   -0.035685  -0.047228   0.005416
    14  H   -0.002844  -0.001013  -0.000178
    15  N    0.000374   0.004859  -0.037984
    16  C   -0.000011  -0.000073   0.407472
    17  H   -0.000000   0.000000  -0.000092
    18  H    0.000002  -0.000000   0.000001
    19  H   -0.000028   0.000020   0.000101
    20  H    0.000013  -0.000031   0.000000
    21  H   -0.000087  -0.000080  -0.000000
    22  H   -0.000081   0.002386   0.000000
    23  H   -0.002302   0.004069  -0.000035
    24  H   -0.002316  -0.003018  -0.000000
    25  H    0.506816  -0.024139  -0.000013
    26  H   -0.024139   0.562060   0.000001
    27  H   -0.000013   0.000001   0.464747
 Mulliken charges:
               1
     1  O   -0.463000
     2  N    0.439172
     3  O   -0.443510
     4  C    0.040759
     5  C    0.192192
     6  N   -0.786906
     7  C    0.058501
     8  H    0.178680
     9  C   -0.300383
    10  C   -0.327510
    11  C   -0.321270
    12  C   -0.306773
    13  C   -0.039100
    14  H    0.192565
    15  N   -0.510335
    16  C    0.122613
    17  H    0.266505
    18  H    0.402246
    19  H    0.189416
    20  H    0.161253
    21  H    0.173931
    22  H    0.148936
    23  H    0.199158
    24  H    0.163980
    25  H    0.186539
    26  H    0.150442
    27  H    0.231899
 Sum of Mulliken charges =  -0.00000
 Mulliken charges with hydrogens summed into heavy atoms:
               1
     1  O   -0.463000
     2  N    0.439172
     3  O   -0.443510
     4  C    0.040759
     5  C    0.458697
     6  N   -0.384660
     7  C    0.237181
     9  C    0.050286
    10  C   -0.004643
    11  C    0.041868
    12  C    0.030208
    13  C    0.153465
    15  N   -0.510335
    16  C    0.354513
 Electronic spatial extent (au):  <R**2>=           2984.3993
 Charge=             -0.0000 electrons
 Dipole moment (field-independent basis, Debye):
    X=              4.8614    Y=              4.7813    Z=              1.2241  Tot=              6.9277
 Quadrupole moment (field-independent basis, Debye-Ang):
   XX=           -103.1345   YY=            -77.4087   ZZ=            -84.3089
   XY=             -2.5542   XZ=             -1.6784   YZ=              4.5168
 Traceless Quadrupole moment (field-independent basis, Debye-Ang):
   XX=            -14.8504   YY=             10.8753   ZZ=              3.9751
   XY=             -2.5542   XZ=             -1.6784   YZ=              4.5168
 Octapole moment (field-independent basis, Debye-Ang**2):
  XXX=             74.4663  YYY=             35.7557  ZZZ=              0.3045  XYY=            -11.5833
  XXY=             15.8015  XXZ=             12.2784  XZZ=             -1.6590  YZZ=             -2.0778
  YYZ=              3.1924  XYZ=            -10.0005
 Hexadecapole moment (field-independent basis, Debye-Ang**3):
 XXXX=          -3268.5009 YYYY=           -564.3738 ZZZZ=           -349.9582 XXXY=            -57.0293
 XXXZ=            -70.0017 YYYX=             -6.5844 YYYZ=             60.3809 ZZZX=            -29.1832
 ZZZY=             43.9668 XXYY=           -594.6255 XXZZ=           -553.6902 YYZZ=           -163.3931
 XXYZ=             46.9910 YYXZ=              0.8761 ZZXY=              5.2500
 N-N= 9.311757207355D+02 E-N=-3.409029051549D+03  KE= 6.596098645546D+02
 Unable to Open any file for archive entry.
 1\1\GINC-LOTUS\FOpt\RMP2-FC\6-31G(d)\C9H13N3O2\ALEXEY\30-Jun-2023\0\\#
 MP2/6-31G* SCF=Tight Opt=(ModRedun, MaxCycle=20 ) NoSymm\\MolName:\\0,
 1\O,-3.6863194833,0.4932854541,-1.0043670334\N,-3.0997854054,-0.225832
 9012,-0.1704372742\O,-3.6232010377,-1.1905779919,0.4231341769\C,-1.678
 9608454,-0.0254505698,0.0636125342\C,-1.3002099789,1.2837659576,0.1839
 923837\N,-0.0560304646,1.7829164117,0.2969927745\C,1.2020323997,1.0504
 719306,0.3105930634\H,1.8632225736,1.6307771672,0.9713943558\C,1.88251
 78947,0.9507175128,-1.0539711007\C,3.2848491218,0.359924581,-0.8679781
 102\C,3.2515811425,-0.9807655906,-0.1296580531\C,2.4815202679,-0.88463
 52929,1.1888178143\C,1.0649939258,-0.3574112878,0.9316326049\H,0.50271
 06644,-0.2630047494,1.873934243\N,0.4067782768,-1.3323720738,0.0669586
 825\C,-0.8466895734,-1.1750363634,-0.2118087731\H,-2.0907133772,2.0308
 52263,0.1984686492\H,0.0052421423,2.7820176355,0.4496805968\H,1.275831
 3453,0.3170372367,-1.7099506306\H,1.9390724238,1.9444596384,-1.5152655
 256\H,3.7707445269,0.2435614973,-1.8435129078\H,3.8951263548,1.0756558
 837,-0.2989467768\H,2.7623977698,-1.7322358458,-0.7572530631\H,4.27462
 95229,-1.3282743865,0.0571837513\H,2.4080368883,-1.8709341285,1.658634
 4279\H,3.0022593603,-0.2226018641,1.8942774395\H,-1.3336664356,-1.9913
 401239,-0.7521582493\\Version=ES64L-G16RevC.02\HF=-661.2879406\MP2=-66
 3.3268297\RMSD=7.433e-09\RMSF=1.873e-03\Dipole=1.7924379,1.6933783,0.4
 378563\PG=C01 [X(C9H13N3O2)]\\@
 The archive entry for this job was punched.


 Once you get people laughing, they're
 listening and you can tell them almost anything.
                                 -- Herb Gardner
 Job cpu time:       0 days  1 hours 15 minutes 26.3 seconds.
 Elapsed time:       0 days  0 hours 22 minutes 48.9 seconds.
 File lengths (MBytes):  RWF=     36 Int=      0 D2E=      0 Chk=      7 Scr=      1
 Normal termination of Gaussian 16 at Fri Jun 30 13:45:23 2023.
