 Entering Gaussian System, Link 0=g16
 Initial command:
 /home/alexey/programs//g16/l1.exe "/home/alexey/tmp/Gau-1147890.inp" -scrdir="/home/alexey/tmp/"
 Entering Link 1 = /home/alexey/programs//g16/l1.exe PID=   1147892.
  
 Copyright (c) 1988-2021, Gaussian, Inc.  All Rights Reserved.
  
 This is part of the Gaussian(R) 16 program.  It is based on
 the Gaussian(R) 09 system (copyright 2009, Gaussian, Inc.),
 the Gaussian(R) 03 system (copyright 2003, Gaussian, Inc.),
 the Gaussian(R) 98 system (copyright 1998, Gaussian, Inc.),
 the Gaussian(R) 94 system (copyright 1995, Gaussian, Inc.),
 the Gaussian 92(TM) system (copyright 1992, Gaussian, Inc.),
 the Gaussian 90(TM) system (copyright 1990, Gaussian, Inc.),
 the Gaussian 88(TM) system (copyright 1988, Gaussian, Inc.),
 the Gaussian 86(TM) system (copyright 1986, Carnegie Mellon
 University), and the Gaussian 82(TM) system (copyright 1983,
 Carnegie Mellon University). Gaussian is a federally registered
 trademark of Gaussian, Inc.
  
 This software contains proprietary and confidential information,
 including trade secrets, belonging to Gaussian, Inc.
  
 This software is provided under written license and may be
 used, copied, transmitted, or stored only in accord with that
 written license.
  
 The following legend is applicable only to US Government
 contracts under FAR:
  
                    RESTRICTED RIGHTS LEGEND
  
 Use, reproduction and disclosure by the US Government is
 subject to restrictions as set forth in subparagraphs (a)
 and (c) of the Commercial Computer Software - Restricted
 Rights clause in FAR 52.227-19.
  
 Gaussian, Inc.
 340 Quinnipiac St., Bldg. 40, Wallingford CT 06492
  
  
 ---------------------------------------------------------------
 Warning -- This program may not be used in any manner that
 competes with the business of Gaussian, Inc. or will provide
 assistance to any competitor of Gaussian, Inc.  The licensee
 of this program is prohibited from giving any competitor of
 Gaussian, Inc. access to this program.  By using this program,
 the user acknowledges that Gaussian, Inc. is engaged in the
 business of creating and licensing software in the field of
 computational chemistry and represents and warrants to the
 licensee that it is not a competitor of Gaussian, Inc. and that
 it will not use this program in any manner prohibited above.
 ---------------------------------------------------------------
  

 Cite this work as:
 Gaussian 16, Revision C.02,
 M. J. Frisch, G. W. Trucks, H. B. Schlegel, G. E. Scuseria, 
 M. A. Robb, J. R. Cheeseman, G. Scalmani, V. Barone, 
 G. A. Petersson, H. Nakatsuji, X. Li, M. Caricato, A. V. Marenich, 
 J. Bloino, B. G. Janesko, R. Gomperts, B. Mennucci, H. P. Hratchian, 
 J. V. Ortiz, A. F. Izmaylov, J. L. Sonnenberg, D. Williams-Young, 
 F. Ding, F. Lipparini, F. Egidi, J. Goings, B. Peng, A. Petrone, 
 T. Henderson, D. Ranasinghe, V. G. Zakrzewski, J. Gao, N. Rega, 
 G. Zheng, W. Liang, M. Hada, M. Ehara, K. Toyota, R. Fukuda, 
 J. Hasegawa, M. Ishida, T. Nakajima, Y. Honda, O. Kitao, H. Nakai, 
 T. Vreven, K. Throssell, J. A. Montgomery, Jr., J. E. Peralta, 
 F. Ogliaro, M. J. Bearpark, J. J. Heyd, E. N. Brothers, K. N. Kudin, 
 V. N. Staroverov, T. A. Keith, R. Kobayashi, J. Normand, 
 K. Raghavachari, A. P. Rendell, J. C. Burant, S. S. Iyengar, 
 J. Tomasi, M. Cossi, J. M. Millam, M. Klene, C. Adamo, R. Cammi, 
 J. W. Ochterski, R. L. Martin, K. Morokuma, O. Farkas, 
 J. B. Foresman, and D. J. Fox, Gaussian, Inc., Wallingford CT, 2019.
 
 ******************************************
 Gaussian 16:  ES64L-G16RevC.02  7-Dec-2021
                30-Jun-2023 
 ******************************************
 %mem=8GB
 %NPROCS=4
 Will use up to    4 processors via shared memory.
 %NoSave
 ---------------------------------------------------------
 #MP2/6-31G* SCF=Tight Opt=(ModRedun, MaxCycle=20 ) NoSymm
 ---------------------------------------------------------
 1/6=20,18=120,19=15,38=1/1,3;
 2/9=110,12=2,15=1,17=6,18=5,40=1/2;
 3/5=1,6=6,7=1,11=9,25=1,30=1,71=1/1,2,3;
 4//1;
 5/5=2,32=2,38=5/2;
 8/6=4,10=2/1;
 9/15=2,16=-3/6;
 10/5=1,31=1/2;
 6/7=2,8=2,9=2,10=2/1;
 7/12=2,30=1/1,2,3,16;
 1/6=20,18=20,19=15/3(2);
 2/9=110,15=1/2;
 99//99;
 2/9=110,15=1/2;
 3/5=1,6=6,7=1,11=9,25=1,30=1,71=1/1,2,3;
 4/5=5,16=3,69=1/1;
 5/5=2,32=2,38=5/2;
 8/6=4,10=2/1;
 9/15=2,16=-3/6;
 10/5=1,31=1/2;
 7/12=2,30=1/1,2,3,16;
 1/6=20,18=20,19=15/3(-8);
 2/9=110,15=1/2;
 6/7=2,8=2,9=2,10=2/1;
 99/9=10/99;
 --------
 MolName:
 --------
 Symbolic Z-matrix:
 Charge =  0 Multiplicity = 1
 8                    0    -3.80479   0.25999  -1.03537 
 7                    0    -3.20039  -0.22964  -0.08379 
 8                    0    -3.66082  -1.01803   0.73736 
 6                    0    -1.73457   0.0065   -0.03132 
 6                    0    -1.37324   1.33578   0.17172 
 7                    0    -0.09006   1.79156   0.31986 
 6                    0     1.1893    1.01653   0.32458 
 1                    0     1.86533   1.56612   1.02968 
 6                    0     1.92933   0.97233  -1.03568 
 6                    0     3.34626   0.40319  -0.83043 
 6                    0     3.29957  -0.9667   -0.13523 
 6                    0     2.47491  -0.90935   1.16858 
 6                    0     1.03165  -0.39825   0.90705 
 1                    0     0.49817  -0.36738   1.88598 
 7                    0     0.36226  -1.34488   0.00855 
 6                    0    -0.88543  -1.17641  -0.28201 
 1                    0    -2.17649   2.08569   0.26749 
 1                    0     0.14848   2.76553   0.118 
 1                    0     1.36731   0.34037  -1.75594 
 1                    0     2.00585   1.99439  -1.46367 
 1                    0     3.86326   0.31038  -1.81057 
 1                    0     3.93382   1.10591  -0.19829 
 1                    0     2.84155  -1.70906  -0.82722 
 1                    0     4.33252  -1.3118    0.08871 
 1                    0     2.42774  -1.92594   1.61697 
 1                    0     2.97946  -0.24106   1.89741 
 1                    0    -1.41398  -1.99179  -0.79941 
 
 The following ModRedundant input section has been read:
 D       1       2       4      16 F                                           
 D       7      13      15      16 F                                           
 D       7       9      10      11 F                                           
 D       9      10      11      12 F                                           
 D       6       7      13      15 F                                           
 

 GradGradGradGradGradGradGradGradGradGradGradGradGradGradGradGradGradGrad
 Berny optimization.
 Initialization pass.
                           ----------------------------
                           !    Initial Parameters    !
                           ! (Angstroms and Degrees)  !
 --------------------------                            --------------------------
 ! Name  Definition              Value          Derivative Info.                !
 --------------------------------------------------------------------------------
 ! R1    R(1,2)                  1.229          estimate D2E/DX2                !
 ! R2    R(2,3)                  1.2279         estimate D2E/DX2                !
 ! R3    R(2,4)                  1.4856         estimate D2E/DX2                !
 ! R4    R(4,5)                  1.3924         estimate D2E/DX2                !
 ! R5    R(4,16)                 1.4776         estimate D2E/DX2                !
 ! R6    R(5,6)                  1.3698         estimate D2E/DX2                !
 ! R7    R(5,17)                 1.1031         estimate D2E/DX2                !
 ! R8    R(6,7)                  1.4958         estimate D2E/DX2                !
 ! R9    R(6,18)                 1.0229         estimate D2E/DX2                !
 ! R10   R(7,8)                  1.1208         estimate D2E/DX2                !
 ! R11   R(7,9)                  1.5492         estimate D2E/DX2                !
 ! R12   R(7,13)                 1.5381         estimate D2E/DX2                !
 ! R13   R(9,10)                 1.5407         estimate D2E/DX2                !
 ! R14   R(9,19)                 1.1109         estimate D2E/DX2                !
 ! R15   R(9,20)                 1.1107         estimate D2E/DX2                !
 ! R16   R(10,11)                1.5369         estimate D2E/DX2                !
 ! R17   R(10,21)                1.112          estimate D2E/DX2                !
 ! R18   R(10,22)                1.1129         estimate D2E/DX2                !
 ! R19   R(11,12)                1.5438         estimate D2E/DX2                !
 ! R20   R(11,23)                1.1134         estimate D2E/DX2                !
 ! R21   R(11,24)                1.1119         estimate D2E/DX2                !
 ! R22   R(12,13)                1.5533         estimate D2E/DX2                !
 ! R23   R(12,25)                1.1121         estimate D2E/DX2                !
 ! R24   R(12,26)                1.1101         estimate D2E/DX2                !
 ! R25   R(13,14)                1.1153         estimate D2E/DX2                !
 ! R26   R(13,15)                1.4668         estimate D2E/DX2                !
 ! R27   R(15,16)                1.2921         estimate D2E/DX2                !
 ! R28   R(16,27)                1.1009         estimate D2E/DX2                !
 ! A1    A(1,2,3)              126.096          estimate D2E/DX2                !
 ! A2    A(1,2,4)              116.694          estimate D2E/DX2                !
 ! A3    A(3,2,4)              116.6404         estimate D2E/DX2                !
 ! A4    A(2,4,5)              114.3891         estimate D2E/DX2                !
 ! A5    A(2,4,16)             115.7077         estimate D2E/DX2                !
 ! A6    A(5,4,16)             129.7846         estimate D2E/DX2                !
 ! A7    A(4,5,6)              125.207          estimate D2E/DX2                !
 ! A8    A(4,5,17)             118.2108         estimate D2E/DX2                !
 ! A9    A(6,5,17)             116.5238         estimate D2E/DX2                !
 ! A10   A(5,6,7)              128.9889         estimate D2E/DX2                !
 ! A11   A(5,6,18)             120.928          estimate D2E/DX2                !
 ! A12   A(7,6,18)             107.129          estimate D2E/DX2                !
 ! A13   A(6,7,8)              105.2955         estimate D2E/DX2                !
 ! A14   A(6,7,9)              114.8714         estimate D2E/DX2                !
 ! A15   A(6,7,13)             112.9622         estimate D2E/DX2                !
 ! A16   A(8,7,9)              106.1556         estimate D2E/DX2                !
 ! A17   A(8,7,13)             105.9395         estimate D2E/DX2                !
 ! A18   A(9,7,13)             110.808          estimate D2E/DX2                !
 ! A19   A(7,9,10)             109.4442         estimate D2E/DX2                !
 ! A20   A(7,9,19)             110.1126         estimate D2E/DX2                !
 ! A21   A(7,9,20)             110.1821         estimate D2E/DX2                !
 ! A22   A(10,9,19)            109.9692         estimate D2E/DX2                !
 ! A23   A(10,9,20)            109.1414         estimate D2E/DX2                !
 ! A24   A(19,9,20)            107.9692         estimate D2E/DX2                !
 ! A25   A(9,10,11)            111.1974         estimate D2E/DX2                !
 ! A26   A(9,10,21)            109.9369         estimate D2E/DX2                !
 ! A27   A(9,10,22)            109.1442         estimate D2E/DX2                !
 ! A28   A(11,10,21)           109.7811         estimate D2E/DX2                !
 ! A29   A(11,10,22)           108.7783         estimate D2E/DX2                !
 ! A30   A(21,10,22)           107.9316         estimate D2E/DX2                !
 ! A31   A(10,11,12)           111.4161         estimate D2E/DX2                !
 ! A32   A(10,11,23)           109.0049         estimate D2E/DX2                !
 ! A33   A(10,11,24)           109.8485         estimate D2E/DX2                !
 ! A34   A(12,11,23)           109.2635         estimate D2E/DX2                !
 ! A35   A(12,11,24)           109.7367         estimate D2E/DX2                !
 ! A36   A(23,11,24)           107.4816         estimate D2E/DX2                !
 ! A37   A(11,12,13)           111.4921         estimate D2E/DX2                !
 ! A38   A(11,12,25)           109.2215         estimate D2E/DX2                !
 ! A39   A(11,12,26)           109.515          estimate D2E/DX2                !
 ! A40   A(13,12,25)           109.2245         estimate D2E/DX2                !
 ! A41   A(13,12,26)           109.5584         estimate D2E/DX2                !
 ! A42   A(25,12,26)           107.7503         estimate D2E/DX2                !
 ! A43   A(7,13,12)            105.7353         estimate D2E/DX2                !
 ! A44   A(7,13,14)            110.8526         estimate D2E/DX2                !
 ! A45   A(7,13,15)            114.1064         estimate D2E/DX2                !
 ! A46   A(12,13,14)           107.805          estimate D2E/DX2                !
 ! A47   A(12,13,15)           108.3501         estimate D2E/DX2                !
 ! A48   A(14,13,15)           109.7086         estimate D2E/DX2                !
 ! A49   A(13,15,16)           119.622          estimate D2E/DX2                !
 ! A50   A(4,16,15)            128.4016         estimate D2E/DX2                !
 ! A51   A(4,16,27)            113.3777         estimate D2E/DX2                !
 ! A52   A(15,16,27)           118.2119         estimate D2E/DX2                !
 ! D1    D(1,2,4,5)             66.4347         estimate D2E/DX2                !
 ! D2    D(1,2,4,16)          -110.0004         Frozen                          !
 ! D3    D(3,2,4,5)           -121.6835         estimate D2E/DX2                !
 ! D4    D(3,2,4,16)            61.8814         estimate D2E/DX2                !
 ! D5    D(2,4,5,6)            176.7096         estimate D2E/DX2                !
 ! D6    D(2,4,5,17)            -0.4075         estimate D2E/DX2                !
 ! D7    D(16,4,5,6)            -7.4713         estimate D2E/DX2                !
 ! D8    D(16,4,5,17)          175.4116         estimate D2E/DX2                !
 ! D9    D(2,4,16,15)         -161.7284         estimate D2E/DX2                !
 ! D10   D(2,4,16,27)           19.3865         estimate D2E/DX2                !
 ! D11   D(5,4,16,15)           22.4978         estimate D2E/DX2                !
 ! D12   D(5,4,16,27)         -156.3874         estimate D2E/DX2                !
 ! D13   D(4,5,6,7)             -1.0808         estimate D2E/DX2                !
 ! D14   D(4,5,6,18)           156.8488         estimate D2E/DX2                !
 ! D15   D(17,5,6,7)           176.0799         estimate D2E/DX2                !
 ! D16   D(17,5,6,18)          -25.9905         estimate D2E/DX2                !
 ! D17   D(5,6,7,8)           -147.208          estimate D2E/DX2                !
 ! D18   D(5,6,7,9)             96.3855         estimate D2E/DX2                !
 ! D19   D(5,6,7,13)           -32.0522         estimate D2E/DX2                !
 ! D20   D(18,6,7,8)            52.5033         estimate D2E/DX2                !
 ! D21   D(18,6,7,9)           -63.9032         estimate D2E/DX2                !
 ! D22   D(18,6,7,13)          167.6591         estimate D2E/DX2                !
 ! D23   D(6,7,9,10)           168.5226         estimate D2E/DX2                !
 ! D24   D(6,7,9,19)           -70.4822         estimate D2E/DX2                !
 ! D25   D(6,7,9,20)            48.5065         estimate D2E/DX2                !
 ! D26   D(8,7,9,10)            52.6092         estimate D2E/DX2                !
 ! D27   D(8,7,9,19)           173.6044         estimate D2E/DX2                !
 ! D28   D(8,7,9,20)           -67.4069         estimate D2E/DX2                !
 ! D29   D(13,7,9,10)          -61.97           estimate D2E/DX2                !
 ! D30   D(13,7,9,19)           59.0253         estimate D2E/DX2                !
 ! D31   D(13,7,9,20)          178.014          estimate D2E/DX2                !
 ! D32   D(6,7,13,12)         -166.0041         estimate D2E/DX2                !
 ! D33   D(6,7,13,14)          -49.4351         estimate D2E/DX2                !
 ! D34   D(6,7,13,15)           75.0226         Frozen                          !
 ! D35   D(8,7,13,12)          -51.2349         estimate D2E/DX2                !
 ! D36   D(8,7,13,14)           65.334          estimate D2E/DX2                !
 ! D37   D(8,7,13,15)         -170.2083         estimate D2E/DX2                !
 ! D38   D(9,7,13,12)           63.4797         estimate D2E/DX2                !
 ! D39   D(9,7,13,14)         -179.9513         estimate D2E/DX2                !
 ! D40   D(9,7,13,15)          -55.4936         estimate D2E/DX2                !
 ! D41   D(7,9,10,11)           54.8121         Frozen                          !
 ! D42   D(7,9,10,21)          176.6016         estimate D2E/DX2                !
 ! D43   D(7,9,10,22)          -65.1952         estimate D2E/DX2                !
 ! D44   D(19,9,10,11)         -66.2701         estimate D2E/DX2                !
 ! D45   D(19,9,10,21)          55.5194         estimate D2E/DX2                !
 ! D46   D(19,9,10,22)         173.7226         estimate D2E/DX2                !
 ! D47   D(20,9,10,11)         175.4636         estimate D2E/DX2                !
 ! D48   D(20,9,10,21)         -62.7469         estimate D2E/DX2                !
 ! D49   D(20,9,10,22)          55.4563         estimate D2E/DX2                !
 ! D50   D(9,10,11,12)         -52.8216         Frozen                          !
 ! D51   D(9,10,11,23)          67.8357         estimate D2E/DX2                !
 ! D52   D(9,10,11,24)        -174.6407         estimate D2E/DX2                !
 ! D53   D(21,10,11,12)       -174.7018         estimate D2E/DX2                !
 ! D54   D(21,10,11,23)        -54.0444         estimate D2E/DX2                !
 ! D55   D(21,10,11,24)         63.4792         estimate D2E/DX2                !
 ! D56   D(22,10,11,12)         67.4025         estimate D2E/DX2                !
 ! D57   D(22,10,11,23)       -171.9402         estimate D2E/DX2                !
 ! D58   D(22,10,11,24)        -54.4166         estimate D2E/DX2                !
 ! D59   D(10,11,12,13)         56.7453         estimate D2E/DX2                !
 ! D60   D(10,11,12,25)        177.5459         estimate D2E/DX2                !
 ! D61   D(10,11,12,26)        -64.6717         estimate D2E/DX2                !
 ! D62   D(23,11,12,13)        -63.7602         estimate D2E/DX2                !
 ! D63   D(23,11,12,25)         57.0404         estimate D2E/DX2                !
 ! D64   D(23,11,12,26)        174.8227         estimate D2E/DX2                !
 ! D65   D(24,11,12,13)        178.6291         estimate D2E/DX2                !
 ! D66   D(24,11,12,25)        -60.5703         estimate D2E/DX2                !
 ! D67   D(24,11,12,26)         57.2121         estimate D2E/DX2                !
 ! D68   D(11,12,13,7)         -60.5915         estimate D2E/DX2                !
 ! D69   D(11,12,13,14)       -179.2062         estimate D2E/DX2                !
 ! D70   D(11,12,13,15)         62.1277         estimate D2E/DX2                !
 ! D71   D(25,12,13,7)         178.6097         estimate D2E/DX2                !
 ! D72   D(25,12,13,14)         59.9949         estimate D2E/DX2                !
 ! D73   D(25,12,13,15)        -58.6711         estimate D2E/DX2                !
 ! D74   D(26,12,13,7)          60.8003         estimate D2E/DX2                !
 ! D75   D(26,12,13,14)        -57.8144         estimate D2E/DX2                !
 ! D76   D(26,12,13,15)       -176.4805         estimate D2E/DX2                !
 ! D77   D(7,13,15,16)         -67.1605         Frozen                          !
 ! D78   D(12,13,15,16)        175.3596         estimate D2E/DX2                !
 ! D79   D(14,13,15,16)         57.9063         estimate D2E/DX2                !
 ! D80   D(13,15,16,4)          12.3973         estimate D2E/DX2                !
 ! D81   D(13,15,16,27)       -168.7639         estimate D2E/DX2                !
 --------------------------------------------------------------------------------
 Trust Radius=3.00D-01 FncErr=1.00D-07 GrdErr=1.00D-07 EigMax=2.50D+02 EigMin=1.00D-04
 Number of steps in this run=     20 maximum allowed number of steps=    162.
 GradGradGradGradGradGradGradGradGradGradGradGradGradGradGradGradGradGrad

                          Input orientation:                          
 ---------------------------------------------------------------------
 Center     Atomic      Atomic             Coordinates (Angstroms)
 Number     Number       Type             X           Y           Z
 ---------------------------------------------------------------------
      1          8           0       -3.804790    0.259990   -1.035370
      2          7           0       -3.200390   -0.229640   -0.083790
      3          8           0       -3.660820   -1.018030    0.737360
      4          6           0       -1.734570    0.006500   -0.031320
      5          6           0       -1.373240    1.335780    0.171720
      6          7           0       -0.090060    1.791560    0.319860
      7          6           0        1.189300    1.016530    0.324580
      8          1           0        1.865330    1.566120    1.029680
      9          6           0        1.929330    0.972330   -1.035680
     10          6           0        3.346260    0.403190   -0.830430
     11          6           0        3.299570   -0.966700   -0.135230
     12          6           0        2.474910   -0.909350    1.168580
     13          6           0        1.031650   -0.398250    0.907050
     14          1           0        0.498170   -0.367380    1.885980
     15          7           0        0.362260   -1.344880    0.008550
     16          6           0       -0.885430   -1.176410   -0.282010
     17          1           0       -2.176490    2.085690    0.267490
     18          1           0        0.148480    2.765530    0.118000
     19          1           0        1.367310    0.340370   -1.755940
     20          1           0        2.005850    1.994390   -1.463670
     21          1           0        3.863260    0.310380   -1.810570
     22          1           0        3.933820    1.105910   -0.198290
     23          1           0        2.841550   -1.709060   -0.827220
     24          1           0        4.332520   -1.311800    0.088710
     25          1           0        2.427740   -1.925940    1.616970
     26          1           0        2.979460   -0.241060    1.897410
     27          1           0       -1.413980   -1.991790   -0.799410
 ---------------------------------------------------------------------
                    Distance matrix (angstroms):
                    1          2          3          4          5
     1  O    0.000000
     2  N    1.229041   0.000000
     3  O    2.190122   1.227942   0.000000
     4  C    2.314775   1.485646   2.313216   0.000000
     5  C    2.920073   2.419567   3.330674   1.392397   0.000000
     6  N    4.240469   3.731265   4.562722   2.452382   1.369756
     7  C    5.230942   4.581385   5.275745   3.113815   2.586870
     8  H    6.174194   5.488724   6.107505   4.064162   3.358197
     9  C    5.778197   5.353957   6.193140   3.919915   3.535093
    10  C    7.155419   6.619409   7.319631   5.158563   4.914032
    11  C    7.265463   6.541818   7.015061   5.128399   5.218313
    12  C    6.757173   5.851450   6.151824   4.471942   4.565369
    13  C    5.253325   4.349754   4.736264   2.948955   3.054679
    14  H    5.238639   4.192650   4.363470   2.966640   3.056406
    15  N    4.585813   3.734269   4.101605   2.494898   3.197581
    16  C    3.339679   2.508925   2.960910   1.477552   2.599024
    17  H    2.771640   2.555880   3.472332   2.146535   1.103063
    18  H    4.820408   4.497410   5.404600   3.343714   2.088708
    19  H    5.222672   4.897436   5.774417   3.564750   3.495330
    20  H    6.079072   5.827119   6.784568   4.471473   3.811367
    21  H    7.707299   7.291676   8.054092   5.881647   5.692262
    22  H    7.829583   7.259047   7.941355   5.776437   5.324907
    23  H    6.935007   6.264696   6.723559   4.951513   5.294656
    24  H    8.363605   7.612198   8.024994   6.209823   6.290649
    25  H    7.117417   6.119303   6.218406   4.876065   5.212966
    26  H    7.407989   6.489671   6.785478   5.099349   4.940691
    27  H    3.292744   2.609319   2.891048   2.164695   3.466623
                    6          7          8          9         10
     6  N    0.000000
     7  C    1.495813   0.000000
     8  H    2.092419   1.120817   0.000000
     9  C    2.566430   1.549163   2.149975   0.000000
    10  C    3.880597   2.522441   2.646804   1.540694   0.000000
    11  C    4.393711   2.932212   3.135161   2.539332   1.536907
    12  C    3.820250   2.464578   2.553200   2.949091   2.545202
    13  C    2.529485   1.538092   2.137477   2.541362   3.003092
    14  H    2.731258   2.197917   2.518094   3.518400   4.010521
    15  N    3.184142   2.521929   3.431595   2.985898   3.558636
    16  C    3.131087   3.079195   4.099839   3.620494   4.550066
    17  H    2.107711   3.531983   4.145744   4.449222   5.876819
    18  H    1.022872   2.045723   2.284145   2.778124   4.087293
    19  H    2.922127   2.194868   3.083856   1.110862   2.185580
    20  H    2.759521   2.195633   2.533763   1.110692   2.174766
    21  H    4.728781   3.493934   3.692645   2.186028   1.112015
    22  H    4.114633   2.795312   2.449154   2.176476   1.112943
    23  H    4.707916   3.389014   3.889458   2.839974   2.171714
    24  H    5.407725   3.918748   3.905749   3.500975   2.181449
    25  H    4.673502   3.444145   3.585484   3.960421   3.501184
    26  H    4.005267   2.694439   2.293500   3.343367   2.826785
    27  H    4.161642   4.134055   5.172830   4.474321   5.328863
                   11         12         13         14         15
    11  C    0.000000
    12  C    1.543785   0.000000
    13  C    2.559872   1.553261   0.000000
    14  H    3.506040   2.171611   1.115284   0.000000
    15  N    2.965043   2.449213   1.466797   2.121019   0.000000
    16  C    4.192821   3.669798   2.386335   2.696119   1.292106
    17  H    6.282237   5.605154   4.107451   3.973773   4.275642
    18  H    4.891118   4.474454   3.378179   3.614300   4.117420
    19  H    2.840557   3.367699   2.783836   3.810498   2.638867
    20  H    3.493783   3.947210   3.506295   4.367060   4.002442
    21  H    2.180698   3.505794   3.988186   5.044568   4.278561
    22  H    2.168401   2.838666   3.450632   4.280007   4.336496
    23  H    1.113432   2.181096   2.828719   3.827922   2.641594
    24  H    1.111858   2.186047   3.521363   4.338704   3.971207
    25  H    2.179549   1.112085   2.187896   2.494938   2.681577
    26  H    2.181891   1.110124   2.190773   2.484530   3.411150
    27  H    4.869240   4.490894   3.381195   3.675098   2.055802
                   16         17         18         19         20
    16  C    0.000000
    17  H    3.551068   0.000000
    18  H    4.094859   2.426935   0.000000
    19  H    3.089972   4.438348   3.298272   0.000000
    20  H    4.450819   4.527385   2.558547   1.796924   0.000000
    21  H    5.205487   6.629377   4.852498   2.496728   2.531047
    22  H    5.333026   6.205869   4.145260   3.098273   2.471366
    23  H    3.804123   6.385863   5.307356   2.689994   3.849546
    24  H    5.232854   7.344529   5.842231   3.863272   4.330608
    25  H    3.891660   6.254055   5.426954   4.199666   5.003731
    26  H    4.534548   5.886784   4.496702   4.035351   4.152350
    27  H    1.100869   4.283169   5.090679   3.753597   5.293969
                   21         22         23         24         25
    21  H    0.000000
    22  H    1.799248   0.000000
    23  H    2.467591   3.084260   0.000000
    24  H    2.541444   2.467114   1.794362   0.000000
    25  H    4.337035   3.841297   2.488441   2.518121   0.000000
    26  H    3.851533   2.667787   3.098008   2.499730   1.794955
    27  H    5.845656   6.209352   4.265002   5.854349   4.538947
                   26         27
    26  H    0.000000
    27  H    5.444282   0.000000
 Symmetry turned off by external request.
 Stoichiometry    C9H13N3O2
 Framework group  C1[X(C9H13N3O2)]
 Deg. of freedom    75
 Full point group                 C1      NOp   1
 Rotational constants (GHZ):           1.6502041           0.4050348           0.3675759
 Standard basis: 6-31G(d) (6D, 7F)
   236 basis functions,   444 primitive gaussians,   236 cartesian basis functions
    52 alpha electrons       52 beta electrons
       nuclear repulsion energy       920.6772263742 Hartrees.
 NAtoms=   27 NActive=   27 NUniq=   27 SFac= 1.00D+00 NAtFMM=   60 NAOKFM=F Big=F
 Integral buffers will be    131072 words long.
 Raffenetti 1 integral format.
 Two-electron integral symmetry is turned off.
 One-electron integrals computed using PRISM.
 NBasis=   236 RedAO= T EigKep=  1.69D-03  NBF=   236
 NBsUse=   236 1.00D-06 EigRej= -1.00D+00 NBFU=   236
 ExpMin= 1.61D-01 ExpMax= 5.48D+03 ExpMxC= 8.25D+02 IAcc=3 IRadAn=         5 AccDes= 0.00D+00
 Harris functional with IExCor=  205 and IRadAn=       5 diagonalized for initial guess.
 HarFok:  IExCor=  205 AccDes= 0.00D+00 IRadAn=         5 IDoV= 1 UseB2=F ITyADJ=14
 ICtDFT=  3500011 ScaDFX=  1.000000  1.000000  1.000000  1.000000
 FoFCou: FMM=F IPFlag=           0 FMFlag=      100000 FMFlg1=           0
         NFxFlg=           0 DoJE=T BraDBF=F KetDBF=T FulRan=T
         wScrn=  0.000000 ICntrl=       500 IOpCl=  0 I1Cent=   200000004 NGrid=           0
         NMat0=    1 NMatS0=      1 NMatT0=    0 NMatD0=    1 NMtDS0=    0 NMtDT0=    0
 Symmetry not used in FoFCou.
 Keep R1 ints in memory in canonical form, NReq=397720213.
 Requested convergence on RMS density matrix=1.00D-08 within 128 cycles.
 Requested convergence on MAX density matrix=1.00D-06.
 Requested convergence on             energy=1.00D-06.
 No special actions if energy rises.
 SCF Done:  E(RHF) =  -661.270714836     A.U. after   17 cycles
            NFock= 17  Conv=0.50D-08     -V/T= 2.0034
 ExpMin= 1.61D-01 ExpMax= 5.48D+03 ExpMxC= 8.25D+02 IAcc=3 IRadAn=         5 AccDes= 0.00D+00
 HarFok:  IExCor=  205 AccDes= 0.00D+00 IRadAn=         5 IDoV=-2 UseB2=F ITyADJ=14
 ICtDFT= 12500011 ScaDFX=  1.000000  1.000000  1.000000  1.000000
 Range of M.O.s used for correlation:    15   236
 NBasis=   236 NAE=    52 NBE=    52 NFC=    14 NFV=     0
 NROrb=    222 NOA=    38 NOB=    38 NVA=   184 NVB=   184
 Fully direct method using O(ONN) memory.
 JobTyp=1 Pass  1:  I=  15 to  52 NPSUse=  4 ParTrn=T ParDer=T DoDerP=T.
 Spin components of T(2) and E(2):
     alpha-alpha T2 =       0.9180121291D-01 E2=     -0.2718151125D+00
     alpha-beta  T2 =       0.5014925093D+00 E2=     -0.1495929126D+01
     beta-beta   T2 =       0.9180121291D-01 E2=     -0.2718151125D+00
 ANorm=    0.1298112066D+01
 E2 =    -0.2039559351D+01 EUMP2 =    -0.66331027418730D+03
          IDoAtm=111111111111111111111111111
          Differentiating once with respect to electric field.
                with respect to dipole field.
          Differentiating once with respect to nuclear coordinates.
 Keep R1 ints in memory in canonical form, NReq=397723379.
          There are     1 degrees of freedom in the 1st order CPHF.  IDoFFX=0 NUNeed=     1.
 LinEq1:  Iter=  0 NonCon=     1 RMS=4.51D-03 Max=1.33D-01 NDo=     1
 AX will form     1 AO Fock derivatives at one time.
 LinEq1:  Iter=  1 NonCon=     1 RMS=1.50D-03 Max=3.13D-02 NDo=     1
 LinEq1:  Iter=  2 NonCon=     1 RMS=6.15D-04 Max=1.93D-02 NDo=     1
 LinEq1:  Iter=  3 NonCon=     1 RMS=2.78D-04 Max=5.35D-03 NDo=     1
 LinEq1:  Iter=  4 NonCon=     1 RMS=8.51D-05 Max=1.59D-03 NDo=     1
 LinEq1:  Iter=  5 NonCon=     1 RMS=3.44D-05 Max=1.23D-03 NDo=     1
 LinEq1:  Iter=  6 NonCon=     1 RMS=1.43D-05 Max=5.83D-04 NDo=     1
 LinEq1:  Iter=  7 NonCon=     1 RMS=5.57D-06 Max=1.15D-04 NDo=     1
 LinEq1:  Iter=  8 NonCon=     1 RMS=2.20D-06 Max=4.41D-05 NDo=     1
 LinEq1:  Iter=  9 NonCon=     1 RMS=7.37D-07 Max=2.04D-05 NDo=     1
 LinEq1:  Iter= 10 NonCon=     1 RMS=2.78D-07 Max=8.49D-06 NDo=     1
 LinEq1:  Iter= 11 NonCon=     1 RMS=1.29D-07 Max=5.11D-06 NDo=     1
 LinEq1:  Iter= 12 NonCon=     1 RMS=6.32D-08 Max=1.67D-06 NDo=     1
 LinEq1:  Iter= 13 NonCon=     1 RMS=2.24D-08 Max=4.17D-07 NDo=     1
 LinEq1:  Iter= 14 NonCon=     1 RMS=7.86D-09 Max=2.25D-07 NDo=     1
 LinEq1:  Iter= 15 NonCon=     1 RMS=2.74D-09 Max=5.62D-08 NDo=     1
 LinEq1:  Iter= 16 NonCon=     1 RMS=9.84D-10 Max=2.13D-08 NDo=     1
 LinEq1:  Iter= 17 NonCon=     1 RMS=2.90D-10 Max=4.59D-09 NDo=     1
 LinEq1:  Iter= 18 NonCon=     1 RMS=1.02D-10 Max=1.90D-09 NDo=     1
 LinEq1:  Iter= 19 NonCon=     0 RMS=3.23D-11 Max=6.94D-10 NDo=     1
 Linear equations converged to 1.000D-10 1.000D-09 after    19 iterations.
 End of Minotr F.D. properties file   721 does not exist.
 End of Minotr F.D. properties file   722 does not exist.
 End of Minotr F.D. properties file   788 does not exist.

 **********************************************************************

            Population analysis using the SCF Density.

 **********************************************************************

 Alpha  occ. eigenvalues --  -20.60473 -20.60417 -15.84949 -15.62410 -15.56858
 Alpha  occ. eigenvalues --  -11.35161 -11.30947 -11.29808 -11.29280 -11.27627
 Alpha  occ. eigenvalues --  -11.24357 -11.23701 -11.23280 -11.22735  -1.59265
 Alpha  occ. eigenvalues --   -1.38935  -1.28085  -1.22679  -1.13518  -1.08949
 Alpha  occ. eigenvalues --   -1.01661  -1.00650  -0.93671  -0.89076  -0.84698
 Alpha  occ. eigenvalues --   -0.81813  -0.78406  -0.77184  -0.74026  -0.71519
 Alpha  occ. eigenvalues --   -0.71103  -0.69062  -0.66871  -0.64468  -0.63014
 Alpha  occ. eigenvalues --   -0.61618  -0.60360  -0.57297  -0.56305  -0.54716
 Alpha  occ. eigenvalues --   -0.53595  -0.51055  -0.50306  -0.48627  -0.48000
 Alpha  occ. eigenvalues --   -0.47607  -0.46177  -0.45495  -0.44133  -0.41975
 Alpha  occ. eigenvalues --   -0.39965  -0.32890
 Alpha virt. eigenvalues --    0.08884   0.10172   0.18339   0.21101   0.23125
 Alpha virt. eigenvalues --    0.24124   0.25072   0.27750   0.28573   0.28810
 Alpha virt. eigenvalues --    0.29087   0.30896   0.31973   0.32434   0.33428
 Alpha virt. eigenvalues --    0.33957   0.34969   0.36641   0.37828   0.38660
 Alpha virt. eigenvalues --    0.40749   0.41901   0.44244   0.45154   0.45511
 Alpha virt. eigenvalues --    0.47685   0.48664   0.54164   0.57542   0.58001
 Alpha virt. eigenvalues --    0.61638   0.68767   0.69376   0.72204   0.73865
 Alpha virt. eigenvalues --    0.74406   0.75842   0.76259   0.78091   0.78865
 Alpha virt. eigenvalues --    0.80389   0.82993   0.84831   0.85646   0.88364
 Alpha virt. eigenvalues --    0.88791   0.89433   0.91234   0.92185   0.93078
 Alpha virt. eigenvalues --    0.94508   0.97094   0.98596   1.00807   1.01577
 Alpha virt. eigenvalues --    1.04002   1.05134   1.06598   1.07273   1.08639
 Alpha virt. eigenvalues --    1.09663   1.10589   1.10792   1.11154   1.12510
 Alpha virt. eigenvalues --    1.13169   1.13706   1.14448   1.15647   1.16020
 Alpha virt. eigenvalues --    1.16875   1.17232   1.18523   1.21007   1.22028
 Alpha virt. eigenvalues --    1.23173   1.23612   1.25529   1.25938   1.28293
 Alpha virt. eigenvalues --    1.29690   1.30950   1.32419   1.34020   1.37789
 Alpha virt. eigenvalues --    1.39711   1.41947   1.43716   1.47447   1.52126
 Alpha virt. eigenvalues --    1.53420   1.55788   1.60261   1.64119   1.67307
 Alpha virt. eigenvalues --    1.68785   1.71622   1.72693   1.74051   1.75859
 Alpha virt. eigenvalues --    1.78274   1.79714   1.85440   1.89968   1.91257
 Alpha virt. eigenvalues --    1.92259   1.97514   1.98504   2.00257   2.01011
 Alpha virt. eigenvalues --    2.02965   2.03707   2.05927   2.10456   2.11200
 Alpha virt. eigenvalues --    2.12866   2.15171   2.17230   2.19151   2.20112
 Alpha virt. eigenvalues --    2.22362   2.22794   2.25430   2.26307   2.28315
 Alpha virt. eigenvalues --    2.30520   2.31024   2.33378   2.34382   2.35200
 Alpha virt. eigenvalues --    2.38922   2.39669   2.42101   2.44227   2.44318
 Alpha virt. eigenvalues --    2.48556   2.49705   2.51586   2.56944   2.57476
 Alpha virt. eigenvalues --    2.60590   2.62252   2.65542   2.68154   2.69210
 Alpha virt. eigenvalues --    2.69840   2.72048   2.74625   2.75884   2.81441
 Alpha virt. eigenvalues --    2.85978   2.87091   2.88742   2.93340   2.96360
 Alpha virt. eigenvalues --    2.97192   3.01150   3.04452   3.05948   3.06121
 Alpha virt. eigenvalues --    3.08300   3.13525   3.18846   3.21966   3.24383
 Alpha virt. eigenvalues --    3.28447   3.33275   3.37701   3.40840   3.59037
 Alpha virt. eigenvalues --    4.12322   4.19239   4.27596   4.32918   4.45098
 Alpha virt. eigenvalues --    4.53204   4.59832   4.61411   4.71401   4.78107
 Alpha virt. eigenvalues --    4.98218   4.99423   5.03853   5.09977
          Condensed to atoms (all electrons):
               1          2          3          4          5          6
     1  O    8.313800   0.293173  -0.080273  -0.092002   0.007722   0.000141
     2  N    0.293173   5.779705   0.301008   0.242530  -0.048951   0.001315
     3  O   -0.080273   0.301008   8.298675  -0.083431   0.001343  -0.000035
     4  C   -0.092002   0.242530  -0.083431   5.233953   0.588640  -0.053587
     5  C    0.007722  -0.048951   0.001343   0.588640   4.635857   0.319657
     6  N    0.000141   0.001315  -0.000035  -0.053587   0.319657   7.172464
     7  C   -0.000004  -0.000106   0.000006   0.003364  -0.030235   0.208914
     8  H    0.000000   0.000002  -0.000000  -0.000154   0.002431  -0.048724
     9  C    0.000000  -0.000006   0.000000   0.000435   0.001974  -0.058431
    10  C    0.000000   0.000000  -0.000000  -0.000019  -0.000075   0.003418
    11  C   -0.000000  -0.000000  -0.000000  -0.000019   0.000017  -0.000156
    12  C    0.000000   0.000001  -0.000000  -0.000081  -0.000159   0.003572
    13  C    0.000003  -0.000043  -0.000026  -0.009434   0.000479  -0.045880
    14  H    0.000001  -0.000059  -0.000007   0.002317   0.004521  -0.005420
    15  N   -0.000032   0.001936   0.000011  -0.065916  -0.005734   0.002991
    16  C    0.000873  -0.027538   0.003875   0.322185  -0.030260  -0.001615
    17  H    0.003175  -0.002036  -0.000043  -0.036272   0.387307  -0.031612
    18  H    0.000008  -0.000056   0.000000   0.001691  -0.023665   0.328298
    19  H    0.000000  -0.000000  -0.000000  -0.000889   0.000646   0.000632
    20  H    0.000000  -0.000000  -0.000000  -0.000030   0.000014  -0.001350
    21  H   -0.000000  -0.000000   0.000000   0.000000   0.000001  -0.000061
    22  H    0.000000   0.000000  -0.000000  -0.000000  -0.000002  -0.000096
    23  H    0.000000  -0.000000  -0.000000   0.000024  -0.000000  -0.000023
    24  H    0.000000   0.000000  -0.000000   0.000000  -0.000000   0.000004
    25  H    0.000000  -0.000000   0.000000   0.000021  -0.000001  -0.000070
    26  H    0.000000  -0.000000  -0.000000   0.000004   0.000000  -0.000068
    27  H    0.000338   0.000628   0.000785  -0.076385   0.001784   0.000044
               7          8          9         10         11         12
     1  O   -0.000004   0.000000   0.000000   0.000000  -0.000000   0.000000
     2  N   -0.000106   0.000002  -0.000006   0.000000  -0.000000   0.000001
     3  O    0.000006  -0.000000   0.000000  -0.000000  -0.000000  -0.000000
     4  C    0.003364  -0.000154   0.000435  -0.000019  -0.000019  -0.000081
     5  C   -0.030235   0.002431   0.001974  -0.000075   0.000017  -0.000159
     6  N    0.208914  -0.048724  -0.058431   0.003418  -0.000156   0.003572
     7  C    5.004236   0.415817   0.341932  -0.049579  -0.007633  -0.064361
     8  H    0.415817   0.547904  -0.060469   0.001217  -0.000260  -0.003047
     9  C    0.341932  -0.060469   5.180430   0.317785  -0.053140  -0.005868
    10  C   -0.049579   0.001217   0.317785   5.127923   0.332699  -0.060282
    11  C   -0.007633  -0.000260  -0.053140   0.332699   5.124636   0.330378
    12  C   -0.064361  -0.003047  -0.005868  -0.060282   0.330378   5.138046
    13  C    0.329068  -0.039177  -0.052247  -0.001404  -0.048078   0.367342
    14  H   -0.040209  -0.000956   0.003817  -0.000384   0.003940  -0.040549
    15  N   -0.059395   0.003970  -0.012398   0.001521  -0.007823  -0.073859
    16  C   -0.002264  -0.000024  -0.000497  -0.000056   0.000012   0.002521
    17  H    0.001648  -0.000035  -0.000070   0.000001   0.000000   0.000001
    18  H   -0.029714  -0.002897   0.000716  -0.000115   0.000011  -0.000139
    19  H   -0.035156   0.004077   0.386667  -0.033079  -0.002245   0.000623
    20  H   -0.041438  -0.001772   0.397234  -0.037393   0.004135  -0.000361
    21  H    0.004057  -0.000082  -0.035811   0.399962  -0.035926   0.004229
    22  H   -0.004282   0.003540  -0.045551   0.395809  -0.045611  -0.001270
    23  H    0.000426   0.000034  -0.001981  -0.040176   0.396715  -0.036760
    24  H   -0.000147  -0.000099   0.004381  -0.038477   0.400267  -0.037891
    25  H    0.004993  -0.000000  -0.000382   0.004103  -0.033979   0.395381
    26  H   -0.004478   0.001538   0.001052  -0.002408  -0.042200   0.394717
    27  H   -0.000411   0.000009  -0.000056   0.000004   0.000005  -0.000024
              13         14         15         16         17         18
     1  O    0.000003   0.000001  -0.000032   0.000873   0.003175   0.000008
     2  N   -0.000043  -0.000059   0.001936  -0.027538  -0.002036  -0.000056
     3  O   -0.000026  -0.000007   0.000011   0.003875  -0.000043   0.000000
     4  C   -0.009434   0.002317  -0.065916   0.322185  -0.036272   0.001691
     5  C    0.000479   0.004521  -0.005734  -0.030260   0.387307  -0.023665
     6  N   -0.045880  -0.005420   0.002991  -0.001615  -0.031612   0.328298
     7  C    0.329068  -0.040209  -0.059395  -0.002264   0.001648  -0.029714
     8  H   -0.039177  -0.000956   0.003970  -0.000024  -0.000035  -0.002897
     9  C   -0.052247   0.003817  -0.012398  -0.000497  -0.000070   0.000716
    10  C   -0.001404  -0.000384   0.001521  -0.000056   0.000001  -0.000115
    11  C   -0.048078   0.003940  -0.007823   0.000012   0.000000   0.000011
    12  C    0.367342  -0.040549  -0.073859   0.002521   0.000001  -0.000139
    13  C    5.019951   0.404121   0.246677  -0.070371  -0.000056   0.003805
    14  H    0.404121   0.513589  -0.035884  -0.004746   0.000052   0.000014
    15  N    0.246677  -0.035884   6.916627   0.609631  -0.000049  -0.000125
    16  C   -0.070371  -0.004746   0.609631   4.650386   0.001476  -0.000151
    17  H   -0.000056   0.000052  -0.000049   0.001476   0.415791  -0.002246
    18  H    0.003805   0.000014  -0.000125  -0.000151  -0.002246   0.330724
    19  H   -0.006075   0.000060   0.006651   0.002293   0.000011  -0.000116
    20  H    0.003891  -0.000050   0.000078  -0.000032  -0.000003   0.002736
    21  H   -0.000393   0.000009  -0.000034   0.000002  -0.000000  -0.000000
    22  H    0.000331  -0.000042   0.000006  -0.000001   0.000000   0.000003
    23  H   -0.005876   0.000006   0.006703   0.000086   0.000000   0.000000
    24  H    0.004152  -0.000059   0.000035   0.000005   0.000000  -0.000000
    25  H   -0.034628  -0.002660   0.000885  -0.000050  -0.000000   0.000002
    26  H   -0.044597  -0.000891   0.004149  -0.000052   0.000000  -0.000001
    27  H    0.004967  -0.000155  -0.037044   0.405673  -0.000070   0.000002
              19         20         21         22         23         24
     1  O    0.000000   0.000000  -0.000000   0.000000   0.000000   0.000000
     2  N   -0.000000  -0.000000  -0.000000   0.000000  -0.000000   0.000000
     3  O   -0.000000  -0.000000   0.000000  -0.000000  -0.000000  -0.000000
     4  C   -0.000889  -0.000030   0.000000  -0.000000   0.000024   0.000000
     5  C    0.000646   0.000014   0.000001  -0.000002  -0.000000  -0.000000
     6  N    0.000632  -0.001350  -0.000061  -0.000096  -0.000023   0.000004
     7  C   -0.035156  -0.041438   0.004057  -0.004282   0.000426  -0.000147
     8  H    0.004077  -0.001772  -0.000082   0.003540   0.000034  -0.000099
     9  C    0.386667   0.397234  -0.035811  -0.045551  -0.001981   0.004381
    10  C   -0.033079  -0.037393   0.399962   0.395809  -0.040176  -0.038477
    11  C   -0.002245   0.004135  -0.035926  -0.045611   0.396715   0.400267
    12  C    0.000623  -0.000361   0.004229  -0.001270  -0.036760  -0.037891
    13  C   -0.006075   0.003891  -0.000393   0.000331  -0.005876   0.004152
    14  H    0.000060  -0.000050   0.000009  -0.000042   0.000006  -0.000059
    15  N    0.006651   0.000078  -0.000034   0.000006   0.006703   0.000035
    16  C    0.002293  -0.000032   0.000002  -0.000001   0.000086   0.000005
    17  H    0.000011  -0.000003  -0.000000   0.000000   0.000000   0.000000
    18  H   -0.000116   0.002736  -0.000000   0.000003   0.000000  -0.000000
    19  H    0.507907  -0.023795  -0.002598   0.003776   0.001657  -0.000072
    20  H   -0.023795   0.548976  -0.002647  -0.002938  -0.000050  -0.000090
    21  H   -0.002598  -0.002647   0.527224  -0.024785  -0.002833  -0.002077
    22  H    0.003776  -0.002938  -0.024785   0.569494   0.004073  -0.003587
    23  H    0.001657  -0.000050  -0.002833   0.004073   0.510971  -0.025058
    24  H   -0.000072  -0.000090  -0.002077  -0.003587  -0.025058   0.541721
    25  H   -0.000027   0.000011  -0.000087  -0.000082  -0.002080  -0.002398
    26  H    0.000023  -0.000035  -0.000073   0.002455   0.003820  -0.002747
    27  H    0.000085   0.000000  -0.000000   0.000000  -0.000020  -0.000000
              25         26         27
     1  O    0.000000   0.000000   0.000338
     2  N   -0.000000  -0.000000   0.000628
     3  O    0.000000  -0.000000   0.000785
     4  C    0.000021   0.000004  -0.076385
     5  C   -0.000001   0.000000   0.001784
     6  N   -0.000070  -0.000068   0.000044
     7  C    0.004993  -0.004478  -0.000411
     8  H   -0.000000   0.001538   0.000009
     9  C   -0.000382   0.001052  -0.000056
    10  C    0.004103  -0.002408   0.000004
    11  C   -0.033979  -0.042200   0.000005
    12  C    0.395381   0.394717  -0.000024
    13  C   -0.034628  -0.044597   0.004967
    14  H   -0.002660  -0.000891  -0.000155
    15  N    0.000885   0.004149  -0.037044
    16  C   -0.000050  -0.000052   0.405673
    17  H   -0.000000   0.000000  -0.000070
    18  H    0.000002  -0.000001   0.000002
    19  H   -0.000027   0.000023   0.000085
    20  H    0.000011  -0.000035   0.000000
    21  H   -0.000087  -0.000073  -0.000000
    22  H   -0.000082   0.002455   0.000000
    23  H   -0.002080   0.003820  -0.000020
    24  H   -0.002398  -0.002747  -0.000000
    25  H    0.511071  -0.023158  -0.000012
    26  H   -0.023158   0.560501   0.000001
    27  H   -0.000012   0.000001   0.473680
 Mulliken charges:
               1
     1  O   -0.446922
     2  N    0.458495
     3  O   -0.441888
     4  C    0.023053
     5  C    0.186688
     6  N   -0.794322
     7  C    0.054951
     8  H    0.177158
     9  C   -0.309518
    10  C   -0.320996
    11  C   -0.315744
    12  C   -0.312161
    13  C   -0.026502
    14  H    0.199626
    15  N   -0.503577
    16  C    0.138636
    17  H    0.263033
    18  H    0.391216
    19  H    0.188942
    20  H    0.154911
    21  H    0.171923
    22  H    0.148760
    23  H    0.190339
    24  H    0.162137
    25  H    0.183145
    26  H    0.152444
    27  H    0.226171
 Sum of Mulliken charges =  -0.00000
 Mulliken charges with hydrogens summed into heavy atoms:
               1
     1  O   -0.446922
     2  N    0.458495
     3  O   -0.441888
     4  C    0.023053
     5  C    0.449721
     6  N   -0.403106
     7  C    0.232109
     9  C    0.034336
    10  C   -0.000312
    11  C    0.036732
    12  C    0.023429
    13  C    0.173125
    15  N   -0.503577
    16  C    0.364807
 Electronic spatial extent (au):  <R**2>=           3069.2050
 Charge=             -0.0000 electrons
 Dipole moment (field-independent basis, Debye):
    X=              4.6857    Y=              4.3211    Z=              0.5119  Tot=              6.3945
 Quadrupole moment (field-independent basis, Debye-Ang):
   XX=           -101.5574   YY=            -77.5730   ZZ=            -85.8417
   XY=             -2.3901   XZ=             -0.6606   YZ=              2.5227
 Traceless Quadrupole moment (field-independent basis, Debye-Ang):
   XX=            -13.2333   YY=             10.7510   ZZ=              2.4823
   XY=             -2.3901   XZ=             -0.6606   YZ=              2.5227
 Octapole moment (field-independent basis, Debye-Ang**2):
  XXX=             77.0706  YYY=             31.6490  ZZZ=             -2.4387  XYY=            -14.0203
  XXY=             17.1294  XXZ=              8.0391  XZZ=              3.6182  YZZ=             -2.9655
  YYZ=             -3.4656  XYZ=            -10.6429
 Hexadecapole moment (field-independent basis, Debye-Ang**3):
 XXXX=          -3382.4222 YYYY=           -567.7690 ZZZZ=           -360.2432 XXXY=            -68.3837
 XXXZ=            -38.2924 YYYX=             -3.4530 YYYZ=             43.5943 ZZZX=            -11.6206
 ZZZY=             42.7513 XXYY=           -594.8934 XXZZ=           -585.3026 YYZZ=           -168.7674
 XXYZ=             50.3052 YYXZ=              8.8296 ZZXY=              0.8574
 N-N= 9.206772263742D+02 E-N=-3.387478729073D+03  KE= 6.589984316651D+02
 Calling FoFJK, ICntrl=  10002127 FMM=F ISym2X=0 I1Cent= 0 IOpClX= 0 NMat=1 NMatS=1 NMatT=0.
 -------------------------------------------------------------------
 Center     Atomic                   Forces (Hartrees/Bohr)
 Number     Number              X              Y              Z
 -------------------------------------------------------------------
      1        8          -0.018185207    0.015793849   -0.012179901
      2        7           0.041178914   -0.006327720   -0.009914135
      3        8          -0.010982587   -0.012508840    0.016923809
      4        6           0.005671377    0.018418732    0.010337192
      5        6           0.007463011   -0.022061466   -0.006477673
      6        7           0.019807978   -0.002547617   -0.003433343
      7        6          -0.006626873    0.006274279    0.002090759
      8        1          -0.010436547   -0.002394639   -0.007300795
      9        6          -0.003664584   -0.000200918   -0.001849421
     10        6           0.002764775   -0.000854622    0.000740426
     11        6          -0.000740448   -0.004611087   -0.001906427
     12        6           0.000632594   -0.009340344   -0.002570249
     13        6           0.008515449   -0.000579495    0.002746103
     14        1           0.000583296    0.003155862   -0.010684481
     15        7           0.001046364   -0.003274696    0.004338012
     16        6          -0.015828250    0.013868799    0.006384302
     17        1           0.009351508   -0.004921698   -0.003411236
     18        1          -0.017070318   -0.002253834    0.004292686
     19        1           0.003193666    0.006400728    0.007047372
     20        1          -0.003255979   -0.007276954    0.003263803
     21        1          -0.004094566    0.003060199    0.009495881
     22        1          -0.004116620   -0.004524641   -0.006989455
     23        1           0.004071912    0.006741920    0.008743126
     24        1          -0.009406763    0.002373396   -0.002158575
     25        1          -0.000868776    0.010385470   -0.003203033
     26        1          -0.004901170   -0.005087663   -0.003983180
     27        1           0.005897844    0.002292999   -0.000341566
 -------------------------------------------------------------------
 Cartesian Forces:  Max     0.041178914 RMS     0.009294516

 GradGradGradGradGradGradGradGradGradGradGradGradGradGradGradGradGradGrad
 Berny optimization.
 FormGI is forming the generalized inverse of G from B-inverse, IUseBI=4.
 Internal  Forces:  Max     0.029024381 RMS     0.006271501
 Search for a local minimum.
 Step number   1 out of a maximum of   20
 All quantities printed in internal units (Hartrees-Bohrs-Radians)
 Mixed Optimization -- RFO/linear search
 Second derivative matrix not updated -- first step.
 ITU=  0
     Eigenvalues ---    0.00638   0.00770   0.01098   0.01181   0.01307
     Eigenvalues ---    0.01500   0.01538   0.01653   0.02000   0.02064
     Eigenvalues ---    0.02145   0.02673   0.03658   0.04508   0.04697
     Eigenvalues ---    0.04837   0.05070   0.05139   0.05301   0.05869
     Eigenvalues ---    0.06269   0.07211   0.07699   0.07715   0.07856
     Eigenvalues ---    0.07996   0.08038   0.08049   0.10458   0.11735
     Eigenvalues ---    0.12266   0.13356   0.15133   0.15569   0.15989
     Eigenvalues ---    0.15999   0.20099   0.22069   0.23277   0.24954
     Eigenvalues ---    0.25000   0.25000   0.25326   0.26150   0.26654
     Eigenvalues ---    0.27988   0.28081   0.28432   0.31481   0.31829
     Eigenvalues ---    0.32047   0.32239   0.32290   0.32380   0.32388
     Eigenvalues ---    0.32404   0.32509   0.32527   0.32587   0.33346
     Eigenvalues ---    0.33586   0.33931   0.34062   0.35255   0.43883
     Eigenvalues ---    0.45380   0.49573   0.67304   0.91487   0.91949
     Eigenvalues --- 1000.000001000.000001000.000001000.000001000.00000
     Eigenvalues --- 1000.000001000.000001000.000001000.000001000.00000
     Eigenvalues --- 1000.000001000.000001000.000001000.000001000.00000
     Eigenvalues --- 1000.000001000.000001000.000001000.000001000.00000
     Eigenvalues --- 1000.000001000.000001000.000001000.000001000.00000
     Eigenvalues --- 1000.000001000.000001000.000001000.000001000.00000
     Eigenvalues --- 1000.000001000.000001000.000001000.000001000.00000
     Eigenvalues --- 1000.000001000.000001000.000001000.000001000.00000
     Eigenvalues --- 1000.000001000.000001000.000001000.000001000.00000
     Eigenvalues --- 1000.000001000.000001000.000001000.000001000.00000
     Eigenvalues --- 1000.000001000.000001000.000001000.000001000.00000
     Eigenvalues --- 1000.000001000.000001000.000001000.000001000.00000
     Eigenvalues --- 1000.000001000.000001000.000001000.000001000.00000
     Eigenvalues --- 1000.000001000.000001000.000001000.000001000.00000
     Eigenvalues --- 1000.000001000.000001000.000001000.000001000.00000
     Eigenvalues --- 1000.000001000.000001000.000001000.000001000.00000
     Eigenvalues --- 1000.000001000.000001000.000001000.000001000.00000
     Eigenvalues --- 1000.000001000.000001000.000001000.000001000.00000
     Eigenvalues --- 1000.00000
 RFO step:  Lambda=-2.01077709D-02 EMin= 6.38174557D-03
 Linear search not attempted -- first point.
 Iteration  1 RMS(Cart)=  0.04688132 RMS(Int)=  0.00183299
 Iteration  2 RMS(Cart)=  0.00219179 RMS(Int)=  0.00073332
 Iteration  3 RMS(Cart)=  0.00000480 RMS(Int)=  0.00073331
 Iteration  4 RMS(Cart)=  0.00000001 RMS(Int)=  0.00073331
 Iteration  1 RMS(Cart)=  0.00002088 RMS(Int)=  0.00001479
 Iteration  2 RMS(Cart)=  0.00001268 RMS(Int)=  0.00001621
 Iteration  3 RMS(Cart)=  0.00000797 RMS(Int)=  0.00001837
 Iteration  4 RMS(Cart)=  0.00000529 RMS(Int)=  0.00002019
 Iteration  5 RMS(Cart)=  0.00000378 RMS(Int)=  0.00002162
 Iteration  6 RMS(Cart)=  0.00000292 RMS(Int)=  0.00002275
 Iteration  7 RMS(Cart)=  0.00000239 RMS(Int)=  0.00002368
 Iteration  8 RMS(Cart)=  0.00000202 RMS(Int)=  0.00002446
 Iteration  9 RMS(Cart)=  0.00000175 RMS(Int)=  0.00002513
 Iteration 10 RMS(Cart)=  0.00000152 RMS(Int)=  0.00002572
 Iteration 11 RMS(Cart)=  0.00000133 RMS(Int)=  0.00002623
 Iteration 12 RMS(Cart)=  0.00000117 RMS(Int)=  0.00002669
 Iteration 13 RMS(Cart)=  0.00000103 RMS(Int)=  0.00002710
 Iteration 14 RMS(Cart)=  0.00000090 RMS(Int)=  0.00002745
 Variable       Old X    -DE/DX   Delta X   Delta X   Delta X     New X
                                 (Linear)    (Quad)   (Total)
    R1        2.32255   0.02467   0.00000   0.02638   0.02638   2.34893
    R2        2.32047   0.02347   0.00000   0.02498   0.02498   2.34545
    R3        2.80746  -0.01118   0.00000  -0.03112  -0.03112   2.77635
    R4        2.63125  -0.02902   0.00000  -0.06182  -0.06158   2.56966
    R5        2.79217  -0.01963   0.00000  -0.05621  -0.05606   2.73611
    R6        2.58846  -0.01865   0.00000  -0.03583  -0.03569   2.55278
    R7        2.08449  -0.01045   0.00000  -0.02956  -0.02956   2.05492
    R8        2.82668  -0.02088   0.00000  -0.05782  -0.05788   2.76879
    R9        1.93295  -0.00697   0.00000  -0.01520  -0.01520   1.91775
   R10        2.11804  -0.01206   0.00000  -0.03601  -0.03601   2.08202
   R11        2.92749  -0.01267   0.00000  -0.04344  -0.04343   2.88407
   R12        2.90657  -0.00402   0.00000  -0.00801  -0.00813   2.89844
   R13        2.91149  -0.00457   0.00000  -0.01430  -0.01432   2.89717
   R14        2.09922  -0.00983   0.00000  -0.02847  -0.02847   2.07076
   R15        2.09890  -0.00818   0.00000  -0.02368  -0.02368   2.07523
   R16        2.90433  -0.00201   0.00000  -0.00762  -0.00771   2.89662
   R17        2.10140  -0.01053   0.00000  -0.03061  -0.03061   2.07080
   R18        2.10316  -0.00900   0.00000  -0.02624  -0.02624   2.07692
   R19        2.91733  -0.00917   0.00000  -0.02965  -0.02966   2.88767
   R20        2.10408  -0.01160   0.00000  -0.03388  -0.03388   2.07020
   R21        2.10111  -0.00991   0.00000  -0.02880  -0.02880   2.07231
   R22        2.93524  -0.01054   0.00000  -0.03674  -0.03672   2.89852
   R23        2.10154  -0.01075   0.00000  -0.03125  -0.03125   2.07028
   R24        2.09783  -0.00791   0.00000  -0.02285  -0.02285   2.07498
   R25        2.10758  -0.00957   0.00000  -0.02810  -0.02810   2.07948
   R26        2.77184  -0.00652   0.00000  -0.01490  -0.01507   2.75677
   R27        2.44173  -0.00483   0.00000  -0.00709  -0.00712   2.43460
   R28        2.08034  -0.00437   0.00000  -0.01227  -0.01227   2.06807
    A1        2.20079  -0.00499   0.00000  -0.01270  -0.01775   2.18304
    A2        2.03669   0.00750   0.00000   0.03348   0.02843   2.06513
    A3        2.03576  -0.00050   0.00000   0.00384  -0.00121   2.03455
    A4        1.99647   0.00194   0.00000   0.00988   0.00837   2.00484
    A5        2.01948  -0.00456   0.00000  -0.01412  -0.01557   2.00391
    A6        2.26517   0.00259   0.00000  -0.00128  -0.00202   2.26314
    A7        2.18528   0.01073   0.00000   0.03880   0.03927   2.22454
    A8        2.06317  -0.00290   0.00000  -0.00554  -0.00580   2.05737
    A9        2.03372  -0.00780   0.00000  -0.03279  -0.03305   2.00067
   A10        2.25128  -0.00750   0.00000  -0.02649  -0.02630   2.22498
   A11        2.11059  -0.01085   0.00000  -0.06705  -0.06721   2.04338
   A12        1.86975   0.01828   0.00000   0.09869   0.09871   1.96846
   A13        1.83775  -0.00193   0.00000  -0.01828  -0.01807   1.81968
   A14        2.00488  -0.00088   0.00000  -0.01292  -0.01295   1.99193
   A15        1.97156   0.00144   0.00000   0.00151   0.00090   1.97246
   A16        1.85277   0.00279   0.00000   0.02474   0.02452   1.87729
   A17        1.84899   0.00102   0.00000   0.02181   0.02180   1.87079
   A18        1.93396  -0.00211   0.00000  -0.01193  -0.01164   1.92232
   A19        1.91016   0.00052   0.00000  -0.00382  -0.00393   1.90623
   A20        1.92183  -0.00072   0.00000  -0.01363  -0.01361   1.90822
   A21        1.92304  -0.00189   0.00000  -0.00773  -0.00776   1.91528
   A22        1.91932  -0.00052   0.00000   0.00540   0.00534   1.92466
   A23        1.90488   0.00298   0.00000   0.02577   0.02579   1.93067
   A24        1.88442  -0.00035   0.00000  -0.00559  -0.00585   1.87857
   A25        1.94076  -0.00094   0.00000   0.00583   0.00564   1.94640
   A26        1.91876  -0.00055   0.00000  -0.00646  -0.00645   1.91231
   A27        1.90493   0.00025   0.00000  -0.00308  -0.00311   1.90181
   A28        1.91604   0.00070   0.00000   0.00727   0.00733   1.92337
   A29        1.89854   0.00180   0.00000   0.01131   0.01137   1.90991
   A30        1.88376  -0.00124   0.00000  -0.01540  -0.01550   1.86826
   A31        1.94458   0.00068   0.00000   0.00544   0.00567   1.95025
   A32        1.90250   0.00059   0.00000   0.00632   0.00621   1.90871
   A33        1.91722   0.00043   0.00000   0.00560   0.00557   1.92278
   A34        1.90701  -0.00126   0.00000  -0.01515  -0.01522   1.89178
   A35        1.91527  -0.00040   0.00000   0.00035   0.00022   1.91549
   A36        1.87591  -0.00007   0.00000  -0.00296  -0.00298   1.87293
   A37        1.94590  -0.00287   0.00000  -0.01961  -0.01968   1.92622
   A38        1.90627   0.00239   0.00000   0.01666   0.01644   1.92272
   A39        1.91140   0.00148   0.00000   0.01481   0.01485   1.92625
   A40        1.90633   0.00024   0.00000  -0.00322  -0.00300   1.90332
   A41        1.91216  -0.00034   0.00000  -0.00473  -0.00467   1.90749
   A42        1.88060  -0.00082   0.00000  -0.00337  -0.00358   1.87701
   A43        1.84543   0.00476   0.00000   0.02543   0.02553   1.87096
   A44        1.93474  -0.00427   0.00000  -0.02968  -0.03019   1.90455
   A45        1.99153   0.00122   0.00000   0.01266   0.01276   2.00429
   A46        1.88155   0.00232   0.00000   0.03269   0.03293   1.91449
   A47        1.89107  -0.00460   0.00000  -0.03203  -0.03207   1.85899
   A48        1.91478   0.00077   0.00000  -0.00643  -0.00613   1.90865
   A49        2.08780  -0.00603   0.00000  -0.01715  -0.01719   2.07061
   A50        2.24103  -0.00096   0.00000  -0.00817  -0.00824   2.23279
   A51        1.97881   0.00428   0.00000   0.02491   0.02446   2.00327
   A52        2.06319  -0.00335   0.00000  -0.01752  -0.01795   2.04524
    D1        1.15950  -0.01043   0.00000  -0.08298  -0.08284   1.07666
    D2       -1.91987  -0.01012   0.00000   0.00000   0.00000  -1.91987
    D3       -2.12378   0.00334   0.00000   0.09017   0.09016  -2.03362
    D4        1.08003   0.00365   0.00000   0.17315   0.17300   1.25304
    D5        3.08416   0.00044   0.00000   0.04867   0.04887   3.13303
    D6       -0.00711  -0.00006   0.00000   0.03793   0.03811   0.03099
    D7       -0.13040  -0.00024   0.00000  -0.04911  -0.04945  -0.17985
    D8        3.06151  -0.00074   0.00000  -0.05985  -0.06021   3.00130
    D9       -2.82269  -0.00062   0.00000  -0.06338  -0.06335  -2.88604
   D10        0.33836   0.00116   0.00000  -0.01482  -0.01438   0.32398
   D11        0.39266  -0.00016   0.00000   0.03463   0.03411   0.42677
   D12       -2.72947   0.00162   0.00000   0.08319   0.08307  -2.64640
   D13       -0.01886   0.00010   0.00000   0.02575   0.02603   0.00717
   D14        2.73753   0.00346   0.00000   0.06356   0.06339   2.80092
   D15        3.07317   0.00071   0.00000   0.03699   0.03713   3.11030
   D16       -0.45362   0.00407   0.00000   0.07480   0.07448  -0.37914
   D17       -2.56926  -0.00072   0.00000  -0.01052  -0.01017  -2.57943
   D18        1.68224  -0.00241   0.00000  -0.02197  -0.02161   1.66064
   D19       -0.55942   0.00008   0.00000   0.00542   0.00552  -0.55389
   D20        0.91635   0.00066   0.00000  -0.01864  -0.01874   0.89762
   D21       -1.11532  -0.00103   0.00000  -0.03009  -0.03018  -1.14550
   D22        2.92620   0.00145   0.00000  -0.00270  -0.00305   2.92316
   D23        2.94127   0.00214   0.00000   0.02947   0.02940   2.97067
   D24       -1.23015   0.00138   0.00000   0.02510   0.02502  -1.20512
   D25        0.84660  -0.00068   0.00000   0.00490   0.00491   0.85151
   D26        0.91820   0.00317   0.00000   0.04281   0.04287   0.96107
   D27        3.02997   0.00240   0.00000   0.03844   0.03850   3.06846
   D28       -1.17647   0.00034   0.00000   0.01824   0.01839  -1.15809
   D29       -1.08158   0.00147   0.00000   0.00938   0.00933  -1.07225
   D30        1.03019   0.00070   0.00000   0.00501   0.00495   1.03514
   D31        3.10693  -0.00136   0.00000  -0.01519  -0.01516   3.09177
   D32       -2.89732  -0.00103   0.00000  -0.01537  -0.01512  -2.91244
   D33       -0.86281   0.00226   0.00000   0.02274   0.02256  -0.84025
   D34        1.30939   0.00078   0.00000   0.00000   0.00001   1.30940
   D35       -0.89422  -0.00200   0.00000  -0.02349  -0.02330  -0.91752
   D36        1.14029   0.00129   0.00000   0.01462   0.01438   1.15468
   D37       -2.97069  -0.00019   0.00000  -0.00812  -0.00817  -2.97887
   D38        1.10793   0.00081   0.00000   0.01177   0.01193   1.11986
   D39       -3.14074   0.00410   0.00000   0.04988   0.04961  -3.09113
   D40       -0.96855   0.00262   0.00000   0.02714   0.02706  -0.94148
   D41        0.95665   0.00084   0.00000   0.00000   0.00001   0.95666
   D42        3.08228   0.00072   0.00000   0.00867   0.00862   3.09090
   D43       -1.13787  -0.00096   0.00000  -0.01569  -0.01566  -1.15353
   D44       -1.15663   0.00173   0.00000   0.01589   0.01597  -1.14066
   D45        0.96900   0.00161   0.00000   0.02456   0.02458   0.99358
   D46        3.03203  -0.00007   0.00000   0.00020   0.00031   3.03234
   D47        3.06242   0.00068   0.00000   0.00407   0.00405   3.06647
   D48       -1.09514   0.00056   0.00000   0.01274   0.01265  -1.08249
   D49        0.96789  -0.00113   0.00000  -0.01162  -0.01162   0.95627
   D50       -0.92191  -0.00060   0.00000   0.00000   0.00001  -0.92190
   D51        1.18396  -0.00136   0.00000  -0.01128  -0.01129   1.17266
   D52       -3.04805  -0.00085   0.00000  -0.00792  -0.00797  -3.05603
   D53       -3.04912   0.00024   0.00000  -0.00067  -0.00064  -3.04976
   D54       -0.94325  -0.00051   0.00000  -0.01195  -0.01194  -0.95519
   D55        1.10792  -0.00000   0.00000  -0.00859  -0.00862   1.09930
   D56        1.17639   0.00029   0.00000   0.00712   0.00716   1.18356
   D57       -3.00092  -0.00047   0.00000  -0.00416  -0.00414  -3.00506
   D58       -0.94975   0.00004   0.00000  -0.00080  -0.00082  -0.95057
   D59        0.99039  -0.00096   0.00000  -0.01169  -0.01179   0.97860
   D60        3.09876  -0.00091   0.00000  -0.01718  -0.01739   3.08137
   D61       -1.12873   0.00035   0.00000  -0.00292  -0.00293  -1.13166
   D62       -1.11283  -0.00130   0.00000  -0.01302  -0.01304  -1.12587
   D63        0.99554  -0.00124   0.00000  -0.01851  -0.01864   0.97690
   D64        3.05123   0.00001   0.00000  -0.00425  -0.00418   3.04706
   D65        3.11767  -0.00024   0.00000  -0.00075  -0.00076   3.11691
   D66       -1.05715  -0.00019   0.00000  -0.00624  -0.00636  -1.06351
   D67        0.99854   0.00107   0.00000   0.00803   0.00811   1.00665
   D68       -1.05752  -0.00010   0.00000  -0.00197  -0.00186  -1.05938
   D69       -3.12774   0.00124   0.00000   0.00307   0.00260  -3.12514
   D70        1.08433   0.00157   0.00000   0.01014   0.00989   1.09422
   D71        3.11733  -0.00141   0.00000  -0.00811  -0.00788   3.10945
   D72        1.04711  -0.00007   0.00000  -0.00307  -0.00342   1.04369
   D73       -1.02400   0.00026   0.00000   0.00400   0.00388  -1.02013
   D74        1.06117  -0.00035   0.00000   0.00060   0.00087   1.06204
   D75       -1.00905   0.00099   0.00000   0.00564   0.00533  -1.00372
   D76       -3.08017   0.00131   0.00000   0.01271   0.01262  -3.06754
   D77       -1.17217   0.00375   0.00000   0.00000   0.00001  -1.17217
   D78        3.06060   0.00017   0.00000  -0.01785  -0.01766   3.04294
   D79        1.01066  -0.00040   0.00000  -0.03505  -0.03537   0.97529
   D80        0.21637  -0.00061   0.00000  -0.00928  -0.00953   0.20684
   D81       -2.94549  -0.00239   0.00000  -0.05945  -0.05910  -3.00459
         Item               Value     Threshold  Converged?
 Maximum Force            0.028775     0.000450     NO 
 RMS     Force            0.006241     0.000300     NO 
 Maximum Displacement     0.170219     0.001800     NO 
 RMS     Displacement     0.047756     0.001200     NO 
 Predicted change in Energy=-1.163553D-02
 GradGradGradGradGradGradGradGradGradGradGradGradGradGradGradGradGradGrad

                          Input orientation:                          
 ---------------------------------------------------------------------
 Center     Atomic      Atomic             Coordinates (Angstroms)
 Number     Number       Type             X           Y           Z
 ---------------------------------------------------------------------
      1          8           0       -3.714714    0.274818   -1.080863
      2          7           0       -3.116186   -0.248958   -0.125628
      3          8           0       -3.649873   -0.933193    0.761769
      4          6           0       -1.670949   -0.017961    0.002506
      5          6           0       -1.312687    1.282554    0.173933
      6          7           0       -0.065203    1.777729    0.327020
      7          6           0        1.195484    1.031175    0.336096
      8          1           0        1.841238    1.597408    1.026210
      9          6           0        1.900191    0.980284   -1.016691
     10          6           0        3.305058    0.394839   -0.832185
     11          6           0        3.258288   -0.971290   -0.138601
     12          6           0        2.465460   -0.916594    1.166575
     13          6           0        1.050239   -0.383968    0.909495
     14          1           0        0.495095   -0.333274    1.858261
     15          7           0        0.401874   -1.341787    0.020471
     16          6           0       -0.844544   -1.177282   -0.260940
     17          1           0       -2.105168    2.024955    0.231350
     18          1           0        0.065146    2.766906    0.141500
     19          1           0        1.317482    0.359087   -1.706139
     20          1           0        1.955211    1.990226   -1.444419
     21          1           0        3.797224    0.307467   -1.807354
     22          1           0        3.905606    1.090511   -0.229430
     23          1           0        2.780574   -1.699705   -0.802927
     24          1           0        4.275540   -1.329249    0.060487
     25          1           0        2.396390   -1.916599    1.608663
     26          1           0        2.970847   -0.267392    1.893759
     27          1           0       -1.340624   -1.976727   -0.819908
 ---------------------------------------------------------------------
                    Distance matrix (angstroms):
                    1          2          3          4          5
     1  O    0.000000
     2  N    1.243001   0.000000
     3  O    2.204266   1.241158   0.000000
     4  C    2.331605   1.469179   2.308738   0.000000
     5  C    2.891328   2.384926   3.273763   1.359808   0.000000
     6  N    4.190442   3.690643   4.515304   2.430685   1.350870
     7  C    5.166226   4.521330   5.245706   3.070572   2.525948
     8  H    6.087495   5.414041   6.051956   3.999105   3.282187
     9  C    5.659413   5.241094   6.134128   3.845556   3.439700
    10  C    7.025201   6.492001   7.257784   5.062387   4.808730
    11  C    7.145865   6.415282   6.966693   5.022562   5.106007
    12  C    6.683187   5.768041   6.128740   4.390044   4.482855
    13  C    5.205794   4.295206   4.734398   2.891618   2.983583
    14  H    5.170175   4.121197   4.329314   2.869668   2.952276
    15  N    4.557702   3.686783   4.139219   2.459560   3.138541
    16  C    3.319449   2.457733   2.995895   1.447886   2.541469
    17  H    2.715792   2.514015   3.379068   2.101052   1.087419
    18  H    4.689565   4.391772   5.279852   3.284635   2.025531
    19  H    5.071594   4.746066   5.695189   3.462997   3.362328
    20  H    5.934884   5.698440   6.695567   4.390381   3.714703
    21  H    7.547057   7.136739   7.974891   5.769091   5.566640
    22  H    7.711003   7.149162   7.884360   5.690385   5.237382
    23  H    6.794464   6.110251   6.662317   4.826287   5.157801
    24  H    8.229208   7.472569   7.966231   6.089629   6.169495
    25  H    7.027194   6.014755   6.183981   4.767370   5.103948
    26  H    7.337512   6.413285   6.749713   5.018498   4.869168
    27  H    3.282355   2.572903   2.987189   2.149941   3.407552
                    6          7          8          9         10
     6  N    0.000000
     7  C    1.465181   0.000000
     8  H    2.038602   1.101759   0.000000
     9  C    2.510827   1.526183   2.134892   0.000000
    10  C    3.822931   2.494014   2.653785   1.533115   0.000000
    11  C    4.338144   2.913823   3.156426   2.534583   1.532825
    12  C    3.790578   2.469076   2.594140   2.946919   2.533737
    13  C    2.501283   1.533791   2.136622   2.508744   2.953676
    14  H    2.667388   2.160845   2.496386   3.459058   3.957846
    15  N    3.169150   2.521981   3.423762   2.951724   3.488749
    16  C    3.112099   3.065200   4.070514   3.572090   4.474046
    17  H    2.057117   3.448605   4.048297   4.323406   5.749690
    18  H    1.014830   2.080455   2.303245   2.810839   4.131803
    19  H    2.838679   2.153441   3.045240   1.095798   2.171528
    20  H    2.695408   2.160369   2.504256   1.098162   2.177654
    21  H    4.651405   3.447779   3.676808   2.162537   1.095818
    22  H    4.068075   2.769134   2.468845   2.157226   1.099059
    23  H    4.633332   3.356723   3.885749   2.828977   2.159411
    24  H    5.344755   3.890284   3.927311   3.483754   2.170525
    25  H    4.620618   3.427970   3.604954   3.940892   3.482264
    26  H    3.981807   2.695274   2.346516   3.342712   2.825069
    27  H    4.127721   4.100691   5.129019   4.391528   5.216018
                   11         12         13         14         15
    11  C    0.000000
    12  C    1.528088   0.000000
    13  C    2.513749   1.533829   0.000000
    14  H    3.468394   2.168186   1.100414   0.000000
    15  N    2.884730   2.398485   1.458820   2.098395   0.000000
    16  C    4.109821   3.614123   2.364205   2.645372   1.288337
    17  H    6.154754   5.515251   4.027329   3.869036   4.202937
    18  H    4.924299   4.514472   3.389429   3.569767   4.124244
    19  H    2.827331   3.346296   2.732231   3.722986   2.590847
    20  H    3.489089   3.940462   3.463622   4.293982   3.957406
    21  H    2.170347   3.480830   3.924956   4.975072   4.193970
    22  H    2.162936   2.837485   3.409452   4.244668   4.272547
    23  H    1.095504   2.142779   2.767239   3.764634   2.542499
    24  H    1.096619   2.161043   3.466546   4.302991   3.873893
    25  H    2.165504   1.095547   2.156367   2.486794   2.613591
    26  H    2.169927   1.098033   2.161273   2.476883   3.356062
    27  H    4.756582   4.422248   3.353198   3.639147   2.036096
                   16         17         18         19         20
    16  C    0.000000
    17  H    3.476470   0.000000
    18  H    4.067691   2.295392   0.000000
    19  H    3.020494   4.271242   3.283247   0.000000
    20  H    4.390029   4.392731   2.586642   1.770822   0.000000
    21  H    5.112914   6.476442   4.875990   2.482344   2.521192
    22  H    5.263821   6.100402   4.206783   3.068230   2.467737
    23  H    3.702453   6.230031   5.311883   2.682359   3.835143
    24  H    5.132414   7.210639   5.874732   3.836868   4.320599
    25  H    3.813877   6.139777   5.433460   4.163015   4.977874
    26  H    4.475247   5.812433   4.551974   4.010655   4.155933
    27  H    1.094373   4.207509   5.040094   3.647870   5.195118
                   21         22         23         24         25
    21  H    0.000000
    22  H    1.764865   0.000000
    23  H    2.463978   3.062663   0.000000
    24  H    2.529121   2.464983   1.765686   0.000000
    25  H    4.310217   3.833931   2.451613   2.504603   0.000000
    26  H    3.835570   2.688049   3.059386   2.488103   1.769510
    27  H    5.708771   6.105698   4.130532   5.721505   4.457224
                   26         27
    26  H    0.000000
    27  H    5.373509   0.000000
 Symmetry turned off by external request.
 Stoichiometry    C9H13N3O2
 Framework group  C1[X(C9H13N3O2)]
 Deg. of freedom    75
 Full point group                 C1      NOp   1
 Rotational constants (GHZ):           1.6667787           0.4160049           0.3781285
 Standard basis: 6-31G(d) (6D, 7F)
   236 basis functions,   444 primitive gaussians,   236 cartesian basis functions
    52 alpha electrons       52 beta electrons
       nuclear repulsion energy       930.2571356942 Hartrees.
 NAtoms=   27 NActive=   27 NUniq=   27 SFac= 1.00D+00 NAtFMM=   60 NAOKFM=F Big=F
 Integral buffers will be    131072 words long.
 Raffenetti 1 integral format.
 Two-electron integral symmetry is turned off.
 One-electron integrals computed using PRISM.
 NBasis=   236 RedAO= T EigKep=  1.54D-03  NBF=   236
 NBsUse=   236 1.00D-06 EigRej= -1.00D+00 NBFU=   236
 Initial guess from the checkpoint file:  "/home/alexey/tmp/Gau-1147892.chk"
 B after Tr=     0.035349    0.003652    0.002430
         Rot=    0.999998    0.001372    0.001013    0.001187 Ang=   0.24 deg.
 ExpMin= 1.61D-01 ExpMax= 5.48D+03 ExpMxC= 8.25D+02 IAcc=3 IRadAn=         5 AccDes= 0.00D+00
 Harris functional with IExCor=  205 and IRadAn=       5 diagonalized for initial guess.
 HarFok:  IExCor=  205 AccDes= 0.00D+00 IRadAn=         5 IDoV= 1 UseB2=F ITyADJ=14
 ICtDFT=  3500011 ScaDFX=  1.000000  1.000000  1.000000  1.000000
 FoFCou: FMM=F IPFlag=           0 FMFlag=      100000 FMFlg1=           0
         NFxFlg=           0 DoJE=T BraDBF=F KetDBF=T FulRan=T
         wScrn=  0.000000 ICntrl=       500 IOpCl=  0 I1Cent=   200000004 NGrid=           0
         NMat0=    1 NMatS0=      1 NMatT0=    0 NMatD0=    1 NMtDS0=    0 NMtDT0=    0
 Symmetry not used in FoFCou.
 Keep R1 ints in memory in canonical form, NReq=397720213.
 Requested convergence on RMS density matrix=1.00D-08 within 128 cycles.
 Requested convergence on MAX density matrix=1.00D-06.
 Requested convergence on             energy=1.00D-06.
 No special actions if energy rises.
 SCF Done:  E(RHF) =  -661.282351914     A.U. after   15 cycles
            NFock= 15  Conv=0.73D-08     -V/T= 2.0025
 ExpMin= 1.61D-01 ExpMax= 5.48D+03 ExpMxC= 8.25D+02 IAcc=3 IRadAn=         5 AccDes= 0.00D+00
 HarFok:  IExCor=  205 AccDes= 0.00D+00 IRadAn=         5 IDoV=-2 UseB2=F ITyADJ=14
 ICtDFT= 12500011 ScaDFX=  1.000000  1.000000  1.000000  1.000000
 Range of M.O.s used for correlation:    15   236
 NBasis=   236 NAE=    52 NBE=    52 NFC=    14 NFV=     0
 NROrb=    222 NOA=    38 NOB=    38 NVA=   184 NVB=   184
 Fully direct method using O(ONN) memory.
 JobTyp=1 Pass  1:  I=  15 to  52 NPSUse=  4 ParTrn=T ParDer=T DoDerP=T.
 Spin components of T(2) and E(2):
     alpha-alpha T2 =       0.9141783967D-01 E2=     -0.2724687122D+00
     alpha-beta  T2 =       0.4962762085D+00 E2=     -0.1493165740D+01
     beta-beta   T2 =       0.9141783967D-01 E2=     -0.2724687122D+00
 ANorm=    0.1295805498D+01
 E2 =    -0.2038103165D+01 EUMP2 =    -0.66332045507875D+03
          IDoAtm=111111111111111111111111111
          Differentiating once with respect to electric field.
                with respect to dipole field.
          Differentiating once with respect to nuclear coordinates.
 Keep R1 ints in memory in canonical form, NReq=397723379.
          There are     1 degrees of freedom in the 1st order CPHF.  IDoFFX=0 NUNeed=     1.
 LinEq1:  Iter=  0 NonCon=     1 RMS=4.50D-03 Max=1.08D-01 NDo=     1
 AX will form     1 AO Fock derivatives at one time.
 LinEq1:  Iter=  1 NonCon=     1 RMS=1.50D-03 Max=3.03D-02 NDo=     1
 LinEq1:  Iter=  2 NonCon=     1 RMS=6.38D-04 Max=1.70D-02 NDo=     1
 LinEq1:  Iter=  3 NonCon=     1 RMS=2.79D-04 Max=4.01D-03 NDo=     1
 LinEq1:  Iter=  4 NonCon=     1 RMS=8.48D-05 Max=1.17D-03 NDo=     1
 LinEq1:  Iter=  5 NonCon=     1 RMS=3.30D-05 Max=8.90D-04 NDo=     1
[...]
    27  H    4.735489   4.421285   3.355327   3.640554   2.033302
                   16         17         18         19         20
    16  C    0.000000
    17  H    3.463171   0.000000
    18  H    4.101496   2.239684   0.000000
    19  H    2.996396   4.235378   3.518570   0.000000
    20  H    4.381071   4.383346   2.886470   1.767994   0.000000
    21  H    5.098770   6.461816   5.091278   2.499827   2.521322
    22  H    5.249549   6.082988   4.315592   3.070419   2.461795
    23  H    3.692146   6.215706   5.427179   2.705396   3.843347
    24  H    5.130523   7.198748   5.940567   3.850298   4.317204
    25  H    3.818304   6.129540   5.373175   4.174056   4.985124
    26  H    4.489519   5.819158   4.480931   4.032451   4.176710
    27  H    1.093845   4.202963   5.101789   3.612407   5.174712
                   21         22         23         24         25
    21  H    0.000000
    22  H    1.758867   0.000000
    23  H    2.469961   3.062172   0.000000
    24  H    2.517209   2.459491   1.764463   0.000000
    25  H    4.311990   3.836965   2.446079   2.518453   0.000000
    26  H    3.843897   2.699717   3.060669   2.493480   1.767933
    27  H    5.676967   6.078033   4.103002   5.704137   4.453462
                   26         27
    26  H    0.000000
    27  H    5.378918   0.000000
 Symmetry turned off by external request.
 Stoichiometry    C9H13N3O2
 Framework group  C1[X(C9H13N3O2)]
 Deg. of freedom    75
 Full point group                 C1      NOp   1
 Rotational constants (GHZ):           1.6487840           0.4192186           0.3794930

 **********************************************************************

            Population analysis using the SCF Density.

 **********************************************************************

 Alpha  occ. eigenvalues --  -20.60373 -20.60317 -15.84715 -15.63158 -15.56204
 Alpha  occ. eigenvalues --  -11.34660 -11.30202 -11.29275 -11.28473 -11.26996
 Alpha  occ. eigenvalues --  -11.23397 -11.22987 -11.22546 -11.21936  -1.57557
 Alpha  occ. eigenvalues --   -1.37308  -1.30268  -1.23122  -1.14675  -1.09786
 Alpha  occ. eigenvalues --   -1.02554  -1.01046  -0.94489  -0.89725  -0.85303
 Alpha  occ. eigenvalues --   -0.82593  -0.78343  -0.77846  -0.74963  -0.72010
 Alpha  occ. eigenvalues --   -0.70834  -0.68626  -0.66923  -0.65232  -0.63406
 Alpha  occ. eigenvalues --   -0.62318  -0.60212  -0.57466  -0.56816  -0.54998
 Alpha  occ. eigenvalues --   -0.54459  -0.51134  -0.50317  -0.48861  -0.48196
 Alpha  occ. eigenvalues --   -0.47843  -0.46204  -0.45893  -0.43665  -0.41509
 Alpha  occ. eigenvalues --   -0.40081  -0.33196
 Alpha virt. eigenvalues --    0.08511   0.10453   0.17454   0.21465   0.23532
 Alpha virt. eigenvalues --    0.24806   0.26261   0.28126   0.29162   0.29269
 Alpha virt. eigenvalues --    0.29497   0.31655   0.32104   0.32862   0.33991
 Alpha virt. eigenvalues --    0.34446   0.35668   0.37383   0.38810   0.40011
 Alpha virt. eigenvalues --    0.41430   0.42562   0.44586   0.45875   0.46966
 Alpha virt. eigenvalues --    0.47984   0.49691   0.53658   0.57670   0.58271
 Alpha virt. eigenvalues --    0.60548   0.69726   0.70043   0.73005   0.74323
 Alpha virt. eigenvalues --    0.75068   0.75873   0.76502   0.78659   0.79198
 Alpha virt. eigenvalues --    0.80596   0.84132   0.85215   0.86091   0.88412
 Alpha virt. eigenvalues --    0.89524   0.89957   0.91964   0.92765   0.93512
 Alpha virt. eigenvalues --    0.95132   0.97794   0.98963   1.01779   1.02023
 Alpha virt. eigenvalues --    1.04263   1.06024   1.06183   1.07952   1.09084
 Alpha virt. eigenvalues --    1.10544   1.10905   1.11809   1.12360   1.13304
 Alpha virt. eigenvalues --    1.13888   1.14438   1.15707   1.16180   1.16388
 Alpha virt. eigenvalues --    1.17602   1.19147   1.19411   1.21940   1.23613
 Alpha virt. eigenvalues --    1.23800   1.24940   1.25273   1.27474   1.29641
 Alpha virt. eigenvalues --    1.30354   1.32040   1.34081   1.35561   1.37514
 Alpha virt. eigenvalues --    1.40496   1.42936   1.43521   1.50803   1.53108
 Alpha virt. eigenvalues --    1.55839   1.56737   1.61077   1.63568   1.65761
 Alpha virt. eigenvalues --    1.67978   1.70815   1.73580   1.73754   1.76085
 Alpha virt. eigenvalues --    1.78998   1.82992   1.87714   1.91260   1.92074
 Alpha virt. eigenvalues --    1.93159   1.96358   1.99742   2.01082   2.02505
 Alpha virt. eigenvalues --    2.04341   2.05224   2.07443   2.10671   2.12353
 Alpha virt. eigenvalues --    2.14990   2.15984   2.17523   2.20572   2.22155
 Alpha virt. eigenvalues --    2.22743   2.25434   2.27363   2.28263   2.29758
 Alpha virt. eigenvalues --    2.31479   2.33030   2.34258   2.37019   2.37471
 Alpha virt. eigenvalues --    2.38542   2.41090   2.42097   2.45792   2.47225
 Alpha virt. eigenvalues --    2.50050   2.52015   2.54222   2.55097   2.62079
 Alpha virt. eigenvalues --    2.62413   2.64177   2.67583   2.70507   2.70921
 Alpha virt. eigenvalues --    2.72554   2.73708   2.75363   2.78247   2.82490
 Alpha virt. eigenvalues --    2.87751   2.90409   2.92279   2.95496   2.97720
 Alpha virt. eigenvalues --    2.99574   3.02035   3.04982   3.06328   3.08869
 Alpha virt. eigenvalues --    3.09304   3.15654   3.19700   3.21536   3.24293
 Alpha virt. eigenvalues --    3.31534   3.36778   3.38905   3.43855   3.62971
 Alpha virt. eigenvalues --    4.11404   4.17932   4.28789   4.36069   4.48135
 Alpha virt. eigenvalues --    4.55989   4.62231   4.63964   4.73910   4.79031
 Alpha virt. eigenvalues --    4.99410   5.01111   5.05268   5.11342
          Condensed to atoms (all electrons):
               1          2          3          4          5          6
     1  O    8.309168   0.296107  -0.077048  -0.090360   0.008531   0.000203
     2  N    0.296107   5.829030   0.287541   0.233004  -0.049424   0.001584
     3  O   -0.077048   0.287541   8.300943  -0.077972   0.001997  -0.000030
     4  C   -0.090360   0.233004  -0.077972   5.229482   0.568303  -0.050577
     5  C    0.008531  -0.049424   0.001997   0.568303   4.652644   0.330770
     6  N    0.000203   0.001584  -0.000030  -0.050577   0.330770   7.187854
     7  C   -0.000006  -0.000111   0.000006   0.004431  -0.032006   0.179793
     8  H    0.000000   0.000002  -0.000000  -0.000265   0.003424  -0.049828
     9  C   -0.000000  -0.000006  -0.000000   0.000909   0.000771  -0.064219
    10  C    0.000000   0.000000   0.000000  -0.000046  -0.000061   0.003839
    11  C   -0.000000  -0.000000   0.000000  -0.000026   0.000025  -0.000186
    12  C    0.000000   0.000002  -0.000000  -0.000120  -0.000192   0.003750
    13  C    0.000004  -0.000069  -0.000023  -0.011913  -0.000820  -0.048460
    14  H    0.000001  -0.000095  -0.000012   0.002795   0.005543  -0.006602
    15  N   -0.000033   0.002369   0.000046  -0.067463  -0.006312   0.002655
    16  C    0.002434  -0.030537   0.001643   0.325235  -0.037501  -0.003682
    17  H    0.005036  -0.003616   0.000006  -0.035409   0.389819  -0.034459
    18  H    0.000004  -0.000073   0.000001   0.001998  -0.028247   0.337270
    19  H    0.000001  -0.000006   0.000000  -0.001385   0.001174  -0.000166
    20  H    0.000000  -0.000000  -0.000000  -0.000071   0.000121  -0.000052
    21  H   -0.000000   0.000000   0.000000   0.000001   0.000001  -0.000080
    22  H    0.000000   0.000000  -0.000000  -0.000000  -0.000003  -0.000113
    23  H    0.000000  -0.000000  -0.000000   0.000040  -0.000001  -0.000030
    24  H    0.000000   0.000000  -0.000000   0.000000  -0.000000   0.000006
    25  H    0.000000  -0.000000   0.000000   0.000023   0.000000  -0.000088
    26  H    0.000000  -0.000000  -0.000000   0.000006  -0.000002  -0.000057
    27  H    0.000296  -0.000002   0.001543  -0.076414   0.002142   0.000017
               7          8          9         10         11         12
     1  O   -0.000006   0.000000  -0.000000   0.000000  -0.000000   0.000000
     2  N   -0.000111   0.000002  -0.000006   0.000000  -0.000000   0.000002
     3  O    0.000006  -0.000000  -0.000000   0.000000   0.000000  -0.000000
     4  C    0.004431  -0.000265   0.000909  -0.000046  -0.000026  -0.000120
     5  C   -0.032006   0.003424   0.000771  -0.000061   0.000025  -0.000192
     6  N    0.179793  -0.049828  -0.064219   0.003839  -0.000186   0.003750
     7  C    5.012273   0.417839   0.352877  -0.054728  -0.008895  -0.060542
     8  H    0.417839   0.539868  -0.055246   0.000618  -0.000290  -0.002399
     9  C    0.352877  -0.055246   5.157526   0.324617  -0.050407  -0.005091
    10  C   -0.054728   0.000618   0.324617   5.119634   0.336986  -0.061212
    11  C   -0.008895  -0.000290  -0.050407   0.336986   5.120325   0.335878
    12  C   -0.060542  -0.002399  -0.005091  -0.061212   0.335878   5.118727
    13  C    0.336177  -0.037481  -0.062500   0.000164  -0.051099   0.370602
    14  H   -0.046508  -0.000779   0.004415  -0.000400   0.004170  -0.035841
    15  N   -0.058363   0.003782  -0.013706   0.001626  -0.013256  -0.081868
    16  C   -0.003306   0.000043  -0.001149  -0.000044   0.000011   0.003023
    17  H    0.002162  -0.000069  -0.000077   0.000001   0.000000   0.000000
    18  H   -0.021909  -0.004628   0.001437  -0.000084   0.000004  -0.000113
    19  H   -0.037092   0.004352   0.390785  -0.032473  -0.002230   0.000701
    20  H   -0.042435  -0.002003   0.399347  -0.035333   0.003939  -0.000414
    21  H    0.004593  -0.000079  -0.036242   0.402218  -0.035049   0.004382
    22  H   -0.004846   0.003591  -0.046873   0.397655  -0.045459  -0.001102
    23  H    0.000565   0.000035  -0.001941  -0.039066   0.399315  -0.038006
    24  H   -0.000138  -0.000103   0.004376  -0.038417   0.402311  -0.038718
    25  H    0.005104  -0.000016  -0.000436   0.004210  -0.033566   0.398471
    26  H   -0.003976   0.001667   0.000983  -0.002276  -0.041355   0.396823
    27  H   -0.000429   0.000010  -0.000064   0.000007   0.000012  -0.000044
              13         14         15         16         17         18
     1  O    0.000004   0.000001  -0.000033   0.002434   0.005036   0.000004
     2  N   -0.000069  -0.000095   0.002369  -0.030537  -0.003616  -0.000073
     3  O   -0.000023  -0.000012   0.000046   0.001643   0.000006   0.000001
     4  C   -0.011913   0.002795  -0.067463   0.325235  -0.035409   0.001998
     5  C   -0.000820   0.005543  -0.006312  -0.037501   0.389819  -0.028247
     6  N   -0.048460  -0.006602   0.002655  -0.003682  -0.034459   0.337270
     7  C    0.336177  -0.046508  -0.058363  -0.003306   0.002162  -0.021909
     8  H   -0.037481  -0.000779   0.003782   0.000043  -0.000069  -0.004628
     9  C   -0.062500   0.004415  -0.013706  -0.001149  -0.000077   0.001437
    10  C    0.000164  -0.000400   0.001626  -0.000044   0.000001  -0.000084
    11  C   -0.051099   0.004170  -0.013256   0.000011   0.000000   0.000004
    12  C    0.370602  -0.035841  -0.081868   0.003023   0.000000  -0.000113
    13  C    5.042088   0.404153   0.252168  -0.072110  -0.000067   0.002908
    14  H    0.404153   0.523275  -0.038127  -0.005029   0.000080  -0.000126
    15  N    0.252168  -0.038127   6.932884   0.609923  -0.000046  -0.000141
    16  C   -0.072110  -0.005029   0.609923   4.674006   0.001998  -0.000172
    17  H   -0.000067   0.000080  -0.000046   0.001998   0.418053  -0.003273
    18  H    0.002908  -0.000126  -0.000141  -0.000172  -0.003273   0.313458
    19  H   -0.007325   0.000103   0.007201   0.002881   0.000016  -0.000153
    20  H    0.004419  -0.000066   0.000125  -0.000039  -0.000001   0.000769
    21  H   -0.000457   0.000010  -0.000047   0.000004  -0.000000   0.000001
    22  H    0.000066  -0.000053   0.000021  -0.000002  -0.000000   0.000001
    23  H   -0.007528   0.000003   0.008429   0.000107   0.000000   0.000000
    24  H    0.004712  -0.000057   0.000128   0.000008   0.000000  -0.000000
    25  H   -0.035731  -0.002840   0.000353  -0.000008  -0.000000   0.000002
    26  H   -0.047159  -0.001014   0.004853  -0.000075   0.000000  -0.000000
    27  H    0.005466  -0.000185  -0.037846   0.407715  -0.000095   0.000001
              19         20         21         22         23         24
     1  O    0.000001   0.000000  -0.000000   0.000000   0.000000   0.000000
     2  N   -0.000006  -0.000000   0.000000   0.000000  -0.000000   0.000000
     3  O    0.000000  -0.000000   0.000000  -0.000000  -0.000000  -0.000000
     4  C   -0.001385  -0.000071   0.000001  -0.000000   0.000040   0.000000
     5  C    0.001174   0.000121   0.000001  -0.000003  -0.000001  -0.000000
     6  N   -0.000166  -0.000052  -0.000080  -0.000113  -0.000030   0.000006
     7  C   -0.037092  -0.042435   0.004593  -0.004846   0.000565  -0.000138
     8  H    0.004352  -0.002003  -0.000079   0.003591   0.000035  -0.000103
     9  C    0.390785   0.399347  -0.036242  -0.046873  -0.001941   0.004376
    10  C   -0.032473  -0.035333   0.402218   0.397655  -0.039066  -0.038417
    11  C   -0.002230   0.003939  -0.035049  -0.045459   0.399315   0.402311
    12  C    0.000701  -0.000414   0.004382  -0.001102  -0.038006  -0.038718
    13  C   -0.007325   0.004419  -0.000457   0.000066  -0.007528   0.004712
    14  H    0.000103  -0.000066   0.000010  -0.000053   0.000003  -0.000057
    15  N    0.007201   0.000125  -0.000047   0.000021   0.008429   0.000128
    16  C    0.002881  -0.000039   0.000004  -0.000002   0.000107   0.000008
    17  H    0.000016  -0.000001  -0.000000  -0.000000   0.000000   0.000000
    18  H   -0.000153   0.000769   0.000001   0.000001   0.000000  -0.000000
    19  H    0.506389  -0.024663  -0.002795   0.003982   0.001521  -0.000068
    20  H   -0.024663   0.541109  -0.002734  -0.002979  -0.000046  -0.000083
    21  H   -0.002795  -0.002734   0.525516  -0.027548  -0.002909  -0.002256
    22  H    0.003982  -0.002979  -0.027548   0.572114   0.004152  -0.003654
    23  H    0.001521  -0.000046  -0.002909   0.004152   0.500429  -0.025608
    24  H   -0.000068  -0.000083  -0.002256  -0.003654  -0.025608   0.539141
    25  H   -0.000028   0.000013  -0.000088  -0.000080  -0.002301  -0.002318
    26  H    0.000020  -0.000031  -0.000080   0.002388   0.004069  -0.003017
    27  H    0.000102   0.000000  -0.000000   0.000000  -0.000035  -0.000000
              25         26         27
     1  O    0.000000   0.000000   0.000296
     2  N   -0.000000  -0.000000  -0.000002
     3  O    0.000000  -0.000000   0.001543
     4  C    0.000023   0.000006  -0.076414
     5  C    0.000000  -0.000002   0.002142
     6  N   -0.000088  -0.000057   0.000017
     7  C    0.005104  -0.003976  -0.000429
     8  H   -0.000016   0.001667   0.000010
     9  C   -0.000436   0.000983  -0.000064
    10  C    0.004210  -0.002276   0.000007
    11  C   -0.033566  -0.041355   0.000012
    12  C    0.398471   0.396823  -0.000044
    13  C   -0.035731  -0.047159   0.005466
    14  H   -0.002840  -0.001014  -0.000185
    15  N    0.000353   0.004853  -0.037846
    16  C   -0.000008  -0.000075   0.407715
    17  H   -0.000000   0.000000  -0.000095
    18  H    0.000002  -0.000000   0.000001
    19  H   -0.000028   0.000020   0.000102
    20  H    0.000013  -0.000031   0.000000
    21  H   -0.000088  -0.000080  -0.000000
    22  H   -0.000080   0.002388   0.000000
    23  H   -0.002301   0.004069  -0.000035
    24  H   -0.002318  -0.003017  -0.000000
    25  H    0.507389  -0.024170  -0.000013
    26  H   -0.024170   0.561846   0.000001
    27  H   -0.000013   0.000001   0.468332
 Mulliken charges:
               1
     1  O   -0.454338
     2  N    0.434299
     3  O   -0.438642
     4  C    0.045795
     5  C    0.189307
     6  N   -0.789113
     7  C    0.059471
     8  H    0.177958
     9  C   -0.300085
    10  C   -0.327432
    11  C   -0.321158
    12  C   -0.306697
    13  C   -0.040184
    14  H    0.193184
    15  N   -0.509357
    16  C    0.124622
    17  H    0.259940
    18  H    0.401066
    19  H    0.189155
    20  H    0.161108
    21  H    0.173635
    22  H    0.148744
    23  H    0.198805
    24  H    0.163756
    25  H    0.186119
    26  H    0.150555
    27  H    0.229485
 Sum of Mulliken charges =  -0.00000
 Mulliken charges with hydrogens summed into heavy atoms:
               1
     1  O   -0.454338
     2  N    0.434299
     3  O   -0.438642
     4  C    0.045795
     5  C    0.449247
     6  N   -0.388047
     7  C    0.237429
     9  C    0.050179
    10  C   -0.005054
    11  C    0.041403
    12  C    0.029977
    13  C    0.153000
    15  N   -0.509357
    16  C    0.354108
 Electronic spatial extent (au):  <R**2>=           2984.5595
 Charge=             -0.0000 electrons
 Dipole moment (field-independent basis, Debye):
    X=              4.6966    Y=              4.7011    Z=              1.2240  Tot=              6.7570
 Quadrupole moment (field-independent basis, Debye-Ang):
   XX=           -102.5236   YY=            -76.7816   ZZ=            -85.1037
   XY=             -2.6849   XZ=             -1.4224   YZ=              4.5802
 Traceless Quadrupole moment (field-independent basis, Debye-Ang):
   XX=            -14.3873   YY=             11.3547   ZZ=              3.0326
   XY=             -2.6849   XZ=             -1.4224   YZ=              4.5802
 Octapole moment (field-independent basis, Debye-Ang**2):
  XXX=             71.5094  YYY=             34.6288  ZZZ=              0.8707  XYY=            -14.3854
  XXY=             16.9678  XXZ=             10.9869  XZZ=              0.9448  YZZ=             -1.7680
  YYZ=              3.2337  XYZ=            -10.0576
 Hexadecapole moment (field-independent basis, Debye-Ang**3):
 XXXX=          -3258.8041 YYYY=           -553.0525 ZZZZ=           -362.8951 XXXY=            -65.0270
 XXXZ=            -61.0194 YYYX=             -5.7065 YYYZ=             59.9602 ZZZX=            -28.4517
 ZZZY=             43.3199 XXYY=           -583.1970 XXZZ=           -564.7132 YYZZ=           -163.3530
 XXYZ=             46.8175 YYXZ=              2.5514 ZZXY=              3.8188
 N-N= 9.307825725494D+02 E-N=-3.408235933158D+03  KE= 6.596034302997D+02
 Unable to Open any file for archive entry.
 1\1\GINC-LOTUS\FOpt\RMP2-FC\6-31G(d)\C9H13N3O2\ALEXEY\30-Jun-2023\0\\#
 MP2/6-31G* SCF=Tight Opt=(ModRedun, MaxCycle=20 ) NoSymm\\MolName:\\0,
 1\O,-3.642819324,0.3678035405,-1.124393653\N,-3.101549871,-0.225788322
 8,-0.1699405062\O,-3.6672605648,-1.0729903286,0.5502234233\C,-1.677874
 3434,-0.0259508766,0.0670846513\C,-1.3009995366,1.2819851833,0.1933622
 427\N,-0.0554001756,1.7830515403,0.3047069825\C,1.2019388145,1.0502499
 675,0.3143753988\H,1.8640172017,1.6258336661,0.9785725496\C,1.88313055
 36,0.9572611504,-1.0504825461\C,3.2850757091,0.36453877,-0.8679111844\
 C,3.2511348799,-0.9801809716,-0.1371021041\C,2.4812506848,-0.890800752
 2,1.1819298866\C,1.0648781403,-0.3617902708,0.9273269474\H,0.501842225
 4,-0.2726520623,1.8697287408\N,0.4067869587,-1.3319183251,0.0571326353
 \C,-0.8470855533,-1.1722615849,-0.2202088737\H,-2.0902902483,2.0306435
 522,0.2149833899\H,0.0049002808,2.7800512622,0.4694407531\H,1.27604993
 01,0.3278519157,-1.7102916651\H,1.9402839383,1.9535569687,-1.506136930
 1\H,3.7711868027,0.2533459251,-1.8439891068\H,3.8957643895,1.076646328
 2,-0.2947086526\H,2.761537815,-1.7279218552,-0.7688646512\H,4.27402779
 21,-1.3293345871,0.0477336815\H,2.4077207005,-1.8795017819,1.646738705
 2\H,3.0021376289,-0.2324666197,1.8907258407\H,-1.3333848289,-1.9852814
 311,-0.7670259554\\Version=ES64L-G16RevC.02\HF=-661.2838277\MP2=-663.3
 239402\RMSD=7.663e-09\RMSF=1.859e-03\Dipole=1.7249827,1.6662222,0.4379
 825\PG=C01 [X(C9H13N3O2)]\\@
 The archive entry for this job was punched.


 "PERFECTION IS NOT AN ACCIDENT"
         --  EAGLE ELECTRIC MANUFACTURING CO.,INC. NY
 Job cpu time:       0 days  1 hours 19 minutes  7.0 seconds.
 Elapsed time:       0 days  0 hours 23 minutes 53.0 seconds.
 File lengths (MBytes):  RWF=     36 Int=      0 D2E=      0 Chk=      7 Scr=      1
 Normal termination of Gaussian 16 at Fri Jun 30 13:22:09 2023.
