 Entering Gaussian System, Link 0=g16
 Initial command:
 /home/alexey/programs//g16/l1.exe "/home/alexey/tmp/Gau-1144423.inp" -scrdir="/home/alexey/tmp/"
 Entering Link 1 = /home/alexey/programs//g16/l1.exe PID=   1144425.
  
 Copyright (c) 1988-2021, Gaussian, Inc.  All Rights Reserved.
  
 This is part of the Gaussian(R) 16 program.  It is based on
 the Gaussian(R) 09 system (copyright 2009, Gaussian, Inc.),
 the Gaussian(R) 03 system (copyright 2003, Gaussian, Inc.),
 the Gaussian(R) 98 system (copyright 1998, Gaussian, Inc.),
 the Gaussian(R) 94 system (copyright 1995, Gaussian, Inc.),
 the Gaussian 92(TM) system (copyright 1992, Gaussian, Inc.),
 the Gaussian 90(TM) system (copyright 1990, Gaussian, Inc.),
 the Gaussian 88(TM) system (copyright 1988, Gaussian, Inc.),
 the Gaussian 86(TM) system (copyright 1986, Carnegie Mellon
 University), and the Gaussian 82(TM) system (copyright 1983,
 Carnegie Mellon University). Gaussian is a federally registered
 trademark of Gaussian, Inc.
  
 This software contains proprietary and confidential information,
 including trade secrets, belonging to Gaussian, Inc.
  
 This software is provided under written license and may be
 used, copied, transmitted, or stored only in accord with that
 written license.
  
 The following legend is applicable only to US Government
 contracts under FAR:
  
                    RESTRICTED RIGHTS LEGEND
  
 Use, reproduction and disclosure by the US Government is
 subject to restrictions as set forth in subparagraphs (a)
 and (c) of the Commercial Computer Software - Restricted
 Rights clause in FAR 52.227-19.
  
 Gaussian, Inc.
 340 Quinnipiac St., Bldg. 40, Wallingford CT 06492
  
  
 ---------------------------------------------------------------
 Warning -- This program may not be used in any manner that
 competes with the business of Gaussian, Inc. or will provide
 assistance to any competitor of Gaussian, Inc.  The licensee
 of this program is prohibited from giving any competitor of
 Gaussian, Inc. access to this program.  By using this program,
 the user acknowledges that Gaussian, Inc. is engaged in the
 business of creating and licensing software in the field of
 computational chemistry and represents and warrants to the
 licensee that it is not a competitor of Gaussian, Inc. and that
 it will not use this program in any manner prohibited above.
 ---------------------------------------------------------------
  

 Cite this work as:
 Gaussian 16, Revision C.02,
 M. J. Frisch, G. W. Trucks, H. B. Schlegel, G. E. Scuseria, 
 M. A. Robb, J. R. Cheeseman, G. Scalmani, V. Barone, 
 G. A. Petersson, H. Nakatsuji, X. Li, M. Caricato, A. V. Marenich, 
 J. Bloino, B. G. Janesko, R. Gomperts, B. Mennucci, H. P. Hratchian, 
 J. V. Ortiz, A. F. Izmaylov, J. L. Sonnenberg, D. Williams-Young, 
 F. Ding, F. Lipparini, F. Egidi, J. Goings, B. Peng, A. Petrone, 
 T. Henderson, D. Ranasinghe, V. G. Zakrzewski, J. Gao, N. Rega, 
 G. Zheng, W. Liang, M. Hada, M. Ehara, K. Toyota, R. Fukuda, 
 J. Hasegawa, M. Ishida, T. Nakajima, Y. Honda, O. Kitao, H. Nakai, 
 T. Vreven, K. Throssell, J. A. Montgomery, Jr., J. E. Peralta, 
 F. Ogliaro, M. J. Bearpark, J. J. Heyd, E. N. Brothers, K. N. Kudin, 
 V. N. Staroverov, T. A. Keith, R. Kobayashi, J. Normand, 
 K. Raghavachari, A. P. Rendell, J. C. Burant, S. S. Iyengar, 
 J. Tomasi, M. Cossi, J. M. Millam, M. Klene, C. Adamo, R. Cammi, 
 J. W. Ochterski, R. L. Martin, K. Morokuma, O. Farkas, 
 J. B. Foresman, and D. J. Fox, Gaussian, Inc., Wallingford CT, 2019.
 
 ******************************************
 Gaussian 16:  ES64L-G16RevC.02  7-Dec-2021
                30-Jun-2023 
 ******************************************
 %mem=8GB
 %NPROCS=4
 Will use up to    4 processors via shared memory.
 %NoSave
 ---------------------------------------------------------
 #MP2/6-31G* SCF=Tight Opt=(ModRedun, MaxCycle=20 ) NoSymm
 ---------------------------------------------------------
 1/6=20,18=120,19=15,38=1/1,3;
 2/9=110,12=2,15=1,17=6,18=5,40=1/2;
 3/5=1,6=6,7=1,11=9,25=1,30=1,71=1/1,2,3;
 4//1;
 5/5=2,32=2,38=5/2;
 8/6=4,10=2/1;
 9/15=2,16=-3/6;
 10/5=1,31=1/2;
 6/7=2,8=2,9=2,10=2/1;
 7/12=2,30=1/1,2,3,16;
 1/6=20,18=20,19=15/3(2);
 2/9=110,15=1/2;
 99//99;
 2/9=110,15=1/2;
 3/5=1,6=6,7=1,11=9,25=1,30=1,71=1/1,2,3;
 4/5=5,16=3,69=1/1;
 5/5=2,32=2,38=5/2;
 8/6=4,10=2/1;
 9/15=2,16=-3/6;
 10/5=1,31=1/2;
 7/12=2,30=1/1,2,3,16;
 1/6=20,18=20,19=15/3(-8);
 2/9=110,15=1/2;
 6/7=2,8=2,9=2,10=2/1;
 99/9=10/99;
 --------
 MolName:
 --------
 Symbolic Z-matrix:
 Charge =  0 Multiplicity = 1
 8                    0    -3.76395   0.09972  -1.12404 
 7                    0    -3.19208  -0.2284   -0.08756 
 8                    0    -3.68028  -0.8574    0.84675 
 6                    0    -1.73188   0.00643  -0.03489 
 6                    0    -1.37503   1.33446   0.17741 
 7                    0    -0.09209   1.78986   0.32866 
 6                    0     1.18738   1.0145    0.32946 
 1                    0     1.8627    1.55942   1.03881 
 6                    0     1.92853   0.97956  -1.03046 
 6                    0     3.34547   0.40946  -0.82794 
 6                    0     3.29871  -0.96506  -0.14196 
 6                    0     2.47309  -0.9167    1.1616 
 6                    0     1.02981  -0.40455   0.90234 
 1                    0     0.49566  -0.38026   1.88111 
 7                    0     0.36138  -1.34589  -0.00284 
 6                    0    -0.88618  -1.17575  -0.29281 
 1                    0    -2.17948   2.08219   0.27944 
 1                    0     0.14645   2.76533   0.13422 
 1                    0     1.36721   0.35221  -1.7553 
 1                    0     2.00509   2.00445  -1.45161 
 1                    0     3.86322   0.32336  -1.8083 
 1                    0     3.93234   1.10812  -0.19068 
 1                    0     2.84147  -1.70292  -0.83924 
 1                    0     4.33163  -1.3113    0.08044 
 1                    0     2.42605  -1.93625   1.60324 
 1                    0     2.97679  -0.25301   1.8952 
 1                    0    -1.415    -1.9866   -0.81703 
 
 The following ModRedundant input section has been read:
 D       1       2       4      16 F                                           
 D       7      13      15      16 F                                           
 D       7       9      10      11 F                                           
 D       9      10      11      12 F                                           
 D       6       7      13      15 F                                           
 

 GradGradGradGradGradGradGradGradGradGradGradGradGradGradGradGradGradGrad
 Berny optimization.
 Initialization pass.
                           ----------------------------
                           !    Initial Parameters    !
                           ! (Angstroms and Degrees)  !
 --------------------------                            --------------------------
 ! Name  Definition              Value          Derivative Info.                !
 --------------------------------------------------------------------------------
 ! R1    R(1,2)                  1.2284         estimate D2E/DX2                !
 ! R2    R(2,3)                  1.2276         estimate D2E/DX2                !
 ! R3    R(2,4)                  1.4799         estimate D2E/DX2                !
 ! R4    R(4,5)                  1.3914         estimate D2E/DX2                !
 ! R5    R(4,16)                 1.4762         estimate D2E/DX2                !
 ! R6    R(5,6)                  1.3697         estimate D2E/DX2                !
 ! R7    R(5,17)                 1.103          estimate D2E/DX2                !
 ! R8    R(6,7)                  1.4961         estimate D2E/DX2                !
 ! R9    R(6,18)                 1.0229         estimate D2E/DX2                !
 ! R10   R(7,8)                  1.1208         estimate D2E/DX2                !
 ! R11   R(7,9)                  1.5492         estimate D2E/DX2                !
 ! R12   R(7,13)                 1.5384         estimate D2E/DX2                !
 ! R13   R(9,10)                 1.5407         estimate D2E/DX2                !
 ! R14   R(9,19)                 1.1109         estimate D2E/DX2                !
 ! R15   R(9,20)                 1.1107         estimate D2E/DX2                !
 ! R16   R(10,11)                1.5369         estimate D2E/DX2                !
 ! R17   R(10,21)                1.112          estimate D2E/DX2                !
 ! R18   R(10,22)                1.1129         estimate D2E/DX2                !
 ! R19   R(11,12)                1.5438         estimate D2E/DX2                !
 ! R20   R(11,23)                1.1134         estimate D2E/DX2                !
 ! R21   R(11,24)                1.1119         estimate D2E/DX2                !
 ! R22   R(12,13)                1.5532         estimate D2E/DX2                !
 ! R23   R(12,25)                1.1121         estimate D2E/DX2                !
 ! R24   R(12,26)                1.1101         estimate D2E/DX2                !
 ! R25   R(13,14)                1.1153         estimate D2E/DX2                !
 ! R26   R(13,15)                1.4671         estimate D2E/DX2                !
 ! R27   R(15,16)                1.2921         estimate D2E/DX2                !
 ! R28   R(16,27)                1.1009         estimate D2E/DX2                !
 ! A1    A(1,2,3)              126.4353         estimate D2E/DX2                !
 ! A2    A(1,2,4)              116.5504         estimate D2E/DX2                !
 ! A3    A(3,2,4)              116.5272         estimate D2E/DX2                !
 ! A4    A(2,4,5)              114.2004         estimate D2E/DX2                !
 ! A5    A(2,4,16)             115.592          estimate D2E/DX2                !
 ! A6    A(5,4,16)             130.0947         estimate D2E/DX2                !
 ! A7    A(4,5,6)              125.0562         estimate D2E/DX2                !
 ! A8    A(4,5,17)             118.2993         estimate D2E/DX2                !
 ! A9    A(6,5,17)             116.5836         estimate D2E/DX2                !
 ! A10   A(5,6,7)              128.9597         estimate D2E/DX2                !
 ! A11   A(5,6,18)             120.9643         estimate D2E/DX2                !
 ! A12   A(7,6,18)             107.152          estimate D2E/DX2                !
 ! A13   A(6,7,8)              105.2877         estimate D2E/DX2                !
 ! A14   A(6,7,9)              114.8582         estimate D2E/DX2                !
 ! A15   A(6,7,13)             112.9954         estimate D2E/DX2                !
 ! A16   A(8,7,9)              106.158          estimate D2E/DX2                !
 ! A17   A(8,7,13)             105.9323         estimate D2E/DX2                !
 ! A18   A(9,7,13)             110.799          estimate D2E/DX2                !
 ! A19   A(7,9,10)             109.4477         estimate D2E/DX2                !
 ! A20   A(7,9,19)             110.1074         estimate D2E/DX2                !
 ! A21   A(7,9,20)             110.1833         estimate D2E/DX2                !
 ! A22   A(10,9,19)            109.9688         estimate D2E/DX2                !
 ! A23   A(10,9,20)            109.1409         estimate D2E/DX2                !
 ! A24   A(19,9,20)            107.9706         estimate D2E/DX2                !
 ! A25   A(9,10,11)            111.1998         estimate D2E/DX2                !
 ! A26   A(9,10,21)            109.9355         estimate D2E/DX2                !
 ! A27   A(9,10,22)            109.1434         estimate D2E/DX2                !
 ! A28   A(11,10,21)           109.7803         estimate D2E/DX2                !
 ! A29   A(11,10,22)           108.7783         estimate D2E/DX2                !
 ! A30   A(21,10,22)           107.932          estimate D2E/DX2                !
 ! A31   A(10,11,12)           111.4164         estimate D2E/DX2                !
 ! A32   A(10,11,23)           109.0052         estimate D2E/DX2                !
 ! A33   A(10,11,24)           109.8473         estimate D2E/DX2                !
 ! A34   A(12,11,23)           109.265          estimate D2E/DX2                !
 ! A35   A(12,11,24)           109.7358         estimate D2E/DX2                !
 ! A36   A(23,11,24)           107.4816         estimate D2E/DX2                !
 ! A37   A(11,12,13)           111.4894         estimate D2E/DX2                !
 ! A38   A(11,12,25)           109.2223         estimate D2E/DX2                !
 ! A39   A(11,12,26)           109.516          estimate D2E/DX2                !
 ! A40   A(13,12,25)           109.2247         estimate D2E/DX2                !
 ! A41   A(13,12,26)           109.5594         estimate D2E/DX2                !
 ! A42   A(25,12,26)           107.7501         estimate D2E/DX2                !
 ! A43   A(7,13,12)            105.7315         estimate D2E/DX2                !
 ! A44   A(7,13,14)            110.8401         estimate D2E/DX2                !
 ! A45   A(7,13,15)            114.1276         estimate D2E/DX2                !
 ! A46   A(12,13,14)           107.8016         estimate D2E/DX2                !
 ! A47   A(12,13,15)           108.3478         estimate D2E/DX2                !
 ! A48   A(14,13,15)           109.7084         estimate D2E/DX2                !
 ! A49   A(13,15,16)           119.5977         estimate D2E/DX2                !
 ! A50   A(4,16,15)            128.271          estimate D2E/DX2                !
 ! A51   A(4,16,27)            113.4432         estimate D2E/DX2                !
 ! A52   A(15,16,27)           118.2743         estimate D2E/DX2                !
 ! D1    D(1,2,4,5)             76.5314         estimate D2E/DX2                !
 ! D2    D(1,2,4,16)          -100.0004         Frozen                          !
 ! D3    D(3,2,4,5)           -110.9528         estimate D2E/DX2                !
 ! D4    D(3,2,4,16)            72.5154         estimate D2E/DX2                !
 ! D5    D(2,4,5,6)            176.6725         estimate D2E/DX2                !
 ! D6    D(2,4,5,17)            -0.3855         estimate D2E/DX2                !
 ! D7    D(16,4,5,6)            -7.4174         estimate D2E/DX2                !
 ! D8    D(16,4,5,17)          175.5245         estimate D2E/DX2                !
 ! D9    D(2,4,16,15)         -161.697          estimate D2E/DX2                !
 ! D10   D(2,4,16,27)           19.5713         estimate D2E/DX2                !
 ! D11   D(5,4,16,15)           22.4393         estimate D2E/DX2                !
 ! D12   D(5,4,16,27)         -156.2923         estimate D2E/DX2                !
 ! D13   D(4,5,6,7)             -1.1766         estimate D2E/DX2                !
 ! D14   D(4,5,6,18)           156.8681         estimate D2E/DX2                !
 ! D15   D(17,5,6,7)           175.9269         estimate D2E/DX2                !
 ! D16   D(17,5,6,18)          -26.0284         estimate D2E/DX2                !
 ! D17   D(5,6,7,8)           -147.1455         estimate D2E/DX2                !
 ! D18   D(5,6,7,9)             96.4574         estimate D2E/DX2                !
 ! D19   D(5,6,7,13)           -31.9863         estimate D2E/DX2                !
 ! D20   D(18,6,7,8)            52.4589         estimate D2E/DX2                !
 ! D21   D(18,6,7,9)           -63.9382         estimate D2E/DX2                !
 ! D22   D(18,6,7,13)          167.6181         estimate D2E/DX2                !
 ! D23   D(6,7,9,10)           168.4993         estimate D2E/DX2                !
 ! D24   D(6,7,9,19)           -70.5069         estimate D2E/DX2                !
 ! D25   D(6,7,9,20)            48.481          estimate D2E/DX2                !
 ! D26   D(8,7,9,10)            52.6013         estimate D2E/DX2                !
 ! D27   D(8,7,9,19)           173.595          estimate D2E/DX2                !
 ! D28   D(8,7,9,20)           -67.4171         estimate D2E/DX2                !
 ! D29   D(13,7,9,10)          -61.9663         estimate D2E/DX2                !
 ! D30   D(13,7,9,19)           59.0275         estimate D2E/DX2                !
 ! D31   D(13,7,9,20)          178.0154         estimate D2E/DX2                !
 ! D32   D(6,7,13,12)         -165.9986         estimate D2E/DX2                !
 ! D33   D(6,7,13,14)          -49.4421         estimate D2E/DX2                !
 ! D34   D(6,7,13,15)           75.0215         Frozen                          !
 ! D35   D(8,7,13,12)          -51.2262         estimate D2E/DX2                !
 ! D36   D(8,7,13,14)           65.3303         estimate D2E/DX2                !
 ! D37   D(8,7,13,15)         -170.2062         estimate D2E/DX2                !
 ! D38   D(9,7,13,12)           63.4829         estimate D2E/DX2                !
 ! D39   D(9,7,13,14)         -179.9607         estimate D2E/DX2                !
 ! D40   D(9,7,13,15)          -55.4971         estimate D2E/DX2                !
 ! D41   D(7,9,10,11)           54.8127         Frozen                          !
 ! D42   D(7,9,10,21)          176.6019         estimate D2E/DX2                !
 ! D43   D(7,9,10,22)          -65.1957         estimate D2E/DX2                !
 ! D44   D(19,9,10,11)         -66.2651         estimate D2E/DX2                !
 ! D45   D(19,9,10,21)          55.5241         estimate D2E/DX2                !
 ! D46   D(19,9,10,22)         173.7265         estimate D2E/DX2                !
 ! D47   D(20,9,10,11)         175.4675         estimate D2E/DX2                !
 ! D48   D(20,9,10,21)         -62.7433         estimate D2E/DX2                !
 ! D49   D(20,9,10,22)          55.4591         estimate D2E/DX2                !
 ! D50   D(9,10,11,12)         -52.8227         Frozen                          !
 ! D51   D(9,10,11,23)          67.8369         estimate D2E/DX2                !
 ! D52   D(9,10,11,24)        -174.64           estimate D2E/DX2                !
 ! D53   D(21,10,11,12)       -174.7021         estimate D2E/DX2                !
 ! D54   D(21,10,11,23)        -54.0426         estimate D2E/DX2                !
 ! D55   D(21,10,11,24)         63.4806         estimate D2E/DX2                !
 ! D56   D(22,10,11,12)         67.4019         estimate D2E/DX2                !
 ! D57   D(22,10,11,23)       -171.9385         estimate D2E/DX2                !
 ! D58   D(22,10,11,24)        -54.4154         estimate D2E/DX2                !
 ! D59   D(10,11,12,13)         56.7554         estimate D2E/DX2                !
 ! D60   D(10,11,12,25)        177.5551         estimate D2E/DX2                !
 ! D61   D(10,11,12,26)        -64.6617         estimate D2E/DX2                !
 ! D62   D(23,11,12,13)        -63.7517         estimate D2E/DX2                !
 ! D63   D(23,11,12,25)         57.048          estimate D2E/DX2                !
 ! D64   D(23,11,12,26)        174.8312         estimate D2E/DX2                !
 ! D65   D(24,11,12,13)        178.6372         estimate D2E/DX2                !
 ! D66   D(24,11,12,25)        -60.5631         estimate D2E/DX2                !
 ! D67   D(24,11,12,26)         57.2201         estimate D2E/DX2                !
 ! D68   D(11,12,13,7)         -60.602          estimate D2E/DX2                !
 ! D69   D(11,12,13,14)       -179.1985         estimate D2E/DX2                !
 ! D70   D(11,12,13,15)         62.1389         estimate D2E/DX2                !
 ! D71   D(25,12,13,7)         178.5997         estimate D2E/DX2                !
 ! D72   D(25,12,13,14)         60.0032         estimate D2E/DX2                !
 ! D73   D(25,12,13,15)        -58.6594         estimate D2E/DX2                !
 ! D74   D(26,12,13,7)          60.7899         estimate D2E/DX2                !
 ! D75   D(26,12,13,14)        -57.8066         estimate D2E/DX2                !
 ! D76   D(26,12,13,15)       -176.4692         estimate D2E/DX2                !
 ! D77   D(7,13,15,16)         -67.1592         Frozen                          !
 ! D78   D(12,13,15,16)        175.3543         estimate D2E/DX2                !
 ! D79   D(14,13,15,16)         57.9067         estimate D2E/DX2                !
 ! D80   D(13,15,16,4)          12.4722         estimate D2E/DX2                !
 ! D81   D(13,15,16,27)       -168.8491         estimate D2E/DX2                !
 --------------------------------------------------------------------------------
 Trust Radius=3.00D-01 FncErr=1.00D-07 GrdErr=1.00D-07 EigMax=2.50D+02 EigMin=1.00D-04
 Number of steps in this run=     20 maximum allowed number of steps=    162.
 GradGradGradGradGradGradGradGradGradGradGradGradGradGradGradGradGradGrad

                          Input orientation:                          
 ---------------------------------------------------------------------
 Center     Atomic      Atomic             Coordinates (Angstroms)
 Number     Number       Type             X           Y           Z
 ---------------------------------------------------------------------
      1          8           0       -3.763950    0.099720   -1.124040
      2          7           0       -3.192080   -0.228400   -0.087560
      3          8           0       -3.680280   -0.857400    0.846750
      4          6           0       -1.731880    0.006430   -0.034890
      5          6           0       -1.375030    1.334460    0.177410
      6          7           0       -0.092090    1.789860    0.328660
      7          6           0        1.187380    1.014500    0.329460
      8          1           0        1.862700    1.559420    1.038810
      9          6           0        1.928530    0.979560   -1.030460
     10          6           0        3.345470    0.409460   -0.827940
     11          6           0        3.298710   -0.965060   -0.141960
     12          6           0        2.473090   -0.916700    1.161600
     13          6           0        1.029810   -0.404550    0.902340
     14          1           0        0.495660   -0.380260    1.881110
     15          7           0        0.361380   -1.345890   -0.002840
     16          6           0       -0.886180   -1.175750   -0.292810
     17          1           0       -2.179480    2.082190    0.279440
     18          1           0        0.146450    2.765330    0.134220
     19          1           0        1.367210    0.352210   -1.755300
     20          1           0        2.005090    2.004450   -1.451610
     21          1           0        3.863220    0.323360   -1.808300
     22          1           0        3.932340    1.108120   -0.190680
     23          1           0        2.841470   -1.702920   -0.839240
     24          1           0        4.331630   -1.311300    0.080440
     25          1           0        2.426050   -1.936250    1.603240
     26          1           0        2.976790   -0.253010    1.895200
     27          1           0       -1.415000   -1.986600   -0.817030
 ---------------------------------------------------------------------
                    Distance matrix (angstroms):
                    1          2          3          4          5
     1  O    0.000000
     2  N    1.228409   0.000000
     3  O    2.192508   1.227565   0.000000
     4  C    2.307436   1.479900   2.306459   0.000000
     5  C    2.987523   2.411309   3.250607   1.391430   0.000000
     6  N    4.295284   3.722439   4.489043   2.449837   1.369745
     7  C    5.240721   4.571474   5.240774   3.109829   2.586782
     8  H    6.202244   5.478669   6.050003   4.060248   3.357903
     9  C    5.760834   5.344986   6.193310   3.916215   3.535309
    10  C    7.122322   6.610188   7.332850   5.154692   4.914211
    11  C    7.209674   6.532686   7.049499   5.124655   5.218586
    12  C    6.719965   5.841944   6.161705   4.468280   4.565564
    13  C    5.228828   4.339964   4.732136   2.945206   3.054985
    14  H    5.235034   4.183079   4.328515   2.963532   3.056524
    15  N    4.512785   3.725995   4.158779   2.492295   3.198732
    16  C    3.255661   2.501355   3.034294   1.476239   2.600238
    17  H    2.900084   2.549289   3.348945   2.146609   1.103019
    18  H    4.896930   4.489698   5.317493   3.341893   2.089056
    19  H    5.176007   4.889334   5.806115   3.561423   3.495721
    20  H    6.084170   5.818662   6.767280   4.468123   3.811536
    21  H    7.661067   7.283038   8.083803   5.877973   5.692507
    22  H    7.817986   7.249433   7.930417   5.772467   5.324932
    23  H    6.852897   6.256433   6.789012   4.948170   5.295104
    24  H    8.305430   7.603099   8.061263   6.206115   6.290900
    25  H    7.063946   6.110560   6.246876   4.872972   5.213324
    26  H    7.394444   6.479730   6.766174   5.095501   4.940567
    27  H    3.156668   2.604113   3.028985   2.164330   3.466980
                    6          7          8          9         10
     6  N    0.000000
     7  C    1.496071   0.000000
     8  H    2.092515   1.120791   0.000000
     9  C    2.566456   1.549163   2.149988   0.000000
    10  C    3.880728   2.522499   2.646842   1.540697   0.000000
    11  C    4.394154   2.932338   3.135178   2.539365   1.536900
    12  C    3.820917   2.464760   2.553199   2.949148   2.545195
    13  C    2.530455   1.538416   2.137641   2.541491   3.003125
    14  H    2.732210   2.198056   2.518060   3.518447   4.010490
    15  N    3.185664   2.522725   3.432175   2.986583   3.559050
    16  C    3.132355   3.079621   4.100086   3.621061   4.550397
    17  H    2.108335   3.532451   4.145980   4.450548   5.877873
    18  H    1.022864   2.046231   2.284298   2.778716   4.087738
    19  H    2.922205   2.194810   3.083815   1.110874   2.185586
    20  H    2.759271   2.195646   2.533874   1.110688   2.174759
    21  H    4.728816   3.493968   3.692690   2.186014   1.112018
    22  H    4.114671   2.795374   2.449230   2.176468   1.112943
    23  H    4.708426   3.389136   3.889463   2.840022   2.171703
    24  H    5.408152   3.918886   3.905781   3.501004   2.181440
    25  H    4.674343   3.444379   3.585478   3.960537   3.501189
    26  H    4.005670   2.694459   2.293361   3.343286   2.826709
    27  H    4.162253   4.134419   5.173173   4.474690   5.329474
                   11         12         13         14         15
    11  C    0.000000
    12  C    1.543780   0.000000
    13  C    2.559813   1.553245   0.000000
    14  H    3.505980   2.171564   1.115301   0.000000
    15  N    2.965180   2.449376   1.467062   2.121259   0.000000
    16  C    4.192905   3.669756   2.386242   2.695963   1.292067
    17  H    6.282824   5.605172   4.107484   3.973082   4.276375
    18  H    4.891710   4.475054   3.379123   3.615012   4.119115
    19  H    2.840556   3.367701   2.783806   3.810458   2.639385
    20  H    3.493798   3.947279   3.506499   4.367178   4.003186
    21  H    2.180685   3.505783   3.988187   5.044530   4.278898
    22  H    2.168395   2.838656   3.450731   4.279995   4.336958
    23  H    1.113420   2.181102   2.828600   3.827866   2.641568
    24  H    1.111876   2.186044   3.521325   4.338653   3.971274
    25  H    2.179557   1.112089   2.187888   2.494939   2.681582
    26  H    2.181896   1.110120   2.190768   2.484431   3.411350
    27  H    4.870146   4.491871   3.381747   3.675719   2.056439
                   16         17         18         19         20
    16  C    0.000000
    17  H    3.551657   0.000000
    18  H    4.096436   2.428522   0.000000
    19  H    3.090519   4.439821   3.299044   0.000000
    20  H    4.451509   4.529150   2.558972   1.796946   0.000000
    21  H    5.205847   6.630714   4.852935   2.496739   2.530996
    22  H    5.333351   6.206784   4.145464   3.098278   2.471365
    23  H    3.804191   6.386583   5.308108   2.690013   3.849561
    24  H    5.232899   7.345062   5.842734   3.863288   4.330608
    25  H    3.891559   6.253896   5.427656   4.199760   5.003842
    26  H    4.534465   5.886507   4.496916   4.035243   4.152284
    27  H    1.100879   4.282724   5.091546   3.753808   5.294165
                   21         22         23         24         25
    21  H    0.000000
    22  H    1.799255   0.000000
    23  H    2.467562   3.084246   0.000000
    24  H    2.541429   2.467090   1.794367   0.000000
    25  H    4.337038   3.841256   2.488519   2.518078   0.000000
    26  H    3.851477   2.667704   3.098018   2.499785   1.794952
    27  H    5.846207   6.209964   4.265971   5.855360   4.540254
                   26         27
    26  H    0.000000
    27  H    5.445121   0.000000
 Symmetry turned off by external request.
 Stoichiometry    C9H13N3O2
 Framework group  C1[X(C9H13N3O2)]
 Deg. of freedom    75
 Full point group                 C1      NOp   1
 Rotational constants (GHZ):           1.6495539           0.4040986           0.3703676
 Standard basis: 6-31G(d) (6D, 7F)
   236 basis functions,   444 primitive gaussians,   236 cartesian basis functions
    52 alpha electrons       52 beta electrons
       nuclear repulsion energy       921.0812327823 Hartrees.
 NAtoms=   27 NActive=   27 NUniq=   27 SFac= 1.00D+00 NAtFMM=   60 NAOKFM=F Big=F
 Integral buffers will be    131072 words long.
 Raffenetti 1 integral format.
 Two-electron integral symmetry is turned off.
 One-electron integrals computed using PRISM.
 NBasis=   236 RedAO= T EigKep=  1.69D-03  NBF=   236
 NBsUse=   236 1.00D-06 EigRej= -1.00D+00 NBFU=   236
 ExpMin= 1.61D-01 ExpMax= 5.48D+03 ExpMxC= 8.25D+02 IAcc=3 IRadAn=         5 AccDes= 0.00D+00
 Harris functional with IExCor=  205 and IRadAn=       5 diagonalized for initial guess.
 HarFok:  IExCor=  205 AccDes= 0.00D+00 IRadAn=         5 IDoV= 1 UseB2=F ITyADJ=14
 ICtDFT=  3500011 ScaDFX=  1.000000  1.000000  1.000000  1.000000
 FoFCou: FMM=F IPFlag=           0 FMFlag=      100000 FMFlg1=           0
         NFxFlg=           0 DoJE=T BraDBF=F KetDBF=T FulRan=T
         wScrn=  0.000000 ICntrl=       500 IOpCl=  0 I1Cent=   200000004 NGrid=           0
         NMat0=    1 NMatS0=      1 NMatT0=    0 NMatD0=    1 NMtDS0=    0 NMtDT0=    0
 Symmetry not used in FoFCou.
 Keep R1 ints in memory in canonical form, NReq=397720213.
 Requested convergence on RMS density matrix=1.00D-08 within 128 cycles.
 Requested convergence on MAX density matrix=1.00D-06.
 Requested convergence on             energy=1.00D-06.
 No special actions if energy rises.
 SCF Done:  E(RHF) =  -661.268317666     A.U. after   16 cycles
            NFock= 16  Conv=0.87D-08     -V/T= 2.0034
 ExpMin= 1.61D-01 ExpMax= 5.48D+03 ExpMxC= 8.25D+02 IAcc=3 IRadAn=         5 AccDes= 0.00D+00
 HarFok:  IExCor=  205 AccDes= 0.00D+00 IRadAn=         5 IDoV=-2 UseB2=F ITyADJ=14
 ICtDFT= 12500011 ScaDFX=  1.000000  1.000000  1.000000  1.000000
 Range of M.O.s used for correlation:    15   236
 NBasis=   236 NAE=    52 NBE=    52 NFC=    14 NFV=     0
 NROrb=    222 NOA=    38 NOB=    38 NVA=   184 NVB=   184
 Fully direct method using O(ONN) memory.
 JobTyp=1 Pass  1:  I=  15 to  52 NPSUse=  4 ParTrn=T ParDer=T DoDerP=T.
 Spin components of T(2) and E(2):
     alpha-alpha T2 =       0.9177348961D-01 E2=     -0.2718183484D+00
     alpha-beta  T2 =       0.5019648723D+00 E2=     -0.1496472992D+01
     beta-beta   T2 =       0.9177348961D-01 E2=     -0.2718183484D+00
 ANorm=    0.1298272641D+01
 E2 =    -0.2040109689D+01 EUMP2 =    -0.66330842735507D+03
          IDoAtm=111111111111111111111111111
          Differentiating once with respect to electric field.
                with respect to dipole field.
          Differentiating once with respect to nuclear coordinates.
 Keep R1 ints in memory in canonical form, NReq=397723379.
          There are     1 degrees of freedom in the 1st order CPHF.  IDoFFX=0 NUNeed=     1.
 LinEq1:  Iter=  0 NonCon=     1 RMS=4.50D-03 Max=1.53D-01 NDo=     1
 AX will form     1 AO Fock derivatives at one time.
 LinEq1:  Iter=  1 NonCon=     1 RMS=1.49D-03 Max=3.25D-02 NDo=     1
 LinEq1:  Iter=  2 NonCon=     1 RMS=6.11D-04 Max=2.23D-02 NDo=     1
 LinEq1:  Iter=  3 NonCon=     1 RMS=2.76D-04 Max=4.81D-03 NDo=     1
 LinEq1:  Iter=  4 NonCon=     1 RMS=8.41D-05 Max=1.57D-03 NDo=     1
 LinEq1:  Iter=  5 NonCon=     1 RMS=3.37D-05 Max=1.05D-03 NDo=     1
 LinEq1:  Iter=  6 NonCon=     1 RMS=1.38D-05 Max=5.98D-04 NDo=     1
 LinEq1:  Iter=  7 NonCon=     1 RMS=5.44D-06 Max=1.42D-04 NDo=     1
 LinEq1:  Iter=  8 NonCon=     1 RMS=2.18D-06 Max=6.18D-05 NDo=     1
 LinEq1:  Iter=  9 NonCon=     1 RMS=7.27D-07 Max=2.11D-05 NDo=     1
 LinEq1:  Iter= 10 NonCon=     1 RMS=2.41D-07 Max=6.91D-06 NDo=     1
 LinEq1:  Iter= 11 NonCon=     1 RMS=9.80D-08 Max=3.32D-06 NDo=     1
 LinEq1:  Iter= 12 NonCon=     1 RMS=4.79D-08 Max=2.31D-06 NDo=     1
 LinEq1:  Iter= 13 NonCon=     1 RMS=2.11D-08 Max=5.05D-07 NDo=     1
 LinEq1:  Iter= 14 NonCon=     1 RMS=7.88D-09 Max=1.82D-07 NDo=     1
 LinEq1:  Iter= 15 NonCon=     1 RMS=2.84D-09 Max=4.70D-08 NDo=     1
 LinEq1:  Iter= 16 NonCon=     1 RMS=1.01D-09 Max=2.01D-08 NDo=     1
 LinEq1:  Iter= 17 NonCon=     1 RMS=2.77D-10 Max=5.35D-09 NDo=     1
 LinEq1:  Iter= 18 NonCon=     1 RMS=9.44D-11 Max=2.35D-09 NDo=     1
 LinEq1:  Iter= 19 NonCon=     0 RMS=2.78D-11 Max=7.62D-10 NDo=     1
 Linear equations converged to 1.000D-10 1.000D-09 after    19 iterations.
 End of Minotr F.D. properties file   721 does not exist.
 End of Minotr F.D. properties file   722 does not exist.
 End of Minotr F.D. properties file   788 does not exist.

 **********************************************************************

            Population analysis using the SCF Density.

 **********************************************************************

 Alpha  occ. eigenvalues --  -20.60636 -20.60628 -15.84975 -15.62205 -15.56882
 Alpha  occ. eigenvalues --  -11.34991 -11.30987 -11.29742 -11.29177 -11.27602
 Alpha  occ. eigenvalues --  -11.24298 -11.23662 -11.23253 -11.22709  -1.59457
 Alpha  occ. eigenvalues --   -1.39141  -1.27966  -1.22665  -1.13560  -1.09026
 Alpha  occ. eigenvalues --   -1.01626  -1.00629  -0.93677  -0.89097  -0.84649
 Alpha  occ. eigenvalues --   -0.81841  -0.78514  -0.77190  -0.73971  -0.71690
 Alpha  occ. eigenvalues --   -0.71115  -0.69029  -0.66832  -0.64457  -0.62954
 Alpha  occ. eigenvalues --   -0.61576  -0.60335  -0.57257  -0.56256  -0.54669
 Alpha  occ. eigenvalues --   -0.53553  -0.51241  -0.50303  -0.48668  -0.48010
 Alpha  occ. eigenvalues --   -0.47630  -0.46162  -0.45467  -0.44204  -0.41950
 Alpha  occ. eigenvalues --   -0.39979  -0.32741
 Alpha virt. eigenvalues --    0.09177   0.09868   0.18382   0.21069   0.23066
 Alpha virt. eigenvalues --    0.24095   0.25002   0.27769   0.28540   0.28853
 Alpha virt. eigenvalues --    0.29094   0.30913   0.31996   0.32463   0.33458
 Alpha virt. eigenvalues --    0.33996   0.34997   0.36786   0.37880   0.38588
 Alpha virt. eigenvalues --    0.40741   0.41988   0.44119   0.45163   0.45575
 Alpha virt. eigenvalues --    0.47563   0.49213   0.54348   0.57453   0.57950
 Alpha virt. eigenvalues --    0.60869   0.68739   0.69409   0.72197   0.73638
 Alpha virt. eigenvalues --    0.74428   0.75871   0.76358   0.78114   0.78971
 Alpha virt. eigenvalues --    0.80228   0.83040   0.84912   0.85771   0.88225
 Alpha virt. eigenvalues --    0.88569   0.89458   0.91299   0.92444   0.92955
 Alpha virt. eigenvalues --    0.94520   0.97042   0.98645   1.00880   1.01602
 Alpha virt. eigenvalues --    1.03965   1.05188   1.06603   1.06961   1.08341
 Alpha virt. eigenvalues --    1.09577   1.10560   1.10742   1.11415   1.12547
 Alpha virt. eigenvalues --    1.12990   1.13647   1.14403   1.15881   1.15966
 Alpha virt. eigenvalues --    1.16854   1.17240   1.18484   1.21053   1.22026
 Alpha virt. eigenvalues --    1.23258   1.23651   1.25353   1.25722   1.27083
 Alpha virt. eigenvalues --    1.28805   1.29965   1.32943   1.34200   1.37462
 Alpha virt. eigenvalues --    1.39764   1.42308   1.44649   1.47461   1.52622
 Alpha virt. eigenvalues --    1.53423   1.55894   1.60324   1.65166   1.67221
 Alpha virt. eigenvalues --    1.68765   1.71412   1.72565   1.74722   1.76482
 Alpha virt. eigenvalues --    1.78373   1.80498   1.85810   1.90007   1.92366
 Alpha virt. eigenvalues --    1.92998   1.97879   1.99367   2.00342   2.01502
 Alpha virt. eigenvalues --    2.03459   2.03771   2.05756   2.10148   2.10712
 Alpha virt. eigenvalues --    2.12779   2.13259   2.17270   2.19758   2.20034
 Alpha virt. eigenvalues --    2.22541   2.23194   2.25595   2.26471   2.28844
 Alpha virt. eigenvalues --    2.30205   2.31761   2.33718   2.33968   2.35534
 Alpha virt. eigenvalues --    2.38431   2.39445   2.42767   2.44007   2.44361
 Alpha virt. eigenvalues --    2.48459   2.49448   2.51479   2.56615   2.57393
 Alpha virt. eigenvalues --    2.60617   2.62132   2.65627   2.68107   2.69218
 Alpha virt. eigenvalues --    2.69913   2.72102   2.74855   2.76227   2.80887
 Alpha virt. eigenvalues --    2.86448   2.87008   2.88742   2.93140   2.96177
 Alpha virt. eigenvalues --    2.97412   3.01536   3.05078   3.06045   3.07896
 Alpha virt. eigenvalues --    3.08761   3.13632   3.19177   3.22414   3.24023
 Alpha virt. eigenvalues --    3.27688   3.32884   3.37292   3.40930   3.58984
 Alpha virt. eigenvalues --    4.14531   4.18861   4.29936   4.33038   4.45809
 Alpha virt. eigenvalues --    4.53528   4.59692   4.60926   4.71422   4.78755
 Alpha virt. eigenvalues --    4.99112   4.99473   5.04221   5.10009
          Condensed to atoms (all electrons):
               1          2          3          4          5          6
     1  O    8.313750   0.292846  -0.080355  -0.092329   0.005826   0.000087
     2  N    0.292846   5.783976   0.299325   0.244017  -0.050692   0.001301
     3  O   -0.080355   0.299325   8.301298  -0.084081   0.000672  -0.000037
     4  C   -0.092329   0.244017  -0.084081   5.218295   0.598359  -0.053551
     5  C    0.005826  -0.050692   0.000672   0.598359   4.627759   0.322715
     6  N    0.000087   0.001301  -0.000037  -0.053551   0.322715   7.169208
     7  C   -0.000005  -0.000116   0.000008   0.003263  -0.030345   0.210670
     8  H    0.000000   0.000002  -0.000000  -0.000151   0.002441  -0.048720
     9  C    0.000000  -0.000006   0.000000   0.000433   0.002008  -0.058650
    10  C    0.000000   0.000000  -0.000000  -0.000018  -0.000076   0.003431
    11  C   -0.000000  -0.000000  -0.000000  -0.000020   0.000017  -0.000156
    12  C    0.000000   0.000002  -0.000000  -0.000068  -0.000158   0.003557
    13  C    0.000004  -0.000043  -0.000027  -0.009477   0.000614  -0.045989
    14  H    0.000001  -0.000063  -0.000006   0.002339   0.004605  -0.005440
    15  N   -0.000015   0.001895  -0.000017  -0.066231  -0.006315   0.003237
    16  C    0.001181  -0.029413   0.003042   0.324425  -0.029117  -0.001970
    17  H    0.001969  -0.002205  -0.000008  -0.036991   0.388598  -0.031685
    18  H    0.000007  -0.000059   0.000000   0.001715  -0.023427   0.328248
    19  H    0.000001  -0.000000  -0.000000  -0.000875   0.000645   0.000657
    20  H    0.000000  -0.000000  -0.000000  -0.000031   0.000020  -0.001329
    21  H   -0.000000  -0.000000   0.000000   0.000000   0.000001  -0.000061
    22  H    0.000000   0.000000  -0.000000  -0.000000  -0.000002  -0.000096
    23  H    0.000000  -0.000000  -0.000000   0.000024   0.000000  -0.000023
    24  H    0.000000   0.000000  -0.000000   0.000000  -0.000000   0.000004
    25  H    0.000000  -0.000000   0.000000   0.000020  -0.000001  -0.000069
    26  H    0.000000  -0.000000   0.000000   0.000004   0.000001  -0.000067
    27  H    0.000837   0.000738   0.000122  -0.076731   0.001679   0.000042
               7          8          9         10         11         12
     1  O   -0.000005   0.000000   0.000000   0.000000  -0.000000   0.000000
     2  N   -0.000116   0.000002  -0.000006   0.000000  -0.000000   0.000002
     3  O    0.000008  -0.000000   0.000000  -0.000000  -0.000000  -0.000000
     4  C    0.003263  -0.000151   0.000433  -0.000018  -0.000020  -0.000068
     5  C   -0.030345   0.002441   0.002008  -0.000076   0.000017  -0.000158
     6  N    0.210670  -0.048720  -0.058650   0.003431  -0.000156   0.003557
     7  C    5.002026   0.415802   0.342074  -0.049615  -0.007604  -0.064485
     8  H    0.415802   0.548386  -0.060630   0.001206  -0.000255  -0.003044
     9  C    0.342074  -0.060630   5.180708   0.317665  -0.053133  -0.005858
    10  C   -0.049615   0.001206   0.317665   5.128107   0.332707  -0.060256
    11  C   -0.007604  -0.000255  -0.053133   0.332707   5.124680   0.330332
    12  C   -0.064485  -0.003044  -0.005858  -0.060256   0.330332   5.138257
    13  C    0.329164  -0.039124  -0.052346  -0.001387  -0.048095   0.367187
    14  H   -0.040065  -0.000957   0.003808  -0.000384   0.003937  -0.040481
    15  N   -0.059859   0.003980  -0.012404   0.001539  -0.007820  -0.073821
    16  C   -0.001903  -0.000044  -0.000415  -0.000060   0.000015   0.002485
    17  H    0.001656  -0.000036  -0.000072   0.000001   0.000000   0.000001
    18  H   -0.029813  -0.002872   0.000671  -0.000113   0.000011  -0.000139
    19  H   -0.035152   0.004080   0.386697  -0.033138  -0.002249   0.000630
    20  H   -0.041389  -0.001764   0.397222  -0.037418   0.004136  -0.000360
    21  H    0.004057  -0.000082  -0.035804   0.399926  -0.035947   0.004230
    22  H   -0.004277   0.003545  -0.045533   0.395792  -0.045614  -0.001278
    23  H    0.000425   0.000034  -0.001978  -0.040191   0.396713  -0.036795
    24  H   -0.000149  -0.000099   0.004378  -0.038480   0.400256  -0.037896
    25  H    0.004993   0.000001  -0.000383   0.004106  -0.034011   0.395373
    26  H   -0.004473   0.001535   0.001050  -0.002405  -0.042179   0.394740
    27  H   -0.000410   0.000009  -0.000056   0.000004   0.000005  -0.000024
              13         14         15         16         17         18
     1  O    0.000004   0.000001  -0.000015   0.001181   0.001969   0.000007
     2  N   -0.000043  -0.000063   0.001895  -0.029413  -0.002205  -0.000059
     3  O   -0.000027  -0.000006  -0.000017   0.003042  -0.000008   0.000000
     4  C   -0.009477   0.002339  -0.066231   0.324425  -0.036991   0.001715
     5  C    0.000614   0.004605  -0.006315  -0.029117   0.388598  -0.023427
     6  N   -0.045989  -0.005440   0.003237  -0.001970  -0.031685   0.328248
     7  C    0.329164  -0.040065  -0.059859  -0.001903   0.001656  -0.029813
     8  H   -0.039124  -0.000957   0.003980  -0.000044  -0.000036  -0.002872
     9  C   -0.052346   0.003808  -0.012404  -0.000415  -0.000072   0.000671
    10  C   -0.001387  -0.000384   0.001539  -0.000060   0.000001  -0.000113
    11  C   -0.048095   0.003937  -0.007820   0.000015   0.000000   0.000011
    12  C    0.367187  -0.040481  -0.073821   0.002485   0.000001  -0.000139
    13  C    5.020242   0.404128   0.247409  -0.070688  -0.000052   0.003814
    14  H    0.404128   0.512532  -0.035725  -0.004931   0.000052   0.000014
    15  N    0.247409  -0.035725   6.913429   0.612029  -0.000053  -0.000123
    16  C   -0.070688  -0.004931   0.612029   4.649239   0.001421  -0.000153
    17  H   -0.000052   0.000052  -0.000053   0.001421   0.420077  -0.002237
    18  H    0.003814   0.000014  -0.000123  -0.000153  -0.002237   0.331788
    19  H   -0.006069   0.000059   0.006613   0.002216   0.000011  -0.000113
    20  H    0.003892  -0.000050   0.000079  -0.000033  -0.000003   0.002732
    21  H   -0.000394   0.000009  -0.000035   0.000003  -0.000000  -0.000000
    22  H    0.000333  -0.000042   0.000006  -0.000001   0.000000   0.000003
    23  H   -0.005868   0.000006   0.006691   0.000085   0.000000   0.000000
    24  H    0.004151  -0.000059   0.000034   0.000005   0.000000  -0.000000
    25  H   -0.034680  -0.002658   0.000889  -0.000047  -0.000000   0.000002
    26  H   -0.044537  -0.000898   0.004144  -0.000052   0.000000  -0.000001
    27  H    0.004967  -0.000157  -0.036351   0.405167  -0.000072   0.000002
              19         20         21         22         23         24
     1  O    0.000001   0.000000  -0.000000   0.000000   0.000000   0.000000
     2  N   -0.000000  -0.000000  -0.000000   0.000000  -0.000000   0.000000
     3  O   -0.000000  -0.000000   0.000000  -0.000000  -0.000000  -0.000000
     4  C   -0.000875  -0.000031   0.000000  -0.000000   0.000024   0.000000
     5  C    0.000645   0.000020   0.000001  -0.000002   0.000000  -0.000000
     6  N    0.000657  -0.001329  -0.000061  -0.000096  -0.000023   0.000004
     7  C   -0.035152  -0.041389   0.004057  -0.004277   0.000425  -0.000149
     8  H    0.004080  -0.001764  -0.000082   0.003545   0.000034  -0.000099
     9  C    0.386697   0.397222  -0.035804  -0.045533  -0.001978   0.004378
    10  C   -0.033138  -0.037418   0.399926   0.395792  -0.040191  -0.038480
    11  C   -0.002249   0.004136  -0.035947  -0.045614   0.396713   0.400256
    12  C    0.000630  -0.000360   0.004230  -0.001278  -0.036795  -0.037896
    13  C   -0.006069   0.003892  -0.000394   0.000333  -0.005868   0.004151
    14  H    0.000059  -0.000050   0.000009  -0.000042   0.000006  -0.000059
    15  N    0.006613   0.000079  -0.000035   0.000006   0.006691   0.000034
    16  C    0.002216  -0.000033   0.000003  -0.000001   0.000085   0.000005
    17  H    0.000011  -0.000003  -0.000000   0.000000   0.000000   0.000000
    18  H   -0.000113   0.002732  -0.000000   0.000003   0.000000  -0.000000
    19  H    0.508122  -0.023780  -0.002601   0.003779   0.001662  -0.000072
    20  H   -0.023780   0.549051  -0.002650  -0.002937  -0.000050  -0.000090
    21  H   -0.002601  -0.002650   0.527518  -0.024807  -0.002837  -0.002080
    22  H    0.003779  -0.002937  -0.024807   0.569586   0.004076  -0.003585
    23  H    0.001662  -0.000050  -0.002837   0.004076   0.511284  -0.025074
    24  H   -0.000072  -0.000090  -0.002080  -0.003585  -0.025074   0.541898
    25  H   -0.000027   0.000011  -0.000087  -0.000082  -0.002080  -0.002401
    26  H    0.000023  -0.000035  -0.000073   0.002454   0.003820  -0.002746
    27  H    0.000085   0.000000  -0.000000   0.000000  -0.000020  -0.000000
              25         26         27
     1  O    0.000000   0.000000   0.000837
     2  N   -0.000000  -0.000000   0.000738
     3  O    0.000000   0.000000   0.000122
     4  C    0.000020   0.000004  -0.076731
     5  C   -0.000001   0.000001   0.001679
     6  N   -0.000069  -0.000067   0.000042
     7  C    0.004993  -0.004473  -0.000410
     8  H    0.000001   0.001535   0.000009
     9  C   -0.000383   0.001050  -0.000056
    10  C    0.004106  -0.002405   0.000004
    11  C   -0.034011  -0.042179   0.000005
    12  C    0.395373   0.394740  -0.000024
    13  C   -0.034680  -0.044537   0.004967
    14  H   -0.002658  -0.000898  -0.000157
    15  N    0.000889   0.004144  -0.036351
    16  C   -0.000047  -0.000052   0.405167
    17  H   -0.000000   0.000000  -0.000072
    18  H    0.000002  -0.000001   0.000002
    19  H   -0.000027   0.000023   0.000085
    20  H    0.000011  -0.000035   0.000000
    21  H   -0.000087  -0.000073  -0.000000
    22  H   -0.000082   0.002454   0.000000
    23  H   -0.002080   0.003820  -0.000020
    24  H   -0.002401  -0.002746  -0.000000
    25  H    0.511475  -0.023172  -0.000012
    26  H   -0.023172   0.560297   0.000001
    27  H   -0.000012   0.000001   0.474241
 Mulliken charges:
               1
     1  O   -0.443804
     2  N    0.458494
     3  O   -0.439936
     4  C    0.027660
     5  C    0.184172
     6  N   -0.795315
     7  C    0.055523
     8  H    0.176757
     9  C   -0.309444
    10  C   -0.320942
    11  C   -0.315725
    12  C   -0.312130
    13  C   -0.027128
    14  H    0.200427
    15  N   -0.503207
    16  C    0.137515
    17  H    0.259629
    18  H    0.390042
    19  H    0.188795
    20  H    0.154778
    21  H    0.171714
    22  H    0.148680
    23  H    0.190096
    24  H    0.162004
    25  H    0.182841
    26  H    0.152569
    27  H    0.225934
 Sum of Mulliken charges =  -0.00000
 Mulliken charges with hydrogens summed into heavy atoms:
               1
     1  O   -0.443804
     2  N    0.458494
     3  O   -0.439936
     4  C    0.027660
     5  C    0.443801
     6  N   -0.405272
     7  C    0.232279
     9  C    0.034129
    10  C   -0.000547
    11  C    0.036375
    12  C    0.023280
    13  C    0.173299
    15  N   -0.503207
    16  C    0.363449
 Electronic spatial extent (au):  <R**2>=           3062.0753
 Charge=             -0.0000 electrons
 Dipole moment (field-independent basis, Debye):
    X=              4.5586    Y=              4.2589    Z=              0.4830  Tot=              6.2572
 Quadrupole moment (field-independent basis, Debye-Ang):
   XX=           -100.9946   YY=            -76.9097   ZZ=            -86.6175
   XY=             -2.4551   XZ=             -0.3490   YZ=              2.1486
 Traceless Quadrupole moment (field-independent basis, Debye-Ang):
   XX=            -12.8207   YY=             11.2643   ZZ=              1.5564
   XY=             -2.4551   XZ=             -0.3490   YZ=              2.1486
 Octapole moment (field-independent basis, Debye-Ang**2):
  XXX=             73.7891  YYY=             30.6482  ZZZ=             -2.2357  XYY=            -16.9102
  XXY=             17.8899  XXZ=              6.5934  XZZ=              6.1624  YZZ=             -2.6298
  YYZ=             -3.1053  XYZ=             -9.2193
 Hexadecapole moment (field-independent basis, Debye-Ang**3):
 XXXX=          -3361.7037 YYYY=           -556.8147 ZZZZ=           -372.4937 XXXY=            -73.5471
 XXXZ=            -29.0744 YYYX=             -1.3449 YYYZ=             39.6841 ZZZX=            -10.0497
 ZZZY=             38.7291 XXYY=           -581.8895 XXZZ=           -595.1778 YYZZ=           -168.6875
 XXYZ=             43.7927 YYXZ=              9.1012 ZZXY=             -0.6582
 N-N= 9.210812327823D+02 E-N=-3.388304383989D+03  KE= 6.590219369929D+02
 Calling FoFJK, ICntrl=  10002127 FMM=F ISym2X=0 I1Cent= 0 IOpClX= 0 NMat=1 NMatS=1 NMatT=0.
 -------------------------------------------------------------------
 Center     Atomic                   Forces (Hartrees/Bohr)
 Number     Number              X              Y              Z
 -------------------------------------------------------------------
      1        8          -0.018255721    0.011526766   -0.016324482
      2        7           0.039163885   -0.007026652   -0.006138536
      3        8          -0.013605042   -0.009472524    0.018463589
      4        6           0.008045945    0.019472614    0.009488052
      5        6           0.007877489   -0.022881741   -0.006033417
      6        7           0.020903243   -0.001637092   -0.003018625
      7        6          -0.006943814    0.006532216    0.002080060
      8        1          -0.010367351   -0.002342826   -0.007323082
      9        6          -0.003621779   -0.000295677   -0.001796809
     10        6           0.002752054   -0.000851232    0.000691376
     11        6          -0.000704549   -0.004582435   -0.001914447
     12        6           0.000636731   -0.009338274   -0.002658715
     13        6           0.008511583   -0.000502702    0.002540300
     14        1           0.000552312    0.003195571   -0.010722899
     15        7           0.001308216   -0.003756160    0.005004735
     16        6          -0.015239154    0.014974638    0.005012369
     17        1           0.009436412   -0.004680757   -0.003095508
     18        1          -0.016921853   -0.002470433    0.003978948
     19        1           0.003191378    0.006351192    0.007071688
     20        1          -0.003269865   -0.007305314    0.003227074
     21        1          -0.004083422    0.002987217    0.009514416
     22        1          -0.004108418   -0.004482592   -0.007017791
     23        1           0.004055476    0.006673285    0.008780533
     24        1          -0.009409908    0.002377249   -0.002154247
     25        1          -0.000863397    0.010403760   -0.003133026
     26        1          -0.004900234   -0.005065032   -0.004029773
     27        1           0.005859781    0.002196935   -0.000491784
 -------------------------------------------------------------------
 Cartesian Forces:  Max     0.039163885 RMS     0.009279676

 GradGradGradGradGradGradGradGradGradGradGradGradGradGradGradGradGradGrad
 Berny optimization.
 FormGI is forming the generalized inverse of G from B-inverse, IUseBI=4.
 Internal  Forces:  Max     0.028229014 RMS     0.006199092
 Search for a local minimum.
 Step number   1 out of a maximum of   20
 All quantities printed in internal units (Hartrees-Bohrs-Radians)
 Mixed Optimization -- RFO/linear search
 Second derivative matrix not updated -- first step.
 ITU=  0
     Eigenvalues ---    0.00703   0.00770   0.01100   0.01183   0.01333
     Eigenvalues ---    0.01506   0.01539   0.01663   0.02001   0.02073
     Eigenvalues ---    0.02152   0.02671   0.03657   0.04507   0.04697
     Eigenvalues ---    0.04837   0.05069   0.05139   0.05301   0.05867
     Eigenvalues ---    0.06270   0.07211   0.07699   0.07715   0.07856
     Eigenvalues ---    0.07997   0.08037   0.08049   0.10459   0.11736
     Eigenvalues ---    0.12268   0.13363   0.15138   0.15578   0.15989
     Eigenvalues ---    0.15999   0.20100   0.22066   0.23281   0.24956
     Eigenvalues ---    0.25000   0.25000   0.25319   0.26141   0.26655
     Eigenvalues ---    0.27988   0.28081   0.28426   0.31484   0.31818
     Eigenvalues ---    0.32045   0.32241   0.32290   0.32380   0.32387
     Eigenvalues ---    0.32402   0.32508   0.32527   0.32587   0.33350
     Eigenvalues ---    0.33585   0.34159   0.34581   0.35252   0.43884
     Eigenvalues ---    0.45530   0.49581   0.67316   0.91752   0.92109
     Eigenvalues --- 1000.000001000.000001000.000001000.000001000.00000
     Eigenvalues --- 1000.000001000.000001000.000001000.000001000.00000
     Eigenvalues --- 1000.000001000.000001000.000001000.000001000.00000
     Eigenvalues --- 1000.000001000.000001000.000001000.000001000.00000
     Eigenvalues --- 1000.000001000.000001000.000001000.000001000.00000
     Eigenvalues --- 1000.000001000.000001000.000001000.000001000.00000
     Eigenvalues --- 1000.000001000.000001000.000001000.000001000.00000
     Eigenvalues --- 1000.000001000.000001000.000001000.000001000.00000
     Eigenvalues --- 1000.000001000.000001000.000001000.000001000.00000
     Eigenvalues --- 1000.000001000.000001000.000001000.000001000.00000
     Eigenvalues --- 1000.000001000.000001000.000001000.000001000.00000
     Eigenvalues --- 1000.000001000.000001000.000001000.000001000.00000
     Eigenvalues --- 1000.000001000.000001000.000001000.000001000.00000
     Eigenvalues --- 1000.000001000.000001000.000001000.000001000.00000
     Eigenvalues --- 1000.000001000.000001000.000001000.000001000.00000
     Eigenvalues --- 1000.000001000.000001000.000001000.000001000.00000
     Eigenvalues --- 1000.000001000.000001000.000001000.000001000.00000
     Eigenvalues --- 1000.000001000.000001000.000001000.000001000.00000
     Eigenvalues --- 1000.00000
 RFO step:  Lambda=-1.97167593D-02 EMin= 7.02996793D-03
 Linear search not attempted -- first point.
 Iteration  1 RMS(Cart)=  0.04622987 RMS(Int)=  0.00196110
 Iteration  2 RMS(Cart)=  0.00226124 RMS(Int)=  0.00074068
 Iteration  3 RMS(Cart)=  0.00000501 RMS(Int)=  0.00074067
 Iteration  4 RMS(Cart)=  0.00000001 RMS(Int)=  0.00074067
 Iteration  1 RMS(Cart)=  0.00002743 RMS(Int)=  0.00001735
 Iteration  2 RMS(Cart)=  0.00001481 RMS(Int)=  0.00001913
 Iteration  3 RMS(Cart)=  0.00000853 RMS(Int)=  0.00002144
 Iteration  4 RMS(Cart)=  0.00000535 RMS(Int)=  0.00002319
 Iteration  5 RMS(Cart)=  0.00000372 RMS(Int)=  0.00002448
 Iteration  6 RMS(Cart)=  0.00000285 RMS(Int)=  0.00002548
 Iteration  7 RMS(Cart)=  0.00000234 RMS(Int)=  0.00002628
 Iteration  8 RMS(Cart)=  0.00000199 RMS(Int)=  0.00002696
 Iteration  9 RMS(Cart)=  0.00000173 RMS(Int)=  0.00002755
 Iteration 10 RMS(Cart)=  0.00000151 RMS(Int)=  0.00002806
 Iteration 11 RMS(Cart)=  0.00000132 RMS(Int)=  0.00002852
 Iteration 12 RMS(Cart)=  0.00000116 RMS(Int)=  0.00002893
 Iteration 13 RMS(Cart)=  0.00000102 RMS(Int)=  0.00002929
 Iteration 14 RMS(Cart)=  0.00000090 RMS(Int)=  0.00002961
 Variable       Old X    -DE/DX   Delta X   Delta X   Delta X     New X
                                 (Linear)    (Quad)   (Total)
    R1        2.32136   0.02535   0.00000   0.02705   0.02705   2.34841
    R2        2.31976   0.02432   0.00000   0.02585   0.02585   2.34561
    R3        2.79661  -0.00627   0.00000  -0.01717  -0.01717   2.77944
    R4        2.62942  -0.02823   0.00000  -0.06002  -0.05982   2.56960
    R5        2.78969  -0.01937   0.00000  -0.05554  -0.05544   2.73425
    R6        2.58844  -0.01738   0.00000  -0.03331  -0.03317   2.55527
    R7        2.08440  -0.01034   0.00000  -0.02928  -0.02928   2.05513
    R8        2.82716  -0.02120   0.00000  -0.05861  -0.05864   2.76853
    R9        1.93293  -0.00706   0.00000  -0.01539  -0.01539   1.91754
   R10        2.11799  -0.01202   0.00000  -0.03593  -0.03593   2.08206
   R11        2.92749  -0.01265   0.00000  -0.04339  -0.04337   2.88413
   R12        2.90718  -0.00407   0.00000  -0.00834  -0.00842   2.89876
   R13        2.91150  -0.00456   0.00000  -0.01430  -0.01433   2.89717
   R14        2.09925  -0.00981   0.00000  -0.02846  -0.02846   2.07079
   R15        2.09890  -0.00819   0.00000  -0.02374  -0.02374   2.07516
   R16        2.90432  -0.00203   0.00000  -0.00765  -0.00775   2.89657
   R17        2.10141  -0.01052   0.00000  -0.03062  -0.03062   2.07079
   R18        2.10316  -0.00900   0.00000  -0.02626  -0.02626   2.07689
   R19        2.91732  -0.00917   0.00000  -0.02974  -0.02976   2.88757
   R20        2.10406  -0.01159   0.00000  -0.03387  -0.03387   2.07019
   R21        2.10114  -0.00991   0.00000  -0.02884  -0.02884   2.07230
   R22        2.93521  -0.01052   0.00000  -0.03671  -0.03669   2.89852
   R23        2.10154  -0.01075   0.00000  -0.03128  -0.03128   2.07026
   R24        2.09782  -0.00791   0.00000  -0.02290  -0.02290   2.07492
   R25        2.10761  -0.00961   0.00000  -0.02824  -0.02824   2.07938
   R26        2.77235  -0.00672   0.00000  -0.01545  -0.01560   2.75675
   R27        2.44165  -0.00441   0.00000  -0.00662  -0.00667   2.43498
   R28        2.08036  -0.00420   0.00000  -0.01181  -0.01181   2.06855
    A1        2.20671  -0.00716   0.00000  -0.02079  -0.02598   2.18074
    A2        2.03419   0.00702   0.00000   0.03170   0.02652   2.06071
    A3        2.03378   0.00176   0.00000   0.01220   0.00702   2.04081
    A4        1.99317   0.00342   0.00000   0.01579   0.01462   2.00779
    A5        2.01746  -0.00473   0.00000  -0.01443  -0.01551   2.00195
    A6        2.27058   0.00128   0.00000  -0.00600  -0.00648   2.26410
    A7        2.18264   0.01130   0.00000   0.04148   0.04191   2.22455
    A8        2.06471  -0.00293   0.00000  -0.00538  -0.00562   2.05909
    A9        2.03477  -0.00834   0.00000  -0.03561  -0.03586   1.99891
   A10        2.25077  -0.00756   0.00000  -0.02614  -0.02593   2.22484
   A11        2.11123  -0.01071   0.00000  -0.06667  -0.06686   2.04437
   A12        1.87016   0.01816   0.00000   0.09814   0.09813   1.96829
   A13        1.83762  -0.00193   0.00000  -0.01778  -0.01757   1.82005
   A14        2.00465  -0.00077   0.00000  -0.01228  -0.01237   1.99228
   A15        1.97214   0.00137   0.00000   0.00014  -0.00041   1.97173
   A16        1.85281   0.00276   0.00000   0.02475   0.02455   1.87736
   A17        1.84887   0.00106   0.00000   0.02245   0.02241   1.87128
   A18        1.93381  -0.00216   0.00000  -0.01219  -0.01192   1.92189
   A19        1.91022   0.00057   0.00000  -0.00375  -0.00385   1.90637
   A20        1.92174  -0.00071   0.00000  -0.01363  -0.01361   1.90813
   A21        1.92306  -0.00193   0.00000  -0.00787  -0.00790   1.91516
   A22        1.91932  -0.00055   0.00000   0.00527   0.00521   1.92453
   A23        1.90487   0.00298   0.00000   0.02600   0.02602   1.93089
   A24        1.88444  -0.00034   0.00000  -0.00564  -0.00591   1.87853
   A25        1.94080  -0.00097   0.00000   0.00574   0.00556   1.94636
   A26        1.91874  -0.00052   0.00000  -0.00630  -0.00630   1.91243
   A27        1.90491   0.00025   0.00000  -0.00306  -0.00310   1.90181
   A28        1.91603   0.00069   0.00000   0.00728   0.00733   1.92336
   A29        1.89854   0.00181   0.00000   0.01132   0.01137   1.90991
   A30        1.88377  -0.00125   0.00000  -0.01550  -0.01559   1.86817
   A31        1.94458   0.00069   0.00000   0.00550   0.00572   1.95031
   A32        1.90250   0.00058   0.00000   0.00634   0.00624   1.90874
   A33        1.91720   0.00044   0.00000   0.00564   0.00560   1.92280
   A34        1.90703  -0.00127   0.00000  -0.01523  -0.01530   1.89173
   A35        1.91525  -0.00039   0.00000   0.00036   0.00024   1.91549
   A36        1.87591  -0.00007   0.00000  -0.00301  -0.00304   1.87287
   A37        1.94586  -0.00285   0.00000  -0.01985  -0.01992   1.92594
   A38        1.90629   0.00236   0.00000   0.01661   0.01639   1.92268
   A39        1.91141   0.00149   0.00000   0.01501   0.01505   1.92646
   A40        1.90633   0.00025   0.00000  -0.00321  -0.00300   1.90333
   A41        1.91217  -0.00035   0.00000  -0.00466  -0.00459   1.90758
   A42        1.88059  -0.00082   0.00000  -0.00335  -0.00356   1.87703
   A43        1.84536   0.00478   0.00000   0.02557   0.02566   1.87102
   A44        1.93453  -0.00425   0.00000  -0.02967  -0.03021   1.90431
   A45        1.99190   0.00117   0.00000   0.01257   0.01273   2.00463
   A46        1.88149   0.00233   0.00000   0.03322   0.03346   1.91496
   A47        1.89103  -0.00462   0.00000  -0.03228  -0.03234   1.85869
   A48        1.91477   0.00078   0.00000  -0.00671  -0.00643   1.90835
   A49        2.08737  -0.00582   0.00000  -0.01594  -0.01603   2.07135
   A50        2.23875  -0.00041   0.00000  -0.00618  -0.00633   2.23242
   A51        1.97996   0.00402   0.00000   0.02401   0.02360   2.00356
   A52        2.06428  -0.00364   0.00000  -0.01870  -0.01908   2.04520
    D1        1.33572  -0.00826   0.00000  -0.07128  -0.07143   1.26430
    D2       -1.74534  -0.00779   0.00000   0.00000   0.00000  -1.74534
    D3       -1.93649   0.00349   0.00000   0.10348   0.10329  -1.83320
    D4        1.26563   0.00396   0.00000   0.17476   0.17472   1.44036
    D5        3.08352   0.00067   0.00000   0.04283   0.04305   3.12657
    D6       -0.00673   0.00016   0.00000   0.03213   0.03227   0.02554
    D7       -0.12946  -0.00013   0.00000  -0.04140  -0.04162  -0.17107
    D8        3.06348  -0.00064   0.00000  -0.05210  -0.05239   3.01109
    D9       -2.82215  -0.00042   0.00000  -0.05299  -0.05280  -2.87495
   D10        0.34158   0.00112   0.00000  -0.00484  -0.00426   0.33732
   D11        0.39164   0.00012   0.00000   0.03119   0.03063   0.42227
   D12       -2.72782   0.00165   0.00000   0.07934   0.07916  -2.64865
   D13       -0.02054   0.00002   0.00000   0.01990   0.02020  -0.00033
   D14        2.73786   0.00324   0.00000   0.05823   0.05802   2.79589
   D15        3.07050   0.00066   0.00000   0.03119   0.03137   3.10188
   D16       -0.45428   0.00387   0.00000   0.06952   0.06919  -0.38509
   D17       -2.56817  -0.00074   0.00000  -0.00916  -0.00884  -2.57702
   D18        1.68350  -0.00245   0.00000  -0.02131  -0.02095   1.66255
   D19       -0.55827   0.00007   0.00000   0.00714   0.00722  -0.55104
   D20        0.91558   0.00071   0.00000  -0.01800  -0.01813   0.89745
   D21       -1.11593  -0.00100   0.00000  -0.03014  -0.03023  -1.14617
   D22        2.92549   0.00152   0.00000  -0.00169  -0.00206   2.92343
   D23        2.94087   0.00217   0.00000   0.03097   0.03087   2.97174
   D24       -1.23058   0.00141   0.00000   0.02649   0.02640  -1.20418
   D25        0.84615  -0.00066   0.00000   0.00614   0.00614   0.85229
   D26        0.91807   0.00316   0.00000   0.04333   0.04338   0.96145
   D27        3.02980   0.00240   0.00000   0.03885   0.03891   3.06871
   D28       -1.17665   0.00033   0.00000   0.01851   0.01865  -1.15800
   D29       -1.08152   0.00145   0.00000   0.00928   0.00925  -1.07227
   D30        1.03022   0.00069   0.00000   0.00481   0.00477   1.03500
   D31        3.10695  -0.00138   0.00000  -0.01554  -0.01549   3.09147
   D32       -2.89722  -0.00102   0.00000  -0.01562  -0.01537  -2.91259
   D33       -0.86293   0.00230   0.00000   0.02318   0.02299  -0.83993
   D34        1.30937   0.00082   0.00000   0.00000   0.00001   1.30938
   D35       -0.89407  -0.00199   0.00000  -0.02343  -0.02325  -0.91732
   D36        1.14023   0.00132   0.00000   0.01537   0.01511   1.15534
   D37       -2.97066  -0.00016   0.00000  -0.00782  -0.00788  -2.97853
   D38        1.10799   0.00078   0.00000   0.01205   0.01221   1.12019
   D39       -3.14091   0.00410   0.00000   0.05085   0.05058  -3.09033
   D40       -0.96861   0.00262   0.00000   0.02767   0.02759  -0.94102
   D41        0.95666   0.00087   0.00000   0.00000   0.00001   0.95667
   D42        3.08228   0.00074   0.00000   0.00873   0.00868   3.09096
   D43       -1.13788  -0.00094   0.00000  -0.01565  -0.01562  -1.15350
   D44       -1.15654   0.00173   0.00000   0.01592   0.01599  -1.14055
   D45        0.96908   0.00160   0.00000   0.02465   0.02466   0.99374
   D46        3.03210  -0.00007   0.00000   0.00026   0.00036   3.03246
   D47        3.06249   0.00069   0.00000   0.00409   0.00407   3.06656
   D48       -1.09508   0.00055   0.00000   0.01282   0.01274  -1.08234
   D49        0.96794  -0.00112   0.00000  -0.01156  -0.01156   0.95639
   D50       -0.92193  -0.00059   0.00000   0.00000   0.00001  -0.92192
   D51        1.18398  -0.00135   0.00000  -0.01132  -0.01134   1.17264
   D52       -3.04804  -0.00085   0.00000  -0.00800  -0.00806  -3.05610
   D53       -3.04913   0.00025   0.00000  -0.00081  -0.00078  -3.04991
   D54       -0.94322  -0.00051   0.00000  -0.01214  -0.01213  -0.95535
   D55        1.10794  -0.00001   0.00000  -0.00882  -0.00885   1.09910
   D56        1.17639   0.00030   0.00000   0.00709   0.00713   1.18352
   D57       -3.00089  -0.00047   0.00000  -0.00423  -0.00422  -3.00511
   D58       -0.94973   0.00004   0.00000  -0.00091  -0.00094  -0.95066
   D59        0.99057  -0.00098   0.00000  -0.01164  -0.01173   0.97883
   D60        3.09892  -0.00092   0.00000  -0.01731  -0.01752   3.08140
   D61       -1.12856   0.00033   0.00000  -0.00294  -0.00294  -1.13150
   D62       -1.11268  -0.00130   0.00000  -0.01299  -0.01300  -1.12568
   D63        0.99568  -0.00124   0.00000  -0.01866  -0.01879   0.97689
   D64        3.05138   0.00001   0.00000  -0.00428  -0.00420   3.04718
   D65        3.11781  -0.00024   0.00000  -0.00060  -0.00061   3.11720
   D66       -1.05702  -0.00018   0.00000  -0.00627  -0.00640  -1.06342
   D67        0.99868   0.00107   0.00000   0.00811   0.00819   1.00687
   D68       -1.05770  -0.00009   0.00000  -0.00227  -0.00218  -1.05988
   D69       -3.12760   0.00121   0.00000   0.00244   0.00195  -3.12565
   D70        1.08453   0.00153   0.00000   0.00968   0.00947   1.09400
   D71        3.11715  -0.00139   0.00000  -0.00819  -0.00798   3.10917
   D72        1.04725  -0.00008   0.00000  -0.00349  -0.00385   1.04340
   D73       -1.02380   0.00023   0.00000   0.00376   0.00367  -1.02013
   D74        1.06098  -0.00033   0.00000   0.00045   0.00070   1.06168
   D75       -1.00892   0.00097   0.00000   0.00515   0.00483  -1.00409
   D76       -3.07997   0.00128   0.00000   0.01240   0.01234  -3.06763
   D77       -1.17215   0.00371   0.00000   0.00000   0.00001  -1.17214
   D78        3.06051   0.00014   0.00000  -0.01779  -0.01762   3.04289
   D79        1.01066  -0.00043   0.00000  -0.03533  -0.03566   0.97501
   D80        0.21768  -0.00109   0.00000  -0.01067  -0.01089   0.20680
   D81       -2.94697  -0.00260   0.00000  -0.06036  -0.05995  -3.00692
         Item               Value     Threshold  Converged?
 Maximum Force            0.027986     0.000450     NO 
 RMS     Force            0.006204     0.000300     NO 
 Maximum Displacement     0.182608     0.001800     NO 
 RMS     Displacement     0.047051     0.001200     NO 
 Predicted change in Energy=-1.136036D-02
 GradGradGradGradGradGradGradGradGradGradGradGradGradGradGradGradGradGrad

                          Input orientation:                          
 ---------------------------------------------------------------------
 Center     Atomic      Atomic             Coordinates (Angstroms)
 Number     Number       Type             X           Y           Z
 ---------------------------------------------------------------------
      1          8           0       -3.685319    0.103561   -1.166590
      2          7           0       -3.117046   -0.256041   -0.121548
      3          8           0       -3.685753   -0.760768    0.859526
      4          6           0       -1.670313   -0.018675   -0.003566
      5          6           0       -1.313460    1.280344    0.181359
      6          7           0       -0.065008    1.776192    0.336011
      7          6           0        1.195979    1.030382    0.341023
      8          1           0        1.841305    1.592244    1.035125
      9          6           0        1.901592    0.987767   -1.011612
     10          6           0        3.306103    0.400529   -0.830102
     11          6           0        3.258296   -0.969978   -0.145340
     12          6           0        2.464822   -0.923367    1.159694
     13          6           0        1.049960   -0.388715    0.904829
     14          1           0        0.493521   -0.344101    1.853077
     15          7           0        0.402501   -1.340832    0.009068
     16          6           0       -0.843813   -1.175292   -0.273121
     17          1           0       -2.105702    2.022107    0.251024
     18          1           0        0.065061    2.766514    0.157132
     19          1           0        1.319058    0.371108   -1.705292
     20          1           0        1.957040    2.000354   -1.432886
     21          1           0        3.798898    0.319205   -1.805473
     22          1           0        3.906611    1.092032   -0.222555
     23          1           0        2.780597   -1.693902   -0.814560
     24          1           0        4.275257   -1.329737    0.051962
     25          1           0        2.395112   -1.926180    1.595244
     26          1           0        2.969842   -0.279043    1.891410
     27          1           0       -1.338130   -1.970729   -0.839818
 ---------------------------------------------------------------------
                    Distance matrix (angstroms):
                    1          2          3          4          5
     1  O    0.000000
     2  N    1.242723   0.000000
     3  O    2.202774   1.241243   0.000000
     4  C    2.329767   1.470816   2.314655   0.000000
     5  C    2.971110   2.388546   3.202159   1.359776   0.000000
     6  N    4.261708   3.695168   4.451969   2.431844   1.352189
     7  C    5.192202   4.524494   5.225741   3.071627   2.526907
     8  H    6.132479   5.416576   6.009648   4.000675   3.283099
     9  C    5.658569   5.246523   6.146296   3.845463   3.441706
    10  C    7.005811   6.495381   7.286254   5.061977   4.810145
    11  C    7.099945   6.415237   7.019497   5.021580   5.106040
    12  C    6.655104   5.765774   6.160041   4.389872   4.482064
    13  C    5.191915   4.293599   4.750522   2.891712   2.982436
    14  H    5.175084   4.116199   4.315910   2.869704   2.949347
    15  N    4.492072   3.685247   4.215871   2.458621   3.137638
    16  C    3.241590   2.456743   3.087287   1.446902   2.541116
    17  H    2.861054   2.520234   3.257488   2.102182   1.087526
    18  H    4.786324   4.397647   5.196506   3.285517   2.027216
    19  H    5.040394   4.751903   5.736512   3.461812   3.363973
    20  H    5.958603   5.705898   6.687306   4.390572   3.717576
    21  H    7.514531   7.141205   8.018015   5.768302   5.568438
    22  H    7.713992   7.152570   7.889724   5.690668   5.239060
    23  H    6.720333   6.109821   6.744405   4.824386   5.157452
    24  H    8.179852   7.471886   8.022068   6.088660   6.169525
    25  H    6.979915   6.010044   6.235093   4.766807   5.102389
    26  H    7.334092   6.411141   6.752317   5.018940   4.868536
    27  H    3.149406   2.573055   3.140559   2.149461   3.407769
                    6          7          8          9         10
     6  N    0.000000
     7  C    1.465041   0.000000
     8  H    2.038780   1.101778   0.000000
     9  C    2.511019   1.526213   2.134986   0.000000
    10  C    3.823174   2.494167   2.654222   1.533116   0.000000
    11  C    4.337914   2.913956   3.156952   2.534529   1.532800
    12  C    3.790265   2.469275   2.594724   2.946902   2.533721
    13  C    2.500706   1.533960   2.137148   2.508530   2.953484
    14  H    2.666287   2.160778   2.496998   3.458754   3.957846
    15  N    3.168800   2.522391   3.424308   2.951514   3.488187
    16  C    3.112689   3.066418   4.071931   3.572315   4.473839
    17  H    2.057215   3.448582   4.047031   4.326953   5.752042
    18  H    1.014718   2.080131   2.303220   2.811184   4.132417
    19  H    2.838454   2.153415   3.045292   1.095813   2.171444
    20  H    2.695908   2.160281   2.504202   1.098126   2.177788
    21  H    4.651724   3.447957   3.677201   2.162628   1.095815
    22  H    4.068639   2.769286   2.469304   2.157217   1.099045
    23  H    4.632800   3.356801   3.886177   2.828927   2.159407
    24  H    5.344659   3.890459   3.927940   3.483719   2.170511
    25  H    4.620110   3.428155   3.605516   3.940856   3.482209
    26  H    3.981654   2.695345   2.347027   3.342679   2.825157
    27  H    4.128297   4.101555   5.130204   4.390673   5.214581
                   11         12         13         14         15
    11  C    0.000000
    12  C    1.528034   0.000000
    13  C    2.513457   1.533832   0.000000
    14  H    3.468339   2.168492   1.100359   0.000000
    15  N    2.883911   2.398205   1.458807   2.098125   0.000000
    16  C    4.109231   3.614344   2.364878   2.645762   1.288538
    17  H    6.154848   5.512820   4.024640   3.862832   4.202259
    18  H    4.924390   4.514333   3.388886   3.568716   4.123843
    19  H    2.827120   3.346129   2.731753   3.722234   2.590337
    20  H    3.489114   3.940490   3.463431   4.293706   3.957189
    21  H    2.170320   3.480799   3.924736   4.974986   4.193304
    22  H    2.162905   2.837464   3.409407   4.244986   4.272150
    23  H    1.095499   2.142689   2.766752   3.764170   2.541332
    24  H    1.096615   2.160991   3.466330   4.303142   3.873010
    25  H    2.165419   1.095535   2.156364   2.487067   2.613252
    26  H    2.170011   1.098001   2.161322   2.477472   3.355868
    27  H    4.755095   4.422381   3.354033   3.640405   2.036460
                   16         17         18         19         20
    16  C    0.000000
    17  H    3.477132   0.000000
    18  H    4.068046   2.296774   0.000000
    19  H    3.020013   4.275740   3.283155   0.000000
    20  H    4.390280   4.397943   2.587420   1.770782   0.000000
    21  H    5.112376   6.480229   4.876750   2.482406   2.521414
    22  H    5.264013   6.102231   4.207797   3.068170   2.467950
    23  H    3.701144   6.230579   5.311651   2.682120   3.835115
    24  H    5.131707   7.210487   5.875039   3.836656   4.320696
    25  H    3.813824   6.136222   5.433109   4.162807   4.977866
    26  H    4.475759   5.809243   4.552020   4.010492   4.156003
    27  H    1.094630   4.209732   5.040270   3.646079   5.194167
                   21         22         23         24         25
    21  H    0.000000
    22  H    1.764793   0.000000
    23  H    2.464031   3.062647   0.000000
    24  H    2.529030   2.465000   1.765640   0.000000
    25  H    4.310133   3.833878   2.451471   2.504478   0.000000
    26  H    3.835646   2.688165   3.059398   2.488300   1.769488
    27  H    5.706606   6.104819   4.128097   5.719813   4.457421
                   26         27
    26  H    0.000000
    27  H    5.374014   0.000000
 Symmetry turned off by external request.
 Stoichiometry    C9H13N3O2
 Framework group  C1[X(C9H13N3O2)]
 Deg. of freedom    75
 Full point group                 C1      NOp   1
 Rotational constants (GHZ):           1.6673392           0.4133297           0.3798870
 Standard basis: 6-31G(d) (6D, 7F)
   236 basis functions,   444 primitive gaussians,   236 cartesian basis functions
    52 alpha electrons       52 beta electrons
       nuclear repulsion energy       929.9163434382 Hartrees.
 NAtoms=   27 NActive=   27 NUniq=   27 SFac= 1.00D+00 NAtFMM=   60 NAOKFM=F Big=F
 Integral buffers will be    131072 words long.
 Raffenetti 1 integral format.
 Two-electron integral symmetry is turned off.
 One-electron integrals computed using PRISM.
 NBasis=   236 RedAO= T EigKep=  1.53D-03  NBF=   236
 NBsUse=   236 1.00D-06 EigRej= -1.00D+00 NBFU=   236
 Initial guess from the checkpoint file:  "/home/alexey/tmp/Gau-1144425.chk"
 B after Tr=     0.032170    0.003311    0.001970
         Rot=    0.999998    0.001556    0.001101    0.001110 Ang=   0.25 deg.
 ExpMin= 1.61D-01 ExpMax= 5.48D+03 ExpMxC= 8.25D+02 IAcc=3 IRadAn=         5 AccDes= 0.00D+00
 Harris functional with IExCor=  205 and IRadAn=       5 diagonalized for initial guess.
 HarFok:  IExCor=  205 AccDes= 0.00D+00 IRadAn=         5 IDoV= 1 UseB2=F ITyADJ=14
 ICtDFT=  3500011 ScaDFX=  1.000000  1.000000  1.000000  1.000000
 FoFCou: FMM=F IPFlag=           0 FMFlag=      100000 FMFlg1=           0
         NFxFlg=           0 DoJE=T BraDBF=F KetDBF=T FulRan=T
         wScrn=  0.000000 ICntrl=       500 IOpCl=  0 I1Cent=   200000004 NGrid=           0
         NMat0=    1 NMatS0=      1 NMatT0=    0 NMatD0=    1 NMtDS0=    0 NMtDT0=    0
 Symmetry not used in FoFCou.
 Keep R1 ints in memory in canonical form, NReq=397720213.
 Requested convergence on RMS density matrix=1.00D-08 within 128 cycles.
 Requested convergence on MAX density matrix=1.00D-06.
 Requested convergence on             energy=1.00D-06.
 No special actions if energy rises.
 SCF Done:  E(RHF) =  -661.279469993     A.U. after   15 cycles
            NFock= 15  Conv=0.83D-08     -V/T= 2.0025
 ExpMin= 1.61D-01 ExpMax= 5.48D+03 ExpMxC= 8.25D+02 IAcc=3 IRadAn=         5 AccDes= 0.00D+00
 HarFok:  IExCor=  205 AccDes= 0.00D+00 IRadAn=         5 IDoV=-2 UseB2=F ITyADJ=14
 ICtDFT= 12500011 ScaDFX=  1.000000  1.000000  1.000000  1.000000
 Range of M.O.s used for correlation:    15   236
 NBasis=   236 NAE=    52 NBE=    52 NFC=    14 NFV=     0
 NROrb=    222 NOA=    38 NOB=    38 NVA=   184 NVB=   184
 Fully direct method using O(ONN) memory.
 JobTyp=1 Pass  1:  I=  15 to  52 NPSUse=  4 ParTrn=T ParDer=T DoDerP=T.
 Spin components of T(2) and E(2):
     alpha-alpha T2 =       0.9142889628D-01 E2=     -0.2724694802D+00
     alpha-beta  T2 =       0.4970665039D+00 E2=     -0.1493946281D+01
     beta-beta   T2 =       0.9142889628D-01 E2=     -0.2724694802D+00
 ANorm=    0.1296118936D+01
 E2 =    -0.2038885241D+01 EUMP2 =    -0.66331835523381D+03
          IDoAtm=111111111111111111111111111
          Differentiating once with respect to electric field.
                with respect to dipole field.
          Differentiating once with respect to nuclear coordinates.
 Keep R1 ints in memory in canonical form, NReq=397723379.
          There are     1 degrees of freedom in the 1st order CPHF.  IDoFFX=0 NUNeed=     1.
 LinEq1:  Iter=  0 NonCon=     1 RMS=4.50D-03 Max=1.31D-01 NDo=     1
 AX will form     1 AO Fock derivatives at one time.
 LinEq1:  Iter=  1 NonCon=     1 RMS=1.50D-03 Max=3.19D-02 NDo=     1
 LinEq1:  Iter=  2 NonCon=     1 RMS=6.37D-04 Max=2.05D-02 NDo=     1
 LinEq1:  Iter=  3 NonCon=     1 RMS=2.79D-04 Max=4.09D-03 NDo=     1
 LinEq1:  Iter=  4 NonCon=     1 RMS=8.45D-05 Max=1.30D-03 NDo=     1
 LinEq1:  Iter=  5 NonCon=     1 RMS=3.26D-05 Max=1.07D-03 NDo=     1
[...]
    26  H    2.175529   1.098671   2.167387   2.501430   3.362232
    27  H    4.733628   4.421446   3.355434   3.641529   2.033406
                   16         17         18         19         20
    16  C    0.000000
    17  H    3.465480   0.000000
    18  H    4.101277   2.238258   0.000000
    19  H    2.996817   4.254891   3.530721   0.000000
    20  H    4.381139   4.402263   2.902193   1.767812   0.000000
    21  H    5.098737   6.476657   5.101686   2.499812   2.521731
    22  H    5.249487   6.088895   4.320642   3.070385   2.461949
    23  H    3.691826   6.221714   5.430454   2.705690   3.843516
    24  H    5.130349   7.200308   5.941622   3.850503   4.317395
    25  H    3.819016   6.119620   5.366461   4.175000   4.985363
    26  H    4.489431   5.807793   4.472637   4.032364   4.176065
    27  H    1.094189   4.208956   5.102240   3.608826   5.171413
                   21         22         23         24         25
    21  H    0.000000
    22  H    1.758845   0.000000
    23  H    2.469977   3.062090   0.000000
    24  H    2.517074   2.459455   1.764425   0.000000
    25  H    4.312041   3.836635   2.446456   2.518266   0.000000
    26  H    3.843503   2.699083   3.060675   2.493721   1.767881
    27  H    5.673357   6.075664   4.100495   5.702402   4.455280
                   26         27
    26  H    0.000000
    27  H    5.379197   0.000000
 Symmetry turned off by external request.
 Stoichiometry    C9H13N3O2
 Framework group  C1[X(C9H13N3O2)]
 Deg. of freedom    75
 Full point group                 C1      NOp   1
 Rotational constants (GHZ):           1.6515750           0.4162379           0.3808536

 **********************************************************************

            Population analysis using the SCF Density.

 **********************************************************************

 Alpha  occ. eigenvalues --  -20.60668 -20.60622 -15.84829 -15.62846 -15.56283
 Alpha  occ. eigenvalues --  -11.34500 -11.30260 -11.29171 -11.28511 -11.26954
 Alpha  occ. eigenvalues --  -11.23286 -11.22920 -11.22511 -11.21896  -1.57748
 Alpha  occ. eigenvalues --   -1.37515  -1.30030  -1.23114  -1.14632  -1.09733
 Alpha  occ. eigenvalues --   -1.02480  -1.00964  -0.94485  -0.89763  -0.85214
 Alpha  occ. eigenvalues --   -0.82591  -0.78308  -0.77899  -0.74877  -0.71981
 Alpha  occ. eigenvalues --   -0.71059  -0.68580  -0.66878  -0.65266  -0.63332
 Alpha  occ. eigenvalues --   -0.62210  -0.60195  -0.57383  -0.56774  -0.54943
 Alpha  occ. eigenvalues --   -0.54375  -0.51293  -0.50265  -0.48941  -0.48278
 Alpha  occ. eigenvalues --   -0.47871  -0.46167  -0.45852  -0.43743  -0.41452
 Alpha  occ. eigenvalues --   -0.40086  -0.33094
 Alpha virt. eigenvalues --    0.08838   0.09988   0.17504   0.21385   0.23488
 Alpha virt. eigenvalues --    0.24719   0.26212   0.28129   0.29070   0.29266
 Alpha virt. eigenvalues --    0.29551   0.31703   0.32135   0.32900   0.34059
 Alpha virt. eigenvalues --    0.34500   0.35616   0.37376   0.38879   0.39538
 Alpha virt. eigenvalues --    0.41335   0.42641   0.44457   0.45896   0.47078
 Alpha virt. eigenvalues --    0.48019   0.50298   0.53845   0.57357   0.58582
 Alpha virt. eigenvalues --    0.59600   0.69809   0.70099   0.72981   0.74402
 Alpha virt. eigenvalues --    0.74753   0.75901   0.76416   0.78778   0.79176
 Alpha virt. eigenvalues --    0.80262   0.84144   0.85312   0.86142   0.88337
 Alpha virt. eigenvalues --    0.89586   0.89863   0.92033   0.92863   0.93168
 Alpha virt. eigenvalues --    0.95129   0.97716   0.99123   1.01836   1.02167
 Alpha virt. eigenvalues --    1.04196   1.06002   1.06196   1.08036   1.09055
 Alpha virt. eigenvalues --    1.10065   1.10755   1.11862   1.12462   1.13237
 Alpha virt. eigenvalues --    1.13934   1.14278   1.15325   1.16232   1.16612
 Alpha virt. eigenvalues --    1.17466   1.19134   1.19408   1.21886   1.23405
 Alpha virt. eigenvalues --    1.23777   1.24620   1.25490   1.26975   1.28848
 Alpha virt. eigenvalues --    1.29651   1.31273   1.33241   1.36170   1.37358
 Alpha virt. eigenvalues --    1.41058   1.43066   1.43875   1.50967   1.53348
 Alpha virt. eigenvalues --    1.56032   1.56445   1.61107   1.63996   1.66185
 Alpha virt. eigenvalues --    1.67636   1.70601   1.73254   1.74176   1.75893
 Alpha virt. eigenvalues --    1.80016   1.83615   1.88283   1.91763   1.92107
 Alpha virt. eigenvalues --    1.94805   1.96568   2.00093   2.01065   2.02484
 Alpha virt. eigenvalues --    2.04717   2.04953   2.07563   2.10207   2.11471
 Alpha virt. eigenvalues --    2.14288   2.15367   2.16887   2.20391   2.22498
 Alpha virt. eigenvalues --    2.23090   2.25505   2.27950   2.28235   2.29771
 Alpha virt. eigenvalues --    2.31584   2.33108   2.34828   2.36248   2.37848
 Alpha virt. eigenvalues --    2.38753   2.40708   2.42457   2.45889   2.47169
 Alpha virt. eigenvalues --    2.49112   2.51918   2.53884   2.55126   2.61922
 Alpha virt. eigenvalues --    2.62106   2.64172   2.68118   2.70521   2.70909
 Alpha virt. eigenvalues --    2.72604   2.73907   2.75602   2.78319   2.81665
 Alpha virt. eigenvalues --    2.87993   2.91044   2.91812   2.95163   2.97261
 Alpha virt. eigenvalues --    2.99512   3.02269   3.05635   3.08036   3.09281
 Alpha virt. eigenvalues --    3.09516   3.15586   3.18992   3.21934   3.23852
 Alpha virt. eigenvalues --    3.30793   3.37073   3.38372   3.41947   3.62866
 Alpha virt. eigenvalues --    4.13378   4.17211   4.30629   4.35872   4.48740
 Alpha virt. eigenvalues --    4.56024   4.62083   4.63299   4.73947   4.79725
 Alpha virt. eigenvalues --    4.99995   5.01220   5.05634   5.11338
          Condensed to atoms (all electrons):
               1          2          3          4          5          6
     1  O    8.307666   0.294585  -0.077962  -0.090874   0.007293   0.000115
     2  N    0.294585   5.835252   0.288083   0.232892  -0.050450   0.001499
     3  O   -0.077962   0.288083   8.298307  -0.075502   0.000701  -0.000026
     4  C   -0.090874   0.232892  -0.075502   5.203337   0.583654  -0.050675
     5  C    0.007293  -0.050450   0.000701   0.583654   4.638653   0.335322
     6  N    0.000115   0.001499  -0.000026  -0.050675   0.335322   7.183915
     7  C   -0.000006  -0.000124   0.000006   0.004066  -0.032200   0.182123
     8  H    0.000000   0.000002  -0.000000  -0.000245   0.003375  -0.049759
     9  C   -0.000000  -0.000006  -0.000000   0.000887   0.000909  -0.064285
    10  C    0.000000   0.000000  -0.000000  -0.000044  -0.000065   0.003835
    11  C   -0.000000  -0.000000   0.000000  -0.000029   0.000025  -0.000189
    12  C    0.000000   0.000002  -0.000000  -0.000092  -0.000189   0.003753
    13  C    0.000005  -0.000067  -0.000022  -0.012020  -0.000516  -0.048902
    14  H    0.000001  -0.000098  -0.000012   0.002908   0.005889  -0.006750
    15  N   -0.000015   0.002262  -0.000001  -0.066673  -0.007422   0.002891
    16  C    0.003069  -0.033228   0.001034   0.329024  -0.036421  -0.003926
    17  H    0.003009  -0.003678   0.000021  -0.035846   0.391223  -0.034698
    18  H    0.000002  -0.000075   0.000001   0.002132  -0.027990   0.337327
    19  H    0.000001  -0.000006  -0.000000  -0.001315   0.001099  -0.000102
    20  H    0.000000  -0.000000  -0.000000  -0.000074   0.000131   0.000016
    21  H   -0.000000   0.000000   0.000000   0.000001   0.000001  -0.000079
    22  H    0.000000   0.000000  -0.000000  -0.000000  -0.000003  -0.000114
    23  H    0.000000  -0.000000  -0.000000   0.000039  -0.000000  -0.000030
    24  H    0.000000   0.000000  -0.000000   0.000000  -0.000000   0.000006
    25  H    0.000000  -0.000000   0.000000   0.000023   0.000000  -0.000089
    26  H    0.000000  -0.000000   0.000000   0.000006  -0.000002  -0.000055
    27  H    0.000686   0.000076   0.000483  -0.076513   0.001958   0.000010
               7          8          9         10         11         12
     1  O   -0.000006   0.000000  -0.000000   0.000000  -0.000000   0.000000
     2  N   -0.000124   0.000002  -0.000006   0.000000  -0.000000   0.000002
     3  O    0.000006  -0.000000  -0.000000  -0.000000   0.000000  -0.000000
     4  C    0.004066  -0.000245   0.000887  -0.000044  -0.000029  -0.000092
     5  C   -0.032200   0.003375   0.000909  -0.000065   0.000025  -0.000189
     6  N    0.182123  -0.049759  -0.064285   0.003835  -0.000189   0.003753
     7  C    5.007801   0.417880   0.353033  -0.054798  -0.008821  -0.060643
     8  H    0.417880   0.540972  -0.055444   0.000604  -0.000291  -0.002385
     9  C    0.353033  -0.055444   5.157275   0.324430  -0.050354  -0.005045
    10  C   -0.054798   0.000604   0.324430   5.120124   0.336931  -0.061194
    11  C   -0.008821  -0.000291  -0.050354   0.336931   5.120439   0.335849
    12  C   -0.060643  -0.002385  -0.005045  -0.061194   0.335849   5.119013
    13  C    0.337250  -0.037549  -0.062845   0.000233  -0.051151   0.370344
    14  H   -0.046328  -0.000757   0.004405  -0.000398   0.004163  -0.035764
    15  N   -0.058870   0.003802  -0.013741   0.001667  -0.013295  -0.081933
    16  C   -0.002845   0.000020  -0.001037  -0.000048   0.000018   0.002970
    17  H    0.002194  -0.000073  -0.000080   0.000001   0.000000   0.000000
    18  H   -0.022088  -0.004705   0.001506  -0.000085   0.000003  -0.000115
    19  H   -0.037056   0.004364   0.390865  -0.032625  -0.002242   0.000712
    20  H   -0.042238  -0.001981   0.399253  -0.035377   0.003941  -0.000412
    21  H    0.004590  -0.000080  -0.036198   0.402183  -0.035085   0.004384
    22  H   -0.004832   0.003600  -0.046833   0.397595  -0.045506  -0.001115
    23  H    0.000565   0.000036  -0.001937  -0.039086   0.399324  -0.038060
    24  H   -0.000140  -0.000103   0.004366  -0.038396   0.402284  -0.038732
    25  H    0.005085  -0.000014  -0.000441   0.004215  -0.033623   0.398447
    26  H   -0.003982   0.001664   0.000979  -0.002278  -0.041318   0.396850
    27  H   -0.000428   0.000009  -0.000063   0.000007   0.000012  -0.000044
              13         14         15         16         17         18
     1  O    0.000005   0.000001  -0.000015   0.003069   0.003009   0.000002
     2  N   -0.000067  -0.000098   0.002262  -0.033228  -0.003678  -0.000075
     3  O   -0.000022  -0.000012  -0.000001   0.001034   0.000021   0.000001
     4  C   -0.012020   0.002908  -0.066673   0.329024  -0.035846   0.002132
     5  C   -0.000516   0.005889  -0.007422  -0.036421   0.391223  -0.027990
     6  N   -0.048902  -0.006750   0.002891  -0.003926  -0.034698   0.337327
     7  C    0.337250  -0.046328  -0.058870  -0.002845   0.002194  -0.022088
     8  H   -0.037549  -0.000757   0.003802   0.000020  -0.000073  -0.004705
     9  C   -0.062845   0.004405  -0.013741  -0.001037  -0.000080   0.001506
    10  C    0.000233  -0.000398   0.001667  -0.000048   0.000001  -0.000085
    11  C   -0.051151   0.004163  -0.013295   0.000018   0.000000   0.000003
    12  C    0.370344  -0.035764  -0.081933   0.002970   0.000000  -0.000115
    13  C    5.043060   0.403983   0.252947  -0.072628  -0.000053   0.002880
    14  H    0.403983   0.522733  -0.038100  -0.005264   0.000082  -0.000124
    15  N    0.252947  -0.038100   6.927763   0.613499  -0.000058  -0.000140
    16  C   -0.072628  -0.005264   0.613499   4.668374   0.001923  -0.000155
    17  H   -0.000053   0.000082  -0.000058   0.001923   0.424501  -0.003344
    18  H    0.002880  -0.000124  -0.000140  -0.000155  -0.003344   0.314772
    19  H   -0.007333   0.000103   0.007138   0.002771   0.000015  -0.000152
    20  H    0.004428  -0.000067   0.000127  -0.000040   0.000000   0.000704
    21  H   -0.000458   0.000010  -0.000047   0.000004  -0.000000   0.000001
    22  H    0.000065  -0.000053   0.000022  -0.000002   0.000000   0.000001
    23  H   -0.007537   0.000003   0.008405   0.000109   0.000000   0.000000
    24  H    0.004712  -0.000056   0.000128   0.000008   0.000000  -0.000000
    25  H   -0.035770  -0.002828   0.000336  -0.000004  -0.000000   0.000002
    26  H   -0.047088  -0.001019   0.004850  -0.000074   0.000000  -0.000000
    27  H    0.005495  -0.000189  -0.037535   0.407700  -0.000097   0.000001
              19         20         21         22         23         24
     1  O    0.000001   0.000000  -0.000000   0.000000   0.000000   0.000000
     2  N   -0.000006  -0.000000   0.000000   0.000000  -0.000000   0.000000
     3  O   -0.000000  -0.000000   0.000000  -0.000000  -0.000000  -0.000000
     4  C   -0.001315  -0.000074   0.000001  -0.000000   0.000039   0.000000
     5  C    0.001099   0.000131   0.000001  -0.000003  -0.000000  -0.000000
     6  N   -0.000102   0.000016  -0.000079  -0.000114  -0.000030   0.000006
     7  C   -0.037056  -0.042238   0.004590  -0.004832   0.000565  -0.000140
     8  H    0.004364  -0.001981  -0.000080   0.003600   0.000036  -0.000103
     9  C    0.390865   0.399253  -0.036198  -0.046833  -0.001937   0.004366
    10  C   -0.032625  -0.035377   0.402183   0.397595  -0.039086  -0.038396
    11  C   -0.002242   0.003941  -0.035085  -0.045506   0.399324   0.402284
    12  C    0.000712  -0.000412   0.004384  -0.001115  -0.038060  -0.038732
    13  C   -0.007333   0.004428  -0.000458   0.000065  -0.007537   0.004712
    14  H    0.000103  -0.000067   0.000010  -0.000053   0.000003  -0.000056
    15  N    0.007138   0.000127  -0.000047   0.000022   0.008405   0.000128
    16  C    0.002771  -0.000040   0.000004  -0.000002   0.000109   0.000008
    17  H    0.000015   0.000000  -0.000000   0.000000   0.000000   0.000000
    18  H   -0.000152   0.000704   0.000001   0.000001   0.000000  -0.000000
    19  H    0.506817  -0.024594  -0.002797   0.003989   0.001527  -0.000068
    20  H   -0.024594   0.540800  -0.002734  -0.002979  -0.000047  -0.000083
    21  H   -0.002797  -0.002734   0.525922  -0.027590  -0.002916  -0.002259
    22  H    0.003989  -0.002979  -0.027590   0.572415   0.004159  -0.003653
    23  H    0.001527  -0.000047  -0.002916   0.004159   0.500937  -0.025647
    24  H   -0.000068  -0.000083  -0.002259  -0.003653  -0.025647   0.539434
    25  H   -0.000028   0.000013  -0.000088  -0.000080  -0.002300  -0.002319
    26  H    0.000020  -0.000031  -0.000080   0.002391   0.004071  -0.003015
    27  H    0.000101   0.000000  -0.000000   0.000000  -0.000034  -0.000000
              25         26         27
     1  O    0.000000   0.000000   0.000686
     2  N   -0.000000  -0.000000   0.000076
     3  O    0.000000   0.000000   0.000483
     4  C    0.000023   0.000006  -0.076513
     5  C    0.000000  -0.000002   0.001958
     6  N   -0.000089  -0.000055   0.000010
     7  C    0.005085  -0.003982  -0.000428
     8  H   -0.000014   0.001664   0.000009
     9  C   -0.000441   0.000979  -0.000063
    10  C    0.004215  -0.002278   0.000007
    11  C   -0.033623  -0.041318   0.000012
    12  C    0.398447   0.396850  -0.000044
    13  C   -0.035770  -0.047088   0.005495
    14  H   -0.002828  -0.001019  -0.000189
    15  N    0.000336   0.004850  -0.037535
    16  C   -0.000004  -0.000074   0.407700
    17  H   -0.000000   0.000000  -0.000097
    18  H    0.000002  -0.000000   0.000001
    19  H   -0.000028   0.000020   0.000101
    20  H    0.000013  -0.000031   0.000000
    21  H   -0.000088  -0.000080  -0.000000
    22  H   -0.000080   0.002391   0.000000
    23  H   -0.002300   0.004071  -0.000034
    24  H   -0.002319  -0.003015  -0.000000
    25  H    0.508058  -0.024211  -0.000013
    26  H   -0.024211   0.561691   0.000001
    27  H   -0.000013   0.000001   0.470643
 Mulliken charges:
               1
     1  O   -0.447576
     2  N    0.433078
     3  O   -0.435112
     4  C    0.050936
     5  C    0.185027
     6  N   -0.791135
     7  C    0.060805
     8  H    0.177057
     9  C   -0.299601
    10  C   -0.327429
    11  C   -0.321085
    12  C   -0.306599
    13  C   -0.041464
    14  H    0.193527
    15  N   -0.508007
    16  C    0.125150
    17  H    0.254956
    18  H    0.399639
    19  H    0.188796
    20  H    0.161244
    21  H    0.173315
    22  H    0.148525
    23  H    0.198420
    24  H    0.163536
    25  H    0.185632
    26  H    0.150631
    27  H    0.227734
 Sum of Mulliken charges =  -0.00000
 Mulliken charges with hydrogens summed into heavy atoms:
               1
     1  O   -0.447576
     2  N    0.433078
     3  O   -0.435112
     4  C    0.050936
     5  C    0.439983
     6  N   -0.391495
     7  C    0.237862
     9  C    0.050440
    10  C   -0.005590
    11  C    0.040871
    12  C    0.029663
    13  C    0.152063
    15  N   -0.508007
    16  C    0.352883
 Electronic spatial extent (au):  <R**2>=           2987.4740
 Charge=             -0.0000 electrons
 Dipole moment (field-independent basis, Debye):
    X=              4.5354    Y=              4.5910    Z=              1.2149  Tot=              6.5668
 Quadrupole moment (field-independent basis, Debye-Ang):
   XX=           -102.0586   YY=            -76.1336   ZZ=            -85.8636
   XY=             -2.7000   XZ=             -0.9906   YZ=              4.4632
 Traceless Quadrupole moment (field-independent basis, Debye-Ang):
   XX=            -14.0400   YY=             11.8850   ZZ=              2.1550
   XY=             -2.7000   XZ=             -0.9906   YZ=              4.4632
 Octapole moment (field-independent basis, Debye-Ang**2):
  XXX=             69.6091  YYY=             33.2059  ZZZ=              1.3967  XYY=            -17.4606
  XXY=             17.4782  XXZ=              8.8862  XZZ=              3.5757  YZZ=             -1.1645
  YYZ=              3.6687  XYZ=             -9.2421
 Hexadecapole moment (field-independent basis, Debye-Ang**3):
 XXXX=          -3259.6434 YYYY=           -541.3019 ZZZZ=           -375.4522 XXXY=            -69.6305
 XXXZ=            -46.2548 YYYX=             -4.2921 YYYZ=             57.6680 ZZZX=            -24.7076
 ZZZY=             40.3225 XXYY=           -571.1539 XXZZ=           -576.6398 YYZZ=           -162.6230
 XXYZ=             42.7133 YYXZ=              4.4637 ZZXY=              1.6091
 N-N= 9.302526695717D+02 E-N=-3.407171346861D+03  KE= 6.595980398545D+02
 Unable to Open any file for archive entry.
 1\1\GINC-LOTUS\FOpt\RMP2-FC\6-31G(d)\C9H13N3O2\ALEXEY\30-Jun-2023\0\\#
 MP2/6-31G* SCF=Tight Opt=(ModRedun, MaxCycle=20 ) NoSymm\\MolName:\\0,
 1\O,-3.6185518124,0.2016361955,-1.2128618647\N,-3.1057173467,-0.231399
 7382,-0.1617420831\O,-3.7050835328,-0.9144304181,0.6923691075\C,-1.675
 5953821,-0.0248478133,0.052013982\C,-1.3027732111,1.2800871701,0.20123
 67361\N,-0.054905781,1.7840910035,0.3018118646\C,1.2019004839,1.050531
 7023,0.3128498837\H,1.8621842905,1.6214891409,0.9829110555\C,1.8895099
 046,0.9642256905,-1.0492599576\C,3.2901050786,0.3691441317,-0.86400367
 56\C,3.2519494358,-0.9796401669,-0.1409158866\C,2.4765750734,-0.896961
 8835,1.1753105128\C,1.0616617417,-0.3656361542,0.9171786855\H,0.493773
 0241,-0.2813004462,1.8571626945\N,0.407189711,-1.3302563552,0.03867758
 97\C,-0.8458567053,-1.1681097636,-0.243014126\H,-2.0917781798,2.028430
 3865,0.2462347786\H,0.0032874448,2.7758511099,0.4949575004\H,1.2849223
 12,0.339277376,-1.7155882873\H,1.9493223216,1.9630797512,-1.4988020765
 \H,3.7805453267,0.2629725206,-1.8384861034\H,3.8989580334,1.0773667813
 ,-0.2840481242\H,2.7644069661,-1.7233926623,-0.7789575592\H,4.27374579
 38,-1.3308172496,0.046255151\H,2.4007906237,-1.8880345152,1.6347170525
 \H,2.9946911246,-0.2425359146,1.8897055807\H,-1.3282467391,-1.97583987
 91,-0.8016924309\\Version=ES64L-G16RevC.02\HF=-661.280289\MP2=-663.321
 4712\RMSD=5.825e-09\RMSF=1.388e-03\Dipole=1.6550495,1.6305624,0.436099
 2\PG=C01 [X(C9H13N3O2)]\\@
 The archive entry for this job was punched.


 HE THAT FOLLOWS NATURE IS NEVER LOST.

                             -- BACON
 Job cpu time:       0 days  1 hours 25 minutes 15.7 seconds.
 Elapsed time:       0 days  0 hours 25 minutes 30.0 seconds.
 File lengths (MBytes):  RWF=     36 Int=      0 D2E=      0 Chk=      7 Scr=      1
 Normal termination of Gaussian 16 at Fri Jun 30 12:57:51 2023.
