 Entering Gaussian System, Link 0=g16
 Initial command:
 /home/alexey/programs//g16/l1.exe "/home/alexey/tmp/Gau-1141066.inp" -scrdir="/home/alexey/tmp/"
 Entering Link 1 = /home/alexey/programs//g16/l1.exe PID=   1141068.
  
 Copyright (c) 1988-2021, Gaussian, Inc.  All Rights Reserved.
  
 This is part of the Gaussian(R) 16 program.  It is based on
 the Gaussian(R) 09 system (copyright 2009, Gaussian, Inc.),
 the Gaussian(R) 03 system (copyright 2003, Gaussian, Inc.),
 the Gaussian(R) 98 system (copyright 1998, Gaussian, Inc.),
 the Gaussian(R) 94 system (copyright 1995, Gaussian, Inc.),
 the Gaussian 92(TM) system (copyright 1992, Gaussian, Inc.),
 the Gaussian 90(TM) system (copyright 1990, Gaussian, Inc.),
 the Gaussian 88(TM) system (copyright 1988, Gaussian, Inc.),
 the Gaussian 86(TM) system (copyright 1986, Carnegie Mellon
 University), and the Gaussian 82(TM) system (copyright 1983,
 Carnegie Mellon University). Gaussian is a federally registered
 trademark of Gaussian, Inc.
  
 This software contains proprietary and confidential information,
 including trade secrets, belonging to Gaussian, Inc.
  
 This software is provided under written license and may be
 used, copied, transmitted, or stored only in accord with that
 written license.
  
 The following legend is applicable only to US Government
 contracts under FAR:
  
                    RESTRICTED RIGHTS LEGEND
  
 Use, reproduction and disclosure by the US Government is
 subject to restrictions as set forth in subparagraphs (a)
 and (c) of the Commercial Computer Software - Restricted
 Rights clause in FAR 52.227-19.
  
 Gaussian, Inc.
 340 Quinnipiac St., Bldg. 40, Wallingford CT 06492
  
  
 ---------------------------------------------------------------
 Warning -- This program may not be used in any manner that
 competes with the business of Gaussian, Inc. or will provide
 assistance to any competitor of Gaussian, Inc.  The licensee
 of this program is prohibited from giving any competitor of
 Gaussian, Inc. access to this program.  By using this program,
 the user acknowledges that Gaussian, Inc. is engaged in the
 business of creating and licensing software in the field of
 computational chemistry and represents and warrants to the
 licensee that it is not a competitor of Gaussian, Inc. and that
 it will not use this program in any manner prohibited above.
 ---------------------------------------------------------------
  

 Cite this work as:
 Gaussian 16, Revision C.02,
 M. J. Frisch, G. W. Trucks, H. B. Schlegel, G. E. Scuseria, 
 M. A. Robb, J. R. Cheeseman, G. Scalmani, V. Barone, 
 G. A. Petersson, H. Nakatsuji, X. Li, M. Caricato, A. V. Marenich, 
 J. Bloino, B. G. Janesko, R. Gomperts, B. Mennucci, H. P. Hratchian, 
 J. V. Ortiz, A. F. Izmaylov, J. L. Sonnenberg, D. Williams-Young, 
 F. Ding, F. Lipparini, F. Egidi, J. Goings, B. Peng, A. Petrone, 
 T. Henderson, D. Ranasinghe, V. G. Zakrzewski, J. Gao, N. Rega, 
 G. Zheng, W. Liang, M. Hada, M. Ehara, K. Toyota, R. Fukuda, 
 J. Hasegawa, M. Ishida, T. Nakajima, Y. Honda, O. Kitao, H. Nakai, 
 T. Vreven, K. Throssell, J. A. Montgomery, Jr., J. E. Peralta, 
 F. Ogliaro, M. J. Bearpark, J. J. Heyd, E. N. Brothers, K. N. Kudin, 
 V. N. Staroverov, T. A. Keith, R. Kobayashi, J. Normand, 
 K. Raghavachari, A. P. Rendell, J. C. Burant, S. S. Iyengar, 
 J. Tomasi, M. Cossi, J. M. Millam, M. Klene, C. Adamo, R. Cammi, 
 J. W. Ochterski, R. L. Martin, K. Morokuma, O. Farkas, 
 J. B. Foresman, and D. J. Fox, Gaussian, Inc., Wallingford CT, 2019.
 
 ******************************************
 Gaussian 16:  ES64L-G16RevC.02  7-Dec-2021
                30-Jun-2023 
 ******************************************
 %mem=8GB
 %NPROCS=4
 Will use up to    4 processors via shared memory.
 %NoSave
 ---------------------------------------------------------
 #MP2/6-31G* SCF=Tight Opt=(ModRedun, MaxCycle=20 ) NoSymm
 ---------------------------------------------------------
 1/6=20,18=120,19=15,38=1/1,3;
 2/9=110,12=2,15=1,17=6,18=5,40=1/2;
 3/5=1,6=6,7=1,11=9,25=1,30=1,71=1/1,2,3;
 4//1;
 5/5=2,32=2,38=5/2;
 8/6=4,10=2/1;
 9/15=2,16=-3/6;
 10/5=1,31=1/2;
 6/7=2,8=2,9=2,10=2/1;
 7/12=2,30=1/1,2,3,16;
 1/6=20,18=20,19=15/3(2);
 2/9=110,15=1/2;
 99//99;
 2/9=110,15=1/2;
 3/5=1,6=6,7=1,11=9,25=1,30=1,71=1/1,2,3;
 4/5=5,16=3,69=1/1;
 5/5=2,32=2,38=5/2;
 8/6=4,10=2/1;
 9/15=2,16=-3/6;
 10/5=1,31=1/2;
 7/12=2,30=1/1,2,3,16;
 1/6=20,18=20,19=15/3(-8);
 2/9=110,15=1/2;
 6/7=2,8=2,9=2,10=2/1;
 99/9=10/99;
 --------
 MolName:
 --------
 Symbolic Z-matrix:
 Charge =  0 Multiplicity = 1
 8                    0    -3.73844  -0.12725  -1.16929 
 7                    0    -3.18279  -0.27377  -0.0841 
 8                    0    -3.73003  -0.46481   0.99818 
 6                    0    -1.72864  -0.01587  -0.05083 
 6                    0    -1.38254   1.31163   0.18231 
 7                    0    -0.10176   1.775     0.32849 
 6                    0     1.18165   1.00564   0.33047 
 1                    0     1.84893   1.5464    1.05051 
 6                    0     1.93286   0.98896  -1.02422 
 6                    0     3.35112   0.4237   -0.81754 
 6                    0     3.30638  -0.95834  -0.14672 
 6                    0     2.47117  -0.9282    1.15127 
 6                    0     1.02717  -0.42043   0.88743 
 1                    0     0.48647  -0.40912   1.86287 
 7                    0     0.36979  -1.35519  -0.03301 
 6                    0    -0.87649  -1.18666  -0.32929 
 1                    0    -2.19363   2.0485    0.30805 
 1                    0     0.13028   2.75316   0.13998 
 1                    0     1.37994   0.36675  -1.75985 
 1                    0     2.00739   2.01872  -1.43372 
 1                    0     3.87641   0.35079  -1.79496 
 1                    0     3.92982   1.11836  -0.16852 
 1                    0     2.85794  -1.69091  -0.85521 
 1                    0     4.33942  -1.30178   0.07943 
 1                    0     2.42623  -1.95262   1.58164 
 1                    0     2.96628  -0.26988   1.89552 
 1                    0    -1.39592  -1.98876  -0.8759 
 
 The following ModRedundant input section has been read:
 D       1       2       4      16 F                                           
 D       7      13      15      16 F                                           
 D       7       9      10      11 F                                           
 D       9      10      11      12 F                                           
 D       6       7      13      15 F                                           
 

 GradGradGradGradGradGradGradGradGradGradGradGradGradGradGradGradGradGrad
 Berny optimization.
 Initialization pass.
                           ----------------------------
                           !    Initial Parameters    !
                           ! (Angstroms and Degrees)  !
 --------------------------                            --------------------------
 ! Name  Definition              Value          Derivative Info.                !
 --------------------------------------------------------------------------------
 ! R1    R(1,2)                  1.2279         estimate D2E/DX2                !
 ! R2    R(2,3)                  1.2277         estimate D2E/DX2                !
 ! R3    R(2,4)                  1.4772         estimate D2E/DX2                !
 ! R4    R(4,5)                  1.3915         estimate D2E/DX2                !
 ! R5    R(4,16)                 1.4746         estimate D2E/DX2                !
 ! R6    R(5,6)                  1.3698         estimate D2E/DX2                !
 ! R7    R(5,17)                 1.103          estimate D2E/DX2                !
 ! R8    R(6,7)                  1.4963         estimate D2E/DX2                !
 ! R9    R(6,18)                 1.0228         estimate D2E/DX2                !
 ! R10   R(7,8)                  1.1208         estimate D2E/DX2                !
 ! R11   R(7,9)                  1.5491         estimate D2E/DX2                !
 ! R12   R(7,13)                 1.5387         estimate D2E/DX2                !
 ! R13   R(9,10)                 1.5407         estimate D2E/DX2                !
 ! R14   R(9,19)                 1.1109         estimate D2E/DX2                !
 ! R15   R(9,20)                 1.1107         estimate D2E/DX2                !
 ! R16   R(10,11)                1.5369         estimate D2E/DX2                !
 ! R17   R(10,21)                1.112          estimate D2E/DX2                !
 ! R18   R(10,22)                1.113          estimate D2E/DX2                !
 ! R19   R(11,12)                1.5438         estimate D2E/DX2                !
 ! R20   R(11,23)                1.1134         estimate D2E/DX2                !
 ! R21   R(11,24)                1.1119         estimate D2E/DX2                !
 ! R22   R(12,13)                1.5532         estimate D2E/DX2                !
 ! R23   R(12,25)                1.1121         estimate D2E/DX2                !
 ! R24   R(12,26)                1.1101         estimate D2E/DX2                !
 ! R25   R(13,14)                1.1153         estimate D2E/DX2                !
 ! R26   R(13,15)                1.4674         estimate D2E/DX2                !
 ! R27   R(15,16)                1.2921         estimate D2E/DX2                !
 ! R28   R(16,27)                1.1009         estimate D2E/DX2                !
 ! A1    A(1,2,3)              126.5784         estimate D2E/DX2                !
 ! A2    A(1,2,4)              116.392          estimate D2E/DX2                !
 ! A3    A(3,2,4)              116.493          estimate D2E/DX2                !
 ! A4    A(2,4,5)              114.5291         estimate D2E/DX2                !
 ! A5    A(2,4,16)             115.2135         estimate D2E/DX2                !
 ! A6    A(5,4,16)             130.191          estimate D2E/DX2                !
 ! A7    A(4,5,6)              124.9681         estimate D2E/DX2                !
 ! A8    A(4,5,17)             118.2624         estimate D2E/DX2                !
 ! A9    A(6,5,17)             116.7041         estimate D2E/DX2                !
 ! A10   A(5,6,7)              128.9136         estimate D2E/DX2                !
 ! A11   A(5,6,18)             121.06           estimate D2E/DX2                !
 ! A12   A(7,6,18)             107.2998         estimate D2E/DX2                !
 ! A13   A(6,7,8)              105.2733         estimate D2E/DX2                !
 ! A14   A(6,7,9)              114.8534         estimate D2E/DX2                !
 ! A15   A(6,7,13)             113.0093         estimate D2E/DX2                !
 ! A16   A(8,7,9)              106.1585         estimate D2E/DX2                !
 ! A17   A(8,7,13)             105.9256         estimate D2E/DX2                !
 ! A18   A(9,7,13)             110.8076         estimate D2E/DX2                !
 ! A19   A(7,9,10)             109.453          estimate D2E/DX2                !
 ! A20   A(7,9,19)             110.1063         estimate D2E/DX2                !
 ! A21   A(7,9,20)             110.1799         estimate D2E/DX2                !
 ! A22   A(10,9,19)            109.9698         estimate D2E/DX2                !
 ! A23   A(10,9,20)            109.1379         estimate D2E/DX2                !
 ! A24   A(19,9,20)            107.9717         estimate D2E/DX2                !
 ! A25   A(9,10,11)            111.2033         estimate D2E/DX2                !
 ! A26   A(9,10,21)            109.9368         estimate D2E/DX2                !
 ! A27   A(9,10,22)            109.1403         estimate D2E/DX2                !
 ! A28   A(11,10,21)           109.7817         estimate D2E/DX2                !
 ! A29   A(11,10,22)           108.7763         estimate D2E/DX2                !
 ! A30   A(21,10,22)           107.9308         estimate D2E/DX2                !
 ! A31   A(10,11,12)           111.4185         estimate D2E/DX2                !
 ! A32   A(10,11,23)           109.0042         estimate D2E/DX2                !
 ! A33   A(10,11,24)           109.846          estimate D2E/DX2                !
 ! A34   A(12,11,23)           109.2659         estimate D2E/DX2                !
 ! A35   A(12,11,24)           109.7353         estimate D2E/DX2                !
 ! A36   A(23,11,24)           107.4814         estimate D2E/DX2                !
 ! A37   A(11,12,13)           111.5016         estimate D2E/DX2                !
 ! A38   A(11,12,25)           109.2242         estimate D2E/DX2                !
 ! A39   A(11,12,26)           109.5093         estimate D2E/DX2                !
 ! A40   A(13,12,25)           109.2272         estimate D2E/DX2                !
 ! A41   A(13,12,26)           109.5505         estimate D2E/DX2                !
 ! A42   A(25,12,26)           107.7487         estimate D2E/DX2                !
 ! A43   A(7,13,12)            105.731          estimate D2E/DX2                !
 ! A44   A(7,13,14)            110.8443         estimate D2E/DX2                !
 ! A45   A(7,13,15)            114.0992         estimate D2E/DX2                !
 ! A46   A(12,13,14)           107.7851         estimate D2E/DX2                !
 ! A47   A(12,13,15)           108.3482         estimate D2E/DX2                !
 ! A48   A(14,13,15)           109.7474         estimate D2E/DX2                !
 ! A49   A(13,15,16)           119.5301         estimate D2E/DX2                !
 ! A50   A(4,16,15)            128.1464         estimate D2E/DX2                !
 ! A51   A(4,16,27)            113.552          estimate D2E/DX2                !
 ! A52   A(15,16,27)           118.29           estimate D2E/DX2                !
 ! D1    D(1,2,4,5)             87.3441         estimate D2E/DX2                !
 ! D2    D(1,2,4,16)           -89.9993         Frozen                          !
 ! D3    D(3,2,4,5)            -84.8149         estimate D2E/DX2                !
 ! D4    D(3,2,4,16)            97.8417         estimate D2E/DX2                !
 ! D5    D(2,4,5,6)            176.2357         estimate D2E/DX2                !
 ! D6    D(2,4,5,17)            -0.7181         estimate D2E/DX2                !
 ! D7    D(16,4,5,6)            -6.9111         estimate D2E/DX2                !
 ! D8    D(16,4,5,17)          176.1351         estimate D2E/DX2                !
 ! D9    D(2,4,16,15)         -160.0426         estimate D2E/DX2                !
 ! D10   D(2,4,16,27)           21.2325         estimate D2E/DX2                !
 ! D11   D(5,4,16,15)           23.1217         estimate D2E/DX2                !
 ! D12   D(5,4,16,27)         -155.6032         estimate D2E/DX2                !
 ! D13   D(4,5,6,7)             -2.6299         estimate D2E/DX2                !
 ! D14   D(4,5,6,18)           156.1765         estimate D2E/DX2                !
 ! D15   D(17,5,6,7)           174.3667         estimate D2E/DX2                !
 ! D16   D(17,5,6,18)          -26.8268         estimate D2E/DX2                !
 ! D17   D(5,6,7,8)           -146.092          estimate D2E/DX2                !
 ! D18   D(5,6,7,9)             97.5222         estimate D2E/DX2                !
 ! D19   D(5,6,7,13)           -30.9424         estimate D2E/DX2                !
 ! D20   D(18,6,7,8)            52.8349         estimate D2E/DX2                !
 ! D21   D(18,6,7,9)           -63.5509         estimate D2E/DX2                !
 ! D22   D(18,6,7,13)          167.9845         estimate D2E/DX2                !
 ! D23   D(6,7,9,10)           168.4915         estimate D2E/DX2                !
 ! D24   D(6,7,9,19)           -70.5109         estimate D2E/DX2                !
 ! D25   D(6,7,9,20)            48.4756         estimate D2E/DX2                !
 ! D26   D(8,7,9,10)            52.6134         estimate D2E/DX2                !
 ! D27   D(8,7,9,19)           173.611          estimate D2E/DX2                !
 ! D28   D(8,7,9,20)           -67.4025         estimate D2E/DX2                !
 ! D29   D(13,7,9,10)          -61.9509         estimate D2E/DX2                !
 ! D30   D(13,7,9,19)           59.0468         estimate D2E/DX2                !
 ! D31   D(13,7,9,20)          178.0333         estimate D2E/DX2                !
 ! D32   D(6,7,13,12)         -166.0135         estimate D2E/DX2                !
 ! D33   D(6,7,13,14)          -49.4748         estimate D2E/DX2                !
 ! D34   D(6,7,13,15)           75.0225         Frozen                          !
 ! D35   D(8,7,13,12)          -51.2553         estimate D2E/DX2                !
 ! D36   D(8,7,13,14)           65.2834         estimate D2E/DX2                !
 ! D37   D(8,7,13,15)         -170.2193         estimate D2E/DX2                !
 ! D38   D(9,7,13,12)           63.455          estimate D2E/DX2                !
 ! D39   D(9,7,13,14)          179.9937         estimate D2E/DX2                !
 ! D40   D(9,7,13,15)          -55.509          estimate D2E/DX2                !
 ! D41   D(7,9,10,11)           54.812          Frozen                          !
 ! D42   D(7,9,10,21)          176.6062         estimate D2E/DX2                !
 ! D43   D(7,9,10,22)          -65.194          estimate D2E/DX2                !
 ! D44   D(19,9,10,11)         -66.2684         estimate D2E/DX2                !
 ! D45   D(19,9,10,21)          55.5258         estimate D2E/DX2                !
 ! D46   D(19,9,10,22)         173.7256         estimate D2E/DX2                !
 ! D47   D(20,9,10,11)         175.4641         estimate D2E/DX2                !
 ! D48   D(20,9,10,21)         -62.7417         estimate D2E/DX2                !
 ! D49   D(20,9,10,22)          55.4581         estimate D2E/DX2                !
 ! D50   D(9,10,11,12)         -52.8219         Frozen                          !
 ! D51   D(9,10,11,23)          67.8395         estimate D2E/DX2                !
 ! D52   D(9,10,11,24)        -174.639          estimate D2E/DX2                !
 ! D53   D(21,10,11,12)       -174.7063         estimate D2E/DX2                !
 ! D54   D(21,10,11,23)        -54.0449         estimate D2E/DX2                !
 ! D55   D(21,10,11,24)         63.4766         estimate D2E/DX2                !
 ! D56   D(22,10,11,12)         67.3997         estimate D2E/DX2                !
 ! D57   D(22,10,11,23)       -171.9389         estimate D2E/DX2                !
 ! D58   D(22,10,11,24)        -54.4174         estimate D2E/DX2                !
 ! D59   D(10,11,12,13)         56.7507         estimate D2E/DX2                !
 ! D60   D(10,11,12,25)        177.5625         estimate D2E/DX2                !
 ! D61   D(10,11,12,26)        -64.6587         estimate D2E/DX2                !
 ! D62   D(23,11,12,13)        -63.7571         estimate D2E/DX2                !
 ! D63   D(23,11,12,25)         57.0547         estimate D2E/DX2                !
 ! D64   D(23,11,12,26)        174.8335         estimate D2E/DX2                !
 ! D65   D(24,11,12,13)        178.6319         estimate D2E/DX2                !
 ! D66   D(24,11,12,25)        -60.5563         estimate D2E/DX2                !
 ! D67   D(24,11,12,26)         57.2225         estimate D2E/DX2                !
 ! D68   D(11,12,13,7)         -60.5788         estimate D2E/DX2                !
 ! D69   D(11,12,13,14)       -179.1717         estimate D2E/DX2                !
 ! D70   D(11,12,13,15)         62.1283         estimate D2E/DX2                !
 ! D71   D(25,12,13,7)         178.6111         estimate D2E/DX2                !
 ! D72   D(25,12,13,14)         60.0182         estimate D2E/DX2                !
 ! D73   D(25,12,13,15)        -58.6818         estimate D2E/DX2                !
 ! D74   D(26,12,13,7)          60.8067         estimate D2E/DX2                !
 ! D75   D(26,12,13,14)        -57.7862         estimate D2E/DX2                !
 ! D76   D(26,12,13,15)       -176.4862         estimate D2E/DX2                !
 ! D77   D(7,13,15,16)         -67.1599         Frozen                          !
 ! D78   D(12,13,15,16)        175.3712         estimate D2E/DX2                !
 ! D79   D(14,13,15,16)         57.9212         estimate D2E/DX2                !
 ! D80   D(13,15,16,4)          11.8112         estimate D2E/DX2                !
 ! D81   D(13,15,16,27)       -169.5162         estimate D2E/DX2                !
 --------------------------------------------------------------------------------
 Trust Radius=3.00D-01 FncErr=1.00D-07 GrdErr=1.00D-07 EigMax=2.50D+02 EigMin=1.00D-04
 Number of steps in this run=     20 maximum allowed number of steps=    162.
 GradGradGradGradGradGradGradGradGradGradGradGradGradGradGradGradGradGrad

                          Input orientation:                          
 ---------------------------------------------------------------------
 Center     Atomic      Atomic             Coordinates (Angstroms)
 Number     Number       Type             X           Y           Z
 ---------------------------------------------------------------------
      1          8           0       -3.738440   -0.127250   -1.169290
      2          7           0       -3.182790   -0.273770   -0.084100
      3          8           0       -3.730030   -0.464810    0.998180
      4          6           0       -1.728640   -0.015870   -0.050830
      5          6           0       -1.382540    1.311630    0.182310
      6          7           0       -0.101760    1.775000    0.328490
      7          6           0        1.181650    1.005640    0.330470
      8          1           0        1.848930    1.546400    1.050510
      9          6           0        1.932860    0.988960   -1.024220
     10          6           0        3.351120    0.423700   -0.817540
     11          6           0        3.306380   -0.958340   -0.146720
     12          6           0        2.471170   -0.928200    1.151270
     13          6           0        1.027170   -0.420430    0.887430
     14          1           0        0.486470   -0.409120    1.862870
     15          7           0        0.369790   -1.355190   -0.033010
     16          6           0       -0.876490   -1.186660   -0.329290
     17          1           0       -2.193630    2.048500    0.308050
     18          1           0        0.130280    2.753160    0.139980
     19          1           0        1.379940    0.366750   -1.759850
     20          1           0        2.007390    2.018720   -1.433720
     21          1           0        3.876410    0.350790   -1.794960
     22          1           0        3.929820    1.118360   -0.168520
     23          1           0        2.857940   -1.690910   -0.855210
     24          1           0        4.339420   -1.301780    0.079430
     25          1           0        2.426230   -1.952620    1.581640
     26          1           0        2.966280   -0.269880    1.895520
     27          1           0       -1.395920   -1.988760   -0.875900
 ---------------------------------------------------------------------
                    Distance matrix (angstroms):
                    1          2          3          4          5
     1  O    0.000000
     2  N    1.227946   0.000000
     3  O    2.193614   1.227721   0.000000
     4  C    2.302749   1.477217   2.303808   0.000000
     5  C    3.073673   2.413580   3.054847   1.391544   0.000000
     6  N    4.368906   3.722960   4.316199   2.449048   1.369846
     7  C    5.266878   4.566957   5.170364   3.107839   2.586629
     8  H    6.240779   5.469787   5.930641   4.056186   3.354294
     9  C    5.781921   5.352400   6.186426   3.919662   3.542839
    10  C    7.119630   6.611836   7.364032   5.156067   4.918908
    11  C    7.166997   6.525480   7.146008   5.123365   5.219865
    12  C    6.677258   5.824232   6.220374   4.462712   4.561447
    13  C    5.198759   4.323094   4.758696   2.939131   3.050234
    14  H    5.208004   4.156017   4.304609   2.953575   3.046057
    15  N    4.435823   3.713880   4.320261   2.489479   3.198273
    16  C    3.165234   2.492490   3.228922   1.474601   2.599860
    17  H    3.050059   2.554439   3.025480   2.146307   1.103021
    18  H    4.997794   4.493212   5.098415   3.340587   2.090078
    19  H    5.175965   4.902745   5.866005   3.567971   3.506577
    20  H    6.139192   5.832234   6.708207   4.473238   3.821407
    21  H    7.655451   7.290365   8.144002   5.881583   5.699944
    22  H    7.832962   7.248060   7.908282   5.772218   5.327439
    23  H    6.786450   6.252465   6.952678   4.948687   5.298430
    24  H    8.257763   7.593892   8.164597   6.204183   6.291369
    25  H    6.993050   6.087227   6.360310   4.866097   5.207704
    26  H    7.373376   6.459874   6.758978   5.088720   4.934420
    27  H    3.006443   2.600200   3.358968   2.164195   3.465914
                    6          7          8          9         10
     6  N    0.000000
     7  C    1.496349   0.000000
     8  H    2.092549   1.120777   0.000000
     9  C    2.566586   1.549122   2.149951   0.000000
    10  C    3.880950   2.522535   2.647006   1.540681   0.000000
    11  C    4.394586   2.932474   3.135481   2.539398   1.536892
    12  C    3.821548   2.465018   2.553621   2.949243   2.545223
    13  C    2.531168   1.538748   2.137827   2.541862   3.003368
    14  H    2.733261   2.198425   2.517992   3.518801   4.010537
    15  N    3.186084   2.522846   3.432360   2.986758   3.559251
    16  C    3.131184   3.078539   4.098949   3.620594   4.550202
    17  H    2.109773   3.532786   4.140730   4.463797   5.886525
    18  H    1.022827   2.048290   2.288906   2.777959   4.088648
    19  H    2.922288   2.194752   3.083772   1.110863   2.185576
    20  H    2.759220   2.195574   2.533692   1.110698   2.174713
    21  H    4.728980   3.493997   3.692812   2.186021   1.112023
    22  H    4.114831   2.795377   2.449358   2.176423   1.112957
    23  H    4.708875   3.389272   3.889736   2.840078   2.171686
    24  H    5.408575   3.919020   3.906106   3.501009   2.181415
    25  H    4.675069   3.444664   3.585877   3.960658   3.501197
    26  H    4.006243   2.694668   2.293771   3.343279   2.826632
    27  H    4.158280   4.131056   5.170828   4.468735   5.325200
                   11         12         13         14         15
    11  C    0.000000
    12  C    1.543782   0.000000
    13  C    2.560002   1.553248   0.000000
    14  H    3.505993   2.171371   1.115333   0.000000
    15  N    2.965465   2.449620   1.467356   2.122033   0.000000
    16  C    4.193073   3.669562   2.385673   2.695885   1.292052
    17  H    6.284744   5.597510   4.099372   3.954782   4.274640
    18  H    4.893367   4.478268   3.381533   3.618734   4.118960
    19  H    2.840638   3.367833   2.784276   3.811084   2.639594
    20  H    3.493799   3.947354   3.506853   4.367506   4.003372
    21  H    2.180700   3.505822   3.988504   5.044688   4.279161
    22  H    2.168372   2.838646   3.450838   4.279766   4.337122
    23  H    1.113425   2.181119   2.828892   3.828161   2.641895
    24  H    1.111875   2.186038   3.521455   4.338516   3.971581
    25  H    2.179561   1.112059   2.187899   2.494825   2.681970
    26  H    2.181832   1.110147   2.190675   2.483931   3.411581
    27  H    4.868788   4.493172   3.382360   3.679608   2.056601
                   16         17         18         19         20
    16  C    0.000000
    17  H    3.550679   0.000000
    18  H    4.093407   2.434204   0.000000
    19  H    3.090479   4.458127   3.296355   0.000000
    20  H    4.450954   4.547881   2.557240   1.796958   0.000000
    21  H    5.205958   6.644566   4.852717   2.496768   2.530953
    22  H    5.332877   6.211998   4.147800   3.098247   2.471258
    23  H    3.804843   6.391770   5.308511   2.690134   3.849606
    24  H    5.233166   7.345569   5.844918   3.863349   4.330555
    25  H    3.891826   6.242924   5.430850   4.199971   5.003935
    26  H    4.533999   5.875340   4.501509   4.035282   4.152228
    27  H    1.100888   4.282236   5.084005   3.746357   5.287114
                   21         22         23         24         25
    21  H    0.000000
    22  H    1.799256   0.000000
    23  H    2.467580   3.084229   0.000000
    24  H    2.541398   2.467049   1.794368   0.000000
    25  H    4.337067   3.841193   2.488595   2.518040   0.000000
    26  H    3.851391   2.667561   3.097996   2.499703   1.794934
    27  H    5.840859   6.206294   4.264325   5.854803   4.544187
                   26         27
    26  H    0.000000
    27  H    5.446476   0.000000
 Symmetry turned off by external request.
 Stoichiometry    C9H13N3O2
 Framework group  C1[X(C9H13N3O2)]
 Deg. of freedom    75
 Full point group                 C1      NOp   1
 Rotational constants (GHZ):           1.6643598           0.4002649           0.3728069
 Standard basis: 6-31G(d) (6D, 7F)
   236 basis functions,   444 primitive gaussians,   236 cartesian basis functions
    52 alpha electrons       52 beta electrons
       nuclear repulsion energy       921.2065623204 Hartrees.
 NAtoms=   27 NActive=   27 NUniq=   27 SFac= 1.00D+00 NAtFMM=   60 NAOKFM=F Big=F
 Integral buffers will be    131072 words long.
 Raffenetti 1 integral format.
 Two-electron integral symmetry is turned off.
 One-electron integrals computed using PRISM.
 NBasis=   236 RedAO= T EigKep=  1.69D-03  NBF=   236
 NBsUse=   236 1.00D-06 EigRej= -1.00D+00 NBFU=   236
 ExpMin= 1.61D-01 ExpMax= 5.48D+03 ExpMxC= 8.25D+02 IAcc=3 IRadAn=         5 AccDes= 0.00D+00
 Harris functional with IExCor=  205 and IRadAn=       5 diagonalized for initial guess.
 HarFok:  IExCor=  205 AccDes= 0.00D+00 IRadAn=         5 IDoV= 1 UseB2=F ITyADJ=14
 ICtDFT=  3500011 ScaDFX=  1.000000  1.000000  1.000000  1.000000
 FoFCou: FMM=F IPFlag=           0 FMFlag=      100000 FMFlg1=           0
         NFxFlg=           0 DoJE=T BraDBF=F KetDBF=T FulRan=T
         wScrn=  0.000000 ICntrl=       500 IOpCl=  0 I1Cent=   200000004 NGrid=           0
         NMat0=    1 NMatS0=      1 NMatT0=    0 NMatD0=    1 NMtDS0=    0 NMtDT0=    0
 Symmetry not used in FoFCou.
 Keep R1 ints in memory in canonical form, NReq=397720213.
 Requested convergence on RMS density matrix=1.00D-08 within 128 cycles.
 Requested convergence on MAX density matrix=1.00D-06.
 Requested convergence on             energy=1.00D-06.
 No special actions if energy rises.
 SCF Done:  E(RHF) =  -661.266204660     A.U. after   17 cycles
            NFock= 17  Conv=0.53D-08     -V/T= 2.0034
 ExpMin= 1.61D-01 ExpMax= 5.48D+03 ExpMxC= 8.25D+02 IAcc=3 IRadAn=         5 AccDes= 0.00D+00
 HarFok:  IExCor=  205 AccDes= 0.00D+00 IRadAn=         5 IDoV=-2 UseB2=F ITyADJ=14
 ICtDFT= 12500011 ScaDFX=  1.000000  1.000000  1.000000  1.000000
 Range of M.O.s used for correlation:    15   236
 NBasis=   236 NAE=    52 NBE=    52 NFC=    14 NFV=     0
 NROrb=    222 NOA=    38 NOB=    38 NVA=   184 NVB=   184
 Fully direct method using O(ONN) memory.
 JobTyp=1 Pass  1:  I=  15 to  52 NPSUse=  4 ParTrn=T ParDer=T DoDerP=T.
 Spin components of T(2) and E(2):
     alpha-alpha T2 =       0.9176718972D-01 E2=     -0.2718266078D+00
     alpha-beta  T2 =       0.5022775495D+00 E2=     -0.1496819316D+01
     beta-beta   T2 =       0.9176718972D-01 E2=     -0.2718266078D+00
 ANorm=    0.1298388204D+01
 E2 =    -0.2040472532D+01 EUMP2 =    -0.66330667719153D+03
          IDoAtm=111111111111111111111111111
          Differentiating once with respect to electric field.
                with respect to dipole field.
          Differentiating once with respect to nuclear coordinates.
 Keep R1 ints in memory in canonical form, NReq=397723379.
          There are     1 degrees of freedom in the 1st order CPHF.  IDoFFX=0 NUNeed=     1.
 LinEq1:  Iter=  0 NonCon=     1 RMS=4.50D-03 Max=1.34D-01 NDo=     1
 AX will form     1 AO Fock derivatives at one time.
 LinEq1:  Iter=  1 NonCon=     1 RMS=1.49D-03 Max=3.56D-02 NDo=     1
 LinEq1:  Iter=  2 NonCon=     1 RMS=6.12D-04 Max=2.06D-02 NDo=     1
 LinEq1:  Iter=  3 NonCon=     1 RMS=2.79D-04 Max=5.72D-03 NDo=     1
 LinEq1:  Iter=  4 NonCon=     1 RMS=8.48D-05 Max=1.26D-03 NDo=     1
 LinEq1:  Iter=  5 NonCon=     1 RMS=3.36D-05 Max=8.59D-04 NDo=     1
 LinEq1:  Iter=  6 NonCon=     1 RMS=1.39D-05 Max=5.40D-04 NDo=     1
 LinEq1:  Iter=  7 NonCon=     1 RMS=5.64D-06 Max=1.63D-04 NDo=     1
 LinEq1:  Iter=  8 NonCon=     1 RMS=2.34D-06 Max=6.13D-05 NDo=     1
 LinEq1:  Iter=  9 NonCon=     1 RMS=8.95D-07 Max=2.74D-05 NDo=     1
 LinEq1:  Iter= 10 NonCon=     1 RMS=4.27D-07 Max=1.74D-05 NDo=     1
 LinEq1:  Iter= 11 NonCon=     1 RMS=1.80D-07 Max=4.28D-06 NDo=     1
 LinEq1:  Iter= 12 NonCon=     1 RMS=7.50D-08 Max=2.60D-06 NDo=     1
 LinEq1:  Iter= 13 NonCon=     1 RMS=2.34D-08 Max=4.22D-07 NDo=     1
 LinEq1:  Iter= 14 NonCon=     1 RMS=8.48D-09 Max=1.99D-07 NDo=     1
 LinEq1:  Iter= 15 NonCon=     1 RMS=3.14D-09 Max=4.94D-08 NDo=     1
 LinEq1:  Iter= 16 NonCon=     1 RMS=1.03D-09 Max=1.56D-08 NDo=     1
 LinEq1:  Iter= 17 NonCon=     1 RMS=2.94D-10 Max=7.29D-09 NDo=     1
 LinEq1:  Iter= 18 NonCon=     1 RMS=1.13D-10 Max=3.37D-09 NDo=     1
 LinEq1:  Iter= 19 NonCon=     0 RMS=3.68D-11 Max=8.52D-10 NDo=     1
 Linear equations converged to 1.000D-10 1.000D-09 after    19 iterations.
 End of Minotr F.D. properties file   721 does not exist.
 End of Minotr F.D. properties file   722 does not exist.
 End of Minotr F.D. properties file   788 does not exist.

 **********************************************************************

            Population analysis using the SCF Density.

 **********************************************************************

 Alpha  occ. eigenvalues --  -20.60800 -20.60745 -15.85055 -15.62156 -15.56807
 Alpha  occ. eigenvalues --  -11.34964 -11.30885 -11.29703 -11.29109 -11.27564
 Alpha  occ. eigenvalues --  -11.24264 -11.23636 -11.23228 -11.22688  -1.59601
 Alpha  occ. eigenvalues --   -1.39287  -1.27904  -1.22620  -1.13559  -1.09029
 Alpha  occ. eigenvalues --   -1.01603  -1.00611  -0.93822  -0.88992  -0.84617
 Alpha  occ. eigenvalues --   -0.81828  -0.78612  -0.77183  -0.73944  -0.71819
 Alpha  occ. eigenvalues --   -0.71199  -0.68965  -0.66865  -0.64404  -0.62918
 Alpha  occ. eigenvalues --   -0.61525  -0.60320  -0.57237  -0.56199  -0.54622
 Alpha  occ. eigenvalues --   -0.53496  -0.51374  -0.50280  -0.48808  -0.47969
 Alpha  occ. eigenvalues --   -0.47670  -0.46136  -0.45429  -0.44278  -0.41956
 Alpha  occ. eigenvalues --   -0.39924  -0.32596
 Alpha virt. eigenvalues --    0.08860   0.10174   0.18508   0.20971   0.22901
 Alpha virt. eigenvalues --    0.24123   0.25041   0.27788   0.28551   0.28892
 Alpha virt. eigenvalues --    0.29104   0.30948   0.31979   0.32477   0.33482
 Alpha virt. eigenvalues --    0.34021   0.34994   0.36827   0.37818   0.38384
 Alpha virt. eigenvalues --    0.40692   0.42087   0.44351   0.45169   0.45681
 Alpha virt. eigenvalues --    0.46891   0.50988   0.53824   0.57236   0.57786
 Alpha virt. eigenvalues --    0.60568   0.68764   0.69470   0.72174   0.73433
 Alpha virt. eigenvalues --    0.74464   0.75922   0.76425   0.78065   0.79002
 Alpha virt. eigenvalues --    0.79949   0.83178   0.85007   0.85965   0.88070
 Alpha virt. eigenvalues --    0.88590   0.89495   0.91181   0.92570   0.92958
 Alpha virt. eigenvalues --    0.94658   0.97008   0.98874   1.00806   1.01562
 Alpha virt. eigenvalues --    1.03900   1.05331   1.06326   1.06747   1.07876
 Alpha virt. eigenvalues --    1.10130   1.10487   1.10730   1.11663   1.12563
 Alpha virt. eigenvalues --    1.12933   1.13588   1.14197   1.15734   1.16002
 Alpha virt. eigenvalues --    1.17006   1.17202   1.18481   1.21116   1.22118
 Alpha virt. eigenvalues --    1.23242   1.23531   1.25319   1.25491   1.26224
 Alpha virt. eigenvalues --    1.27732   1.30183   1.33931   1.34463   1.36797
 Alpha virt. eigenvalues --    1.39838   1.42388   1.45672   1.47003   1.52650
 Alpha virt. eigenvalues --    1.52963   1.55585   1.60255   1.65297   1.67464
 Alpha virt. eigenvalues --    1.68838   1.71325   1.72816   1.74299   1.77220
 Alpha virt. eigenvalues --    1.77794   1.81595   1.86143   1.89899   1.92896
 Alpha virt. eigenvalues --    1.94035   1.98247   1.99285   2.00215   2.02977
 Alpha virt. eigenvalues --    2.03721   2.04985   2.05641   2.09892   2.10031
 Alpha virt. eigenvalues --    2.10846   2.12955   2.17351   2.19556   2.20711
 Alpha virt. eigenvalues --    2.22611   2.23923   2.25643   2.26562   2.29606
 Alpha virt. eigenvalues --    2.30559   2.31110   2.33038   2.34120   2.36851
 Alpha virt. eigenvalues --    2.37458   2.39105   2.42204   2.44157   2.45057
 Alpha virt. eigenvalues --    2.47802   2.49414   2.51103   2.55762   2.57425
 Alpha virt. eigenvalues --    2.60906   2.63197   2.65938   2.68039   2.69390
 Alpha virt. eigenvalues --    2.69960   2.71796   2.73506   2.76568   2.82242
 Alpha virt. eigenvalues --    2.86256   2.86427   2.89253   2.93523   2.95554
 Alpha virt. eigenvalues --    2.97456   3.00914   3.05150   3.05994   3.07700
 Alpha virt. eigenvalues --    3.12279   3.13551   3.18607   3.21531   3.23996
 Alpha virt. eigenvalues --    3.27390   3.32390   3.37180   3.40867   3.59085
 Alpha virt. eigenvalues --    4.16376   4.18493   4.29876   4.34539   4.45687
 Alpha virt. eigenvalues --    4.53938   4.59475   4.60801   4.71339   4.78866
 Alpha virt. eigenvalues --    4.99393   4.99916   5.04569   5.10068
          Condensed to atoms (all electrons):
               1          2          3          4          5          6
     1  O    8.312185   0.293172  -0.080292  -0.090200   0.002266   0.000042
     2  N    0.293172   5.784573   0.299597   0.239400  -0.050579   0.001268
     3  O   -0.080292   0.299597   8.301153  -0.083140  -0.000299  -0.000011
     4  C   -0.090200   0.239400  -0.083140   5.211789   0.609270  -0.053134
     5  C    0.002266  -0.050579  -0.000299   0.609270   4.608129   0.327579
     6  N    0.000042   0.001268  -0.000011  -0.053134   0.327579   7.165227
     7  C   -0.000005  -0.000123   0.000010   0.003029  -0.030762   0.211268
     8  H    0.000000   0.000002  -0.000000  -0.000148   0.002482  -0.048980
     9  C    0.000000  -0.000006   0.000000   0.000456   0.001933  -0.058595
    10  C    0.000000   0.000000  -0.000000  -0.000018  -0.000074   0.003430
    11  C   -0.000000  -0.000000   0.000000  -0.000021   0.000016  -0.000157
    12  C    0.000000   0.000002  -0.000000  -0.000052  -0.000147   0.003543
    13  C    0.000004  -0.000040  -0.000026  -0.009718   0.001005  -0.045962
    14  H    0.000001  -0.000078  -0.000001   0.002572   0.004816  -0.005497
    15  N    0.000024   0.001952  -0.000039  -0.067452  -0.006569   0.003509
    16  C    0.002735  -0.032108   0.002589   0.325581  -0.028613  -0.002655
    17  H    0.000750  -0.002041   0.000575  -0.037161   0.388676  -0.031934
    18  H    0.000005  -0.000059  -0.000000   0.001629  -0.022934   0.327788
    19  H    0.000001  -0.000000  -0.000000  -0.000843   0.000654   0.000708
    20  H    0.000000  -0.000000  -0.000000  -0.000033   0.000033  -0.001365
    21  H   -0.000000  -0.000000   0.000000   0.000000   0.000001  -0.000061
    22  H    0.000000   0.000000  -0.000000  -0.000000  -0.000002  -0.000096
    23  H    0.000000  -0.000000  -0.000000   0.000024   0.000000  -0.000023
    24  H    0.000000   0.000000  -0.000000   0.000000  -0.000000   0.000004
    25  H    0.000000  -0.000000   0.000000   0.000020  -0.000000  -0.000069
    26  H    0.000000  -0.000000   0.000000   0.000004   0.000001  -0.000067
    27  H    0.001605   0.001238  -0.000026  -0.076868   0.001711   0.000040
               7          8          9         10         11         12
     1  O   -0.000005   0.000000   0.000000   0.000000  -0.000000   0.000000
     2  N   -0.000123   0.000002  -0.000006   0.000000  -0.000000   0.000002
     3  O    0.000010  -0.000000   0.000000  -0.000000   0.000000  -0.000000
     4  C    0.003029  -0.000148   0.000456  -0.000018  -0.000021  -0.000052
     5  C   -0.030762   0.002482   0.001933  -0.000074   0.000016  -0.000147
     6  N    0.211268  -0.048980  -0.058595   0.003430  -0.000157   0.003543
     7  C    5.000345   0.415715   0.342190  -0.049596  -0.007581  -0.064680
     8  H    0.415715   0.548922  -0.060876   0.001235  -0.000259  -0.002998
     9  C    0.342190  -0.060876   5.181111   0.317578  -0.053108  -0.005925
    10  C   -0.049596   0.001235   0.317578   5.128045   0.332764  -0.060186
    11  C   -0.007581  -0.000259  -0.053108   0.332764   5.124522   0.330361
    12  C   -0.064680  -0.002998  -0.005925  -0.060186   0.330361   5.138359
    13  C    0.329601  -0.039162  -0.052152  -0.001440  -0.048061   0.367110
    14  H   -0.039869  -0.000946   0.003799  -0.000383   0.003935  -0.040458
    15  N   -0.060616   0.004011  -0.012494   0.001555  -0.007835  -0.073861
    16  C   -0.001267  -0.000074  -0.000350  -0.000061   0.000022   0.002490
    17  H    0.001620  -0.000034  -0.000072   0.000001   0.000000   0.000001
    18  H   -0.029691  -0.002752   0.000615  -0.000111   0.000011  -0.000136
    19  H   -0.035146   0.004090   0.386577  -0.033112  -0.002258   0.000639
    20  H   -0.041389  -0.001760   0.397192  -0.037439   0.004139  -0.000359
    21  H    0.004053  -0.000083  -0.035794   0.399914  -0.035961   0.004228
    22  H   -0.004260   0.003547  -0.045541   0.395802  -0.045622  -0.001279
    23  H    0.000424   0.000034  -0.001981  -0.040188   0.396671  -0.036816
    24  H   -0.000150  -0.000098   0.004378  -0.038492   0.400228  -0.037913
    25  H    0.004995   0.000000  -0.000382   0.004108  -0.034033   0.395337
    26  H   -0.004455   0.001536   0.001048  -0.002402  -0.042198   0.394703
    27  H   -0.000402   0.000009  -0.000055   0.000004   0.000005  -0.000024
              13         14         15         16         17         18
     1  O    0.000004   0.000001   0.000024   0.002735   0.000750   0.000005
     2  N   -0.000040  -0.000078   0.001952  -0.032108  -0.002041  -0.000059
     3  O   -0.000026  -0.000001  -0.000039   0.002589   0.000575  -0.000000
     4  C   -0.009718   0.002572  -0.067452   0.325581  -0.037161   0.001629
     5  C    0.001005   0.004816  -0.006569  -0.028613   0.388676  -0.022934
     6  N   -0.045962  -0.005497   0.003509  -0.002655  -0.031934   0.327788
     7  C    0.329601  -0.039869  -0.060616  -0.001267   0.001620  -0.029691
     8  H   -0.039162  -0.000946   0.004011  -0.000074  -0.000034  -0.002752
     9  C   -0.052152   0.003799  -0.012494  -0.000350  -0.000072   0.000615
    10  C   -0.001440  -0.000383   0.001555  -0.000061   0.000001  -0.000111
    11  C   -0.048061   0.003935  -0.007835   0.000022   0.000000   0.000011
    12  C    0.367110  -0.040458  -0.073861   0.002490   0.000001  -0.000136
    13  C    5.020161   0.403781   0.248569  -0.071333  -0.000044   0.003799
    14  H    0.403781   0.512128  -0.035387  -0.005369   0.000055   0.000015
    15  N    0.248569  -0.035387   6.916240   0.608067  -0.000055  -0.000120
    16  C   -0.071333  -0.005369   0.608067   4.666846   0.001389  -0.000159
    17  H   -0.000044   0.000055  -0.000055   0.001389   0.419766  -0.002158
    18  H    0.003799   0.000015  -0.000120  -0.000159  -0.002158   0.331601
    19  H   -0.006082   0.000059   0.006665   0.002103   0.000011  -0.000108
    20  H    0.003889  -0.000050   0.000080  -0.000034  -0.000002   0.002746
    21  H   -0.000392   0.000009  -0.000035   0.000003  -0.000000  -0.000000
    22  H    0.000333  -0.000042   0.000007  -0.000001   0.000000   0.000003
    23  H   -0.005851   0.000007   0.006734   0.000077   0.000000   0.000000
    24  H    0.004148  -0.000059   0.000036   0.000005   0.000000  -0.000000
    25  H   -0.034703  -0.002651   0.000894  -0.000044  -0.000000   0.000002
    26  H   -0.044493  -0.000905   0.004142  -0.000054   0.000000  -0.000001
    27  H    0.004965  -0.000163  -0.035428   0.403947  -0.000072   0.000002
              19         20         21         22         23         24
     1  O    0.000001   0.000000  -0.000000   0.000000   0.000000   0.000000
     2  N   -0.000000  -0.000000  -0.000000   0.000000  -0.000000   0.000000
     3  O   -0.000000  -0.000000   0.000000  -0.000000  -0.000000  -0.000000
     4  C   -0.000843  -0.000033   0.000000  -0.000000   0.000024   0.000000
     5  C    0.000654   0.000033   0.000001  -0.000002   0.000000  -0.000000
     6  N    0.000708  -0.001365  -0.000061  -0.000096  -0.000023   0.000004
     7  C   -0.035146  -0.041389   0.004053  -0.004260   0.000424  -0.000150
     8  H    0.004090  -0.001760  -0.000083   0.003547   0.000034  -0.000098
     9  C    0.386577   0.397192  -0.035794  -0.045541  -0.001981   0.004378
    10  C   -0.033112  -0.037439   0.399914   0.395802  -0.040188  -0.038492
    11  C   -0.002258   0.004139  -0.035961  -0.045622   0.396671   0.400228
    12  C    0.000639  -0.000359   0.004228  -0.001279  -0.036816  -0.037913
    13  C   -0.006082   0.003889  -0.000392   0.000333  -0.005851   0.004148
    14  H    0.000059  -0.000050   0.000009  -0.000042   0.000007  -0.000059
    15  N    0.006665   0.000080  -0.000035   0.000007   0.006734   0.000036
    16  C    0.002103  -0.000034   0.000003  -0.000001   0.000077   0.000005
    17  H    0.000011  -0.000002  -0.000000   0.000000   0.000000   0.000000
    18  H   -0.000108   0.002746  -0.000000   0.000003   0.000000  -0.000000
    19  H    0.508208  -0.023801  -0.002605   0.003781   0.001666  -0.000071
    20  H   -0.023801   0.549373  -0.002650  -0.002942  -0.000050  -0.000090
    21  H   -0.002605  -0.002650   0.527734  -0.024823  -0.002837  -0.002081
    22  H    0.003781  -0.002942  -0.024823   0.569594   0.004077  -0.003587
    23  H    0.001666  -0.000050  -0.002837   0.004077   0.511523  -0.025105
    24  H   -0.000071  -0.000090  -0.002081  -0.003587  -0.025105   0.542186
    25  H   -0.000027   0.000011  -0.000087  -0.000082  -0.002082  -0.002402
    26  H    0.000024  -0.000035  -0.000073   0.002455   0.003823  -0.002748
    27  H    0.000085   0.000000  -0.000000   0.000000  -0.000020  -0.000000
              25         26         27
     1  O    0.000000   0.000000   0.001605
     2  N   -0.000000  -0.000000   0.001238
     3  O    0.000000   0.000000  -0.000026
     4  C    0.000020   0.000004  -0.076868
     5  C   -0.000000   0.000001   0.001711
     6  N   -0.000069  -0.000067   0.000040
     7  C    0.004995  -0.004455  -0.000402
     8  H    0.000000   0.001536   0.000009
     9  C   -0.000382   0.001048  -0.000055
    10  C    0.004108  -0.002402   0.000004
    11  C   -0.034033  -0.042198   0.000005
    12  C    0.395337   0.394703  -0.000024
    13  C   -0.034703  -0.044493   0.004965
    14  H   -0.002651  -0.000905  -0.000163
    15  N    0.000894   0.004142  -0.035428
    16  C   -0.000044  -0.000054   0.403947
    17  H   -0.000000   0.000000  -0.000072
    18  H    0.000002  -0.000001   0.000002
    19  H   -0.000027   0.000024   0.000085
    20  H    0.000011  -0.000035   0.000000
    21  H   -0.000087  -0.000073  -0.000000
    22  H   -0.000082   0.002455   0.000000
    23  H   -0.002082   0.003823  -0.000020
    24  H   -0.002402  -0.002748  -0.000000
    25  H    0.512091  -0.023205  -0.000011
    26  H   -0.023205   0.560314   0.000001
    27  H   -0.000011   0.000001   0.474206
 Mulliken charges:
               1
     1  O   -0.442291
     2  N    0.463832
     3  O   -0.440088
     4  C    0.025015
     5  C    0.191406
     6  N   -0.795796
     7  C    0.056744
     8  H    0.176586
     9  C   -0.309546
    10  C   -0.320936
    11  C   -0.315581
    12  C   -0.311937
    13  C   -0.027905
    14  H    0.200682
    15  N   -0.502596
    16  C    0.126266
    17  H    0.260730
    18  H    0.390013
    19  H    0.188783
    20  H    0.154536
    21  H    0.171540
    22  H    0.148679
    23  H    0.189893
    24  H    0.161813
    25  H    0.182321
    26  H    0.152587
    27  H    0.225252
 Sum of Mulliken charges =  -0.00000
 Mulliken charges with hydrogens summed into heavy atoms:
               1
     1  O   -0.442291
     2  N    0.463832
     3  O   -0.440088
     4  C    0.025015
     5  C    0.452136
     6  N   -0.405784
     7  C    0.233329
     9  C    0.033773
    10  C   -0.000717
    11  C    0.036125
    12  C    0.022972
    13  C    0.172777
    15  N   -0.502596
    16  C    0.351518
 Electronic spatial extent (au):  <R**2>=           3062.4231
 Charge=             -0.0000 electrons
 Dipole moment (field-independent basis, Debye):
    X=              4.4968    Y=              3.9370    Z=              0.3675  Tot=              5.9880
 Quadrupole moment (field-independent basis, Debye-Ang):
   XX=           -101.1538   YY=            -75.9512   ZZ=            -87.4165
   XY=             -1.2550   XZ=              0.4471   YZ=              1.0500
 Traceless Quadrupole moment (field-independent basis, Debye-Ang):
   XX=            -12.9799   YY=             12.2226   ZZ=              0.7573
   XY=             -1.2550   XZ=              0.4471   YZ=              1.0500
 Octapole moment (field-independent basis, Debye-Ang**2):
  XXX=             74.8063  YYY=             28.8923  ZZZ=             -2.6942  XYY=            -21.0834
  XXY=             13.5328  XXZ=              2.8121  XZZ=              8.9717  YZZ=             -2.2890
  YYZ=             -2.2145  XYZ=             -5.2871
 Hexadecapole moment (field-independent basis, Debye-Ang**3):
 XXXX=          -3376.7799 YYYY=           -540.7437 ZZZZ=           -384.5596 XXXY=            -52.8113
 XXXZ=             -5.2046 YYYX=              8.4263 YYYZ=             29.6335 ZZZX=             -1.7797
 ZZZY=             28.2454 XXYY=           -566.1414 XXZZ=           -608.3441 YYZZ=           -166.8986
 XXYZ=             25.9991 YYXZ=              9.2092 ZZXY=             -0.3613
 N-N= 9.212065623204D+02 E-N=-3.388562813902D+03  KE= 6.590332931123D+02
 Calling FoFJK, ICntrl=  10002127 FMM=F ISym2X=0 I1Cent= 0 IOpClX= 0 NMat=1 NMatS=1 NMatT=0.
 -------------------------------------------------------------------
 Center     Atomic                   Forces (Hartrees/Bohr)
 Number     Number              X              Y              Z
 -------------------------------------------------------------------
      1        8          -0.015286375   -0.007286333   -0.021935708
      2        7           0.031885650    0.026040603    0.003074533
      3        8          -0.014650256   -0.011543205    0.018477249
      4        6           0.012442885    0.006664182    0.005935063
      5        6           0.005934221   -0.023471399   -0.003697806
      6        7           0.021030931   -0.002150938   -0.003204095
      7        6          -0.006952482    0.006632742    0.002216034
      8        1          -0.010191483   -0.002211663   -0.007432799
      9        6          -0.003632315   -0.000359528   -0.001796260
     10        6           0.002766054   -0.000816183    0.000718045
     11        6          -0.000682027   -0.004592485   -0.001976975
     12        6           0.000727229   -0.009170194   -0.002741537
     13        6           0.008279057   -0.000575349    0.002210429
     14        1           0.000539056    0.003360162   -0.010675836
     15        7           0.002328144   -0.004742114    0.005514592
     16        6          -0.013402519    0.017310697    0.002473177
     17        1           0.009465560   -0.004297817   -0.002744721
     18        1          -0.016748398   -0.002695743    0.003626639
     19        1           0.003108435    0.006267407    0.007171012
     20        1          -0.003246924   -0.007346070    0.003122074
     21        1          -0.004168503    0.002859908    0.009515755
     22        1          -0.004034265   -0.004432415   -0.007098410
     23        1           0.003944747    0.006605494    0.008891683
     24        1          -0.009393733    0.002356038   -0.002198469
     25        1          -0.000908872    0.010421081   -0.003031689
     26        1          -0.004821382   -0.005062282   -0.004122445
     27        1           0.005667565    0.002235406   -0.000289535
 -------------------------------------------------------------------
 Cartesian Forces:  Max     0.031885650 RMS     0.009197647

 GradGradGradGradGradGradGradGradGradGradGradGradGradGradGradGradGradGrad
 Berny optimization.
 FormGI is forming the generalized inverse of G from B-inverse, IUseBI=4.
 Internal  Forces:  Max     0.028948535 RMS     0.006261492
 Search for a local minimum.
 Step number   1 out of a maximum of   20
 All quantities printed in internal units (Hartrees-Bohrs-Radians)
 Mixed Optimization -- RFO/linear search
 Second derivative matrix not updated -- first step.
 ITU=  0
     Eigenvalues ---    0.00745   0.00769   0.01099   0.01182   0.01350
     Eigenvalues ---    0.01512   0.01541   0.01671   0.02002   0.02079
     Eigenvalues ---    0.02151   0.02669   0.03655   0.04507   0.04697
     Eigenvalues ---    0.04837   0.05069   0.05138   0.05300   0.05867
     Eigenvalues ---    0.06271   0.07213   0.07700   0.07716   0.07858
     Eigenvalues ---    0.07997   0.08039   0.08050   0.10460   0.11738
     Eigenvalues ---    0.12271   0.13400   0.15172   0.15630   0.15988
     Eigenvalues ---    0.15999   0.20101   0.22039   0.23281   0.24974
     Eigenvalues ---    0.25000   0.25000   0.25312   0.26129   0.26656
     Eigenvalues ---    0.27989   0.28082   0.28421   0.31485   0.31793
     Eigenvalues ---    0.32042   0.32240   0.32289   0.32383   0.32387
     Eigenvalues ---    0.32402   0.32509   0.32526   0.32584   0.33350
     Eigenvalues ---    0.33584   0.34267   0.34890   0.35256   0.43890
     Eigenvalues ---    0.45508   0.49536   0.67299   0.91947   0.92043
     Eigenvalues --- 1000.000001000.000001000.000001000.000001000.00000
     Eigenvalues --- 1000.000001000.000001000.000001000.000001000.00000
     Eigenvalues --- 1000.000001000.000001000.000001000.000001000.00000
     Eigenvalues --- 1000.000001000.000001000.000001000.000001000.00000
     Eigenvalues --- 1000.000001000.000001000.000001000.000001000.00000
     Eigenvalues --- 1000.000001000.000001000.000001000.000001000.00000
     Eigenvalues --- 1000.000001000.000001000.000001000.000001000.00000
     Eigenvalues --- 1000.000001000.000001000.000001000.000001000.00000
     Eigenvalues --- 1000.000001000.000001000.000001000.000001000.00000
     Eigenvalues --- 1000.000001000.000001000.000001000.000001000.00000
     Eigenvalues --- 1000.000001000.000001000.000001000.000001000.00000
     Eigenvalues --- 1000.000001000.000001000.000001000.000001000.00000
     Eigenvalues --- 1000.000001000.000001000.000001000.000001000.00000
     Eigenvalues --- 1000.000001000.000001000.000001000.000001000.00000
     Eigenvalues --- 1000.000001000.000001000.000001000.000001000.00000
     Eigenvalues --- 1000.000001000.000001000.000001000.000001000.00000
     Eigenvalues --- 1000.000001000.000001000.000001000.000001000.00000
     Eigenvalues --- 1000.000001000.000001000.000001000.000001000.00000
     Eigenvalues --- 1000.00000
 RFO step:  Lambda=-2.19640515D-02 EMin= 7.45458603D-03
 Linear search not attempted -- first point.
 Iteration  1 RMS(Cart)=  0.04973693 RMS(Int)=  0.00918575
 Iteration  2 RMS(Cart)=  0.01181219 RMS(Int)=  0.00197530
 Iteration  3 RMS(Cart)=  0.00045595 RMS(Int)=  0.00192395
 Iteration  4 RMS(Cart)=  0.00000294 RMS(Int)=  0.00192395
 Iteration  5 RMS(Cart)=  0.00000004 RMS(Int)=  0.00192395
 Iteration  1 RMS(Cart)=  0.00008049 RMS(Int)=  0.00005454
 Iteration  2 RMS(Cart)=  0.00003572 RMS(Int)=  0.00006086
 Iteration  3 RMS(Cart)=  0.00001615 RMS(Int)=  0.00006704
 Iteration  4 RMS(Cart)=  0.00000762 RMS(Int)=  0.00007030
 Iteration  5 RMS(Cart)=  0.00000396 RMS(Int)=  0.00007188
 Iteration  6 RMS(Cart)=  0.00000242 RMS(Int)=  0.00007265
 Iteration  7 RMS(Cart)=  0.00000175 RMS(Int)=  0.00007304
 Iteration  8 RMS(Cart)=  0.00000140 RMS(Int)=  0.00007326
 Iteration  9 RMS(Cart)=  0.00000118 RMS(Int)=  0.00007339
 Iteration 10 RMS(Cart)=  0.00000101 RMS(Int)=  0.00007349
 Iteration 11 RMS(Cart)=  0.00000087 RMS(Int)=  0.00007356
 Variable       Old X    -DE/DX   Delta X   Delta X   Delta X     New X
                                 (Linear)    (Quad)   (Total)
    R1        2.32048   0.02543   0.00000   0.02702   0.02702   2.34750
    R2        2.32006   0.02461   0.00000   0.02612   0.02612   2.34618
    R3        2.79154  -0.00317   0.00000  -0.00854  -0.00854   2.78299
    R4        2.62964  -0.02895   0.00000  -0.06093  -0.06078   2.56886
    R5        2.78659  -0.01864   0.00000  -0.05287  -0.05278   2.73381
    R6        2.58863  -0.01708   0.00000  -0.03235  -0.03224   2.55639
    R7        2.08441  -0.01014   0.00000  -0.02854  -0.02854   2.05587
    R8        2.82769  -0.02120   0.00000  -0.05823  -0.05824   2.76945
    R9        1.93286  -0.00705   0.00000  -0.01529  -0.01529   1.91757
   R10        2.11796  -0.01191   0.00000  -0.03536  -0.03536   2.08260
   R11        2.92742  -0.01268   0.00000  -0.04332  -0.04332   2.88410
   R12        2.90781  -0.00425   0.00000  -0.00969  -0.00968   2.89813
   R13        2.91146  -0.00455   0.00000  -0.01431  -0.01434   2.89712
   R14        2.09923  -0.00981   0.00000  -0.02826  -0.02826   2.07097
   R15        2.09892  -0.00818   0.00000  -0.02356  -0.02356   2.07536
   R16        2.90430  -0.00204   0.00000  -0.00746  -0.00754   2.89676
   R17        2.10142  -0.01052   0.00000  -0.03042  -0.03042   2.07100
   R18        2.10318  -0.00900   0.00000  -0.02611  -0.02611   2.07708
   R19        2.91732  -0.00919   0.00000  -0.02941  -0.02942   2.88791
   R20        2.10407  -0.01159   0.00000  -0.03366  -0.03366   2.07040
   R21        2.10114  -0.00990   0.00000  -0.02862  -0.02862   2.07252
   R22        2.93521  -0.01053   0.00000  -0.03632  -0.03629   2.89893
   R23        2.10149  -0.01074   0.00000  -0.03105  -0.03105   2.07044
   R24        2.09787  -0.00792   0.00000  -0.02276  -0.02276   2.07512
   R25        2.10767  -0.00956   0.00000  -0.02793  -0.02793   2.07974
   R26        2.77290  -0.00720   0.00000  -0.01679  -0.01697   2.75593
   R27        2.44162  -0.00357   0.00000  -0.00550  -0.00557   2.43605
   R28        2.08038  -0.00416   0.00000  -0.01162  -0.01162   2.06875
    A1        2.20921  -0.00831   0.00000  -0.02025  -0.03438   2.17483
    A2        2.03142   0.00605   0.00000   0.03246   0.01851   2.04994
    A3        2.03319   0.00485   0.00000   0.02803   0.01409   2.04728
    A4        1.99891  -0.00011   0.00000   0.00382   0.00349   2.00240
    A5        2.01086  -0.00047   0.00000   0.00232   0.00200   2.01285
    A6        2.27226   0.00054   0.00000  -0.00444  -0.00441   2.26785
    A7        2.18110   0.01084   0.00000   0.04077   0.04106   2.22216
    A8        2.06407  -0.00243   0.00000  -0.00346  -0.00368   2.06039
    A9        2.03687  -0.00836   0.00000  -0.03643  -0.03667   2.00020
   A10        2.24997  -0.00669   0.00000  -0.02105  -0.02090   2.22907
   A11        2.11290  -0.01107   0.00000  -0.06731  -0.06771   2.04519
   A12        1.87273   0.01770   0.00000   0.09582   0.09589   1.96862
   A13        1.83737  -0.00196   0.00000  -0.01643  -0.01622   1.82115
   A14        2.00457  -0.00060   0.00000  -0.01005  -0.01027   1.99430
   A15        1.97238   0.00123   0.00000  -0.00382  -0.00421   1.96818
   A16        1.85282   0.00271   0.00000   0.02457   0.02446   1.87727
   A17        1.84875   0.00114   0.00000   0.02210   0.02189   1.87064
   A18        1.93396  -0.00218   0.00000  -0.01120  -0.01094   1.92302
   A19        1.91032   0.00059   0.00000  -0.00398  -0.00409   1.90623
   A20        1.92172  -0.00071   0.00000  -0.01325  -0.01324   1.90848
   A21        1.92300  -0.00194   0.00000  -0.00761  -0.00764   1.91537
   A22        1.91933  -0.00056   0.00000   0.00480   0.00476   1.92410
   A23        1.90482   0.00298   0.00000   0.02580   0.02580   1.93061
   A24        1.88446  -0.00033   0.00000  -0.00536  -0.00562   1.87884
   A25        1.94086  -0.00103   0.00000   0.00505   0.00493   1.94580
   A26        1.91876  -0.00052   0.00000  -0.00614  -0.00615   1.91261
   A27        1.90486   0.00028   0.00000  -0.00279  -0.00284   1.90201
   A28        1.91605   0.00070   0.00000   0.00707   0.00711   1.92316
   A29        1.89850   0.00184   0.00000   0.01127   0.01130   1.90981
   A30        1.88375  -0.00126   0.00000  -0.01495  -0.01503   1.86872
   A31        1.94462   0.00071   0.00000   0.00533   0.00545   1.95007
   A32        1.90248   0.00055   0.00000   0.00626   0.00622   1.90871
   A33        1.91717   0.00045   0.00000   0.00543   0.00539   1.92256
   A34        1.90705  -0.00128   0.00000  -0.01494  -0.01499   1.89206
   A35        1.91524  -0.00040   0.00000   0.00035   0.00027   1.91551
   A36        1.87590  -0.00006   0.00000  -0.00282  -0.00285   1.87305
   A37        1.94607  -0.00289   0.00000  -0.01918  -0.01919   1.92688
   A38        1.90632   0.00236   0.00000   0.01647   0.01630   1.92262
   A39        1.91130   0.00150   0.00000   0.01429   0.01426   1.92556
   A40        1.90637   0.00027   0.00000  -0.00319  -0.00305   1.90333
   A41        1.91202  -0.00034   0.00000  -0.00446  -0.00439   1.90763
   A42        1.88057  -0.00083   0.00000  -0.00339  -0.00359   1.87698
   A43        1.84535   0.00484   0.00000   0.02408   0.02410   1.86946
   A44        1.93460  -0.00428   0.00000  -0.02966  -0.03021   1.90439
   A45        1.99141   0.00099   0.00000   0.01411   0.01456   2.00597
   A46        1.88120   0.00234   0.00000   0.03244   0.03273   1.91393
   A47        1.89103  -0.00454   0.00000  -0.03141  -0.03157   1.85946
   A48        1.91545   0.00086   0.00000  -0.00699  -0.00683   1.90862
   A49        2.08619  -0.00644   0.00000  -0.01450  -0.01483   2.07136
   A50        2.23658   0.00064   0.00000   0.00048   0.00016   2.23674
   A51        1.98186   0.00335   0.00000   0.01947   0.01898   2.00083
   A52        2.06455  -0.00401   0.00000  -0.02095  -0.02139   2.04316
    D1        1.52444   0.00961   0.00000   0.03378   0.03357   1.55801
    D2       -1.57078   0.01049   0.00000   0.00000  -0.00000  -1.57079
    D3       -1.48030  -0.00847   0.00000  -0.25655  -0.25564  -1.73593
    D4        1.70766  -0.00759   0.00000  -0.29033  -0.28921   1.41845
    D5        3.07589   0.00135   0.00000  -0.01395  -0.01356   3.06234
    D6       -0.01253   0.00061   0.00000  -0.03315  -0.03313  -0.04567
    D7       -0.12062   0.00027   0.00000   0.02634   0.02628  -0.09434
    D8        3.07414  -0.00047   0.00000   0.00715   0.00671   3.08084
    D9       -2.79327  -0.00065   0.00000   0.00591   0.00564  -2.78763
   D10        0.37058   0.00062   0.00000   0.06156   0.06164   0.43222
   D11        0.40355   0.00043   0.00000  -0.03464  -0.03443   0.36912
   D12       -2.71579   0.00169   0.00000   0.02100   0.02157  -2.69422
   D13       -0.04590  -0.00035   0.00000  -0.00948  -0.00920  -0.05511
   D14        2.72579   0.00281   0.00000   0.03647   0.03572   2.76151
   D15        3.04327   0.00054   0.00000   0.01031   0.01061   3.05388
   D16       -0.46822   0.00369   0.00000   0.05626   0.05553  -0.41269
   D17       -2.54979  -0.00072   0.00000  -0.00831  -0.00809  -2.55788
   D18        1.70208  -0.00243   0.00000  -0.02231  -0.02204   1.68005
   D19       -0.54005   0.00008   0.00000   0.00640   0.00630  -0.53375
   D20        0.92214   0.00066   0.00000  -0.02481  -0.02525   0.89690
   D21       -1.10917  -0.00105   0.00000  -0.03881  -0.03919  -1.14836
   D22        2.93188   0.00147   0.00000  -0.01010  -0.01085   2.92103
   D23        2.94073   0.00221   0.00000   0.03239   0.03224   2.97297
   D24       -1.23065   0.00144   0.00000   0.02742   0.02730  -1.20335
   D25        0.84606  -0.00063   0.00000   0.00781   0.00777   0.85383
   D26        0.91828   0.00318   0.00000   0.04199   0.04197   0.96025
   D27        3.03008   0.00241   0.00000   0.03702   0.03702   3.06711
   D28       -1.17640   0.00034   0.00000   0.01741   0.01749  -1.15890
   D29       -1.08125   0.00142   0.00000   0.00797   0.00798  -1.07327
   D30        1.03056   0.00065   0.00000   0.00300   0.00303   1.03359
   D31        3.10727  -0.00141   0.00000  -0.01661  -0.01650   3.09077
   D32       -2.89748  -0.00091   0.00000  -0.01468  -0.01441  -2.91190
   D33       -0.86350   0.00243   0.00000   0.02236   0.02220  -0.84130
   D34        1.30939   0.00090   0.00000   0.00000  -0.00000   1.30939
   D35       -0.89457  -0.00195   0.00000  -0.02310  -0.02299  -0.91756
   D36        1.13941   0.00139   0.00000   0.01394   0.01363   1.15304
   D37       -2.97089  -0.00015   0.00000  -0.00842  -0.00858  -2.97946
   D38        1.10750   0.00079   0.00000   0.01246   0.01259   1.12009
   D39        3.14148   0.00413   0.00000   0.04950   0.04921  -3.09249
   D40       -0.96881   0.00260   0.00000   0.02714   0.02700  -0.94181
   D41        0.95665   0.00089   0.00000   0.00000   0.00001   0.95666
   D42        3.08236   0.00073   0.00000   0.00811   0.00807   3.09043
   D43       -1.13785  -0.00093   0.00000  -0.01534  -0.01531  -1.15316
   D44       -1.15660   0.00176   0.00000   0.01590   0.01597  -1.14063
   D45        0.96911   0.00160   0.00000   0.02401   0.02403   0.99314
   D46        3.03208  -0.00007   0.00000   0.00057   0.00065   3.03274
   D47        3.06243   0.00071   0.00000   0.00414   0.00411   3.06654
   D48       -1.09505   0.00055   0.00000   0.01225   0.01218  -1.08287
   D49        0.96793  -0.00111   0.00000  -0.01120  -0.01120   0.95672
   D50       -0.92192  -0.00060   0.00000   0.00000   0.00001  -0.92191
   D51        1.18402  -0.00138   0.00000  -0.01112  -0.01113   1.17289
   D52       -3.04803  -0.00087   0.00000  -0.00773  -0.00776  -3.05579
   D53       -3.04920   0.00026   0.00000  -0.00041  -0.00039  -3.04959
   D54       -0.94326  -0.00052   0.00000  -0.01153  -0.01153  -0.95479
   D55        1.10788  -0.00001   0.00000  -0.00814  -0.00816   1.09972
   D56        1.17635   0.00030   0.00000   0.00697   0.00700   1.18335
   D57       -3.00090  -0.00048   0.00000  -0.00415  -0.00414  -3.00504
   D58       -0.94976   0.00003   0.00000  -0.00076  -0.00077  -0.95053
   D59        0.99049  -0.00101   0.00000  -0.01099  -0.01102   0.97947
   D60        3.09905  -0.00095   0.00000  -0.01630  -0.01645   3.08260
   D61       -1.12851   0.00030   0.00000  -0.00249  -0.00245  -1.13095
   D62       -1.11277  -0.00131   0.00000  -0.01232  -0.01230  -1.12507
   D63        0.99579  -0.00125   0.00000  -0.01764  -0.01774   0.97806
   D64        3.05142  -0.00000   0.00000  -0.00382  -0.00373   3.04769
   D65        3.11771  -0.00025   0.00000  -0.00034  -0.00033   3.11739
   D66       -1.05691  -0.00019   0.00000  -0.00565  -0.00576  -1.06267
   D67        0.99872   0.00106   0.00000   0.00817   0.00824   1.00696
   D68       -1.05730  -0.00007   0.00000  -0.00235  -0.00232  -1.05962
   D69       -3.12714   0.00123   0.00000   0.00353   0.00311  -3.12403
   D70        1.08434   0.00140   0.00000   0.01105   0.01106   1.09540
   D71        3.11735  -0.00135   0.00000  -0.00853  -0.00843   3.10892
   D72        1.04752  -0.00004   0.00000  -0.00266  -0.00300   1.04452
   D73       -1.02419   0.00013   0.00000   0.00487   0.00495  -1.01924
   D74        1.06128  -0.00030   0.00000   0.00004   0.00018   1.06146
   D75       -1.00856   0.00100   0.00000   0.00591   0.00561  -1.00295
   D76       -3.08027   0.00117   0.00000   0.01344   0.01356  -3.06671
   D77       -1.17216   0.00390   0.00000   0.00000  -0.00000  -1.17217
   D78        3.06080   0.00031   0.00000  -0.01746  -0.01730   3.04350
   D79        1.01092  -0.00036   0.00000  -0.03439  -0.03466   0.97626
   D80        0.20614  -0.00153   0.00000   0.01299   0.01291   0.21905
   D81       -2.95862  -0.00276   0.00000  -0.04448  -0.04381  -3.00243
         Item               Value     Threshold  Converged?
 Maximum Force            0.028669     0.000450     NO 
 RMS     Force            0.006213     0.000300     NO 
 Maximum Displacement     0.447144     0.001800     NO 
 RMS     Displacement     0.057473     0.001200     NO 
 Predicted change in Energy=-1.361563D-02
 GradGradGradGradGradGradGradGradGradGradGradGradGradGradGradGradGradGrad

                          Input orientation:                          
 ---------------------------------------------------------------------
 Center     Atomic      Atomic             Coordinates (Angstroms)
 Number     Number       Type             X           Y           Z
 ---------------------------------------------------------------------
      1          8           0       -3.716687   -0.111086   -1.159156
      2          7           0       -3.125827   -0.232968   -0.073249
      3          8           0       -3.634745   -0.701428    0.957758
      4          6           0       -1.673066    0.008160   -0.059973
      5          6           0       -1.312835    1.298130    0.172690
      6          7           0       -0.059832    1.785420    0.322885
      7          6           0        1.198727    1.034638    0.334185
      8          1           0        1.840317    1.587806    1.039107
      9          6           0        1.918535    0.996723   -1.011073
     10          6           0        3.317863    0.400903   -0.818076
     11          6           0        3.254561   -0.973568   -0.142349
     12          6           0        2.446787   -0.929976    1.154202
     13          6           0        1.037210   -0.386327    0.888056
     14          1           0        0.472675   -0.343232    1.831801
     15          7           0        0.392600   -1.329815   -0.018129
     16          6           0       -0.850356   -1.154849   -0.311783
     17          1           0       -2.102798    2.037928    0.283262
     18          1           0        0.075318    2.776813    0.153868
     19          1           0        1.340656    0.387174   -1.715010
     20          1           0        1.984180    2.011670   -1.425424
     21          1           0        3.820762    0.322408   -1.788634
     22          1           0        3.915497    1.085175   -0.199436
     23          1           0        2.780320   -1.690680   -0.821473
     24          1           0        4.267379   -1.340141    0.064145
     25          1           0        2.367396   -1.934842    1.583552
     26          1           0        2.947894   -0.292337    1.894567
     27          1           0       -1.343521   -1.947680   -0.883322
 ---------------------------------------------------------------------
                    Distance matrix (angstroms):
                    1          2          3          4          5
     1  O    0.000000
     2  N    1.242242   0.000000
     3  O    2.199215   1.241542   0.000000
     4  C    2.323534   1.472696   2.321094   0.000000
     5  C    3.088399   2.385726   3.163200   1.359383   0.000000
     6  N    4.377873   3.692038   4.400851   2.430588   1.352785
     7  C    5.263464   4.524886   5.173511   3.075095   2.530504
     8  H    6.212801   5.405103   5.934941   4.005886   3.282828
     9  C    5.744989   5.276101   6.131797   3.844665   3.454547
    10  C    7.061399   6.517492   7.259991   5.063431   4.819751
    11  C    7.097610   6.423598   6.981893   5.025145   5.110868
    12  C    6.634050   5.748607   6.088995   4.396306   4.479127
    13  C    5.183278   4.275336   4.683088   2.898271   2.978566
    14  H    5.152715   4.073154   4.214636   2.882098   2.938497
    15  N    4.435480   3.685843   4.191268   2.461484   3.138633
    16  C    3.165965   2.466684   3.093565   1.446669   2.542776
    17  H    3.050159   2.516080   3.210277   2.102959   1.087919
    18  H    4.944016   4.399737   5.148686   3.281465   2.028256
    19  H    5.112138   4.798898   5.751814   3.459092   3.381460
    20  H    6.089079   5.742730   6.679280   4.387933   3.732749
    21  H    7.576100   7.176774   8.010961   5.767943   5.581455
    22  H    7.784751   7.164752   7.844565   5.693105   5.245883
    23  H    6.694793   6.129219   6.730330   4.826861   5.164810
    24  H    8.170211   7.476911   7.978099   6.092800   6.173414
    25  H    6.918425   5.984719   6.159434   4.775119   5.097719
    26  H    7.333124   6.384818   6.661539   5.026310   4.862947
    27  H    3.013484   2.602513   3.192558   2.147514   3.413413
                    6          7          8          9         10
     6  N    0.000000
     7  C    1.465528   0.000000
     8  H    2.040243   1.102065   0.000000
     9  C    2.513051   1.526198   2.135120   0.000000
    10  C    3.824591   2.494005   2.653490   1.533090   0.000000
    11  C    4.337471   2.913148   3.155402   2.534106   1.532901
    12  C    3.787822   2.467750   2.592350   2.946121   2.533750
    13  C    2.497880   1.533624   2.136586   2.509233   2.954995
    14  H    2.662996   2.160678   2.495540   3.459468   3.958621
    15  N    3.166335   2.522817   3.424347   2.954183   3.491771
    16  C    3.110131   3.067551   4.072688   3.575616   4.477806
    17  H    2.058893   3.450978   4.040058   4.350923   5.768566
    18  H    1.014737   2.080802   2.304909   2.814829   4.135665
    19  H    2.840682   2.153730   3.045708   1.095911   2.171180
    20  H    2.699214   2.160498   2.504849   1.098232   2.177648
    21  H    4.653807   3.448000   3.676889   2.162815   1.095925
    22  H    4.070184   2.769142   2.468400   2.157414   1.099141
    23  H    4.632417   3.356239   3.885078   2.828560   2.159556
    24  H    5.344233   3.889617   3.926073   3.483402   2.170514
    25  H    4.617474   3.427028   3.603233   3.940511   3.482372
    26  H    3.979154   2.693555   2.343817   3.341257   2.824162
    27  H    4.127812   4.103605   5.131493   4.396230   5.220019
                   11         12         13         14         15
    11  C    0.000000
    12  C    1.528215   0.000000
    13  C    2.514603   1.534045   0.000000
    14  H    3.468931   2.168070   1.100551   0.000000
    15  N    2.886722   2.398732   1.458377   2.098094   0.000000
    16  C    4.112410   3.615361   2.364983   2.646524   1.289103
    17  H    6.160483   5.501428   4.012784   3.834183   4.202326
    18  H    4.925514   4.512739   3.386697   3.564832   4.122456
    19  H    2.826289   3.345263   2.732459   3.723808   2.593505
    20  H    3.488810   3.939765   3.464005   4.294150   3.959688
    21  H    2.170344   3.480884   3.926211   4.975973   4.197240
    22  H    2.162989   2.837301   3.410644   4.244914   4.275027
    23  H    1.095611   2.143176   2.768078   3.765727   2.544954
    24  H    1.096729   2.161253   3.467359   4.303279   3.875666
    25  H    2.165604   1.095628   2.156620   2.486930   2.613667
    26  H    2.169596   1.098104   2.161622   2.476538   3.356232
    27  H    4.758181   4.421952   3.353130   3.639329   2.035787
                   16         17         18         19         20
    16  C    0.000000
    17  H    3.480878   0.000000
    18  H    4.065915   2.303667   0.000000
    19  H    3.024469   4.309925   3.286968   0.000000
    20  H    4.393363   4.429863   2.592945   1.771150   0.000000
    21  H    5.116905   6.505714   4.881165   2.482043   2.521618
    22  H    5.267228   6.112333   4.211109   3.068220   2.468081
    23  H    3.705227   6.242419   5.312892   2.681141   3.834839
    24  H    5.134868   7.213772   5.876286   3.835976   4.320468
    25  H    3.815051   6.120155   5.431143   4.162507   4.977524
    26  H    4.476451   5.791021   4.549879   4.009238   4.154459
    27  H    1.094737   4.221670   5.040804   3.653499   5.200377
                   21         22         23         24         25
    21  H    0.000000
    22  H    1.765316   0.000000
    23  H    2.463827   3.062830   0.000000
    24  H    2.529096   2.464843   1.765939   0.000000
    25  H    4.310347   3.833558   2.452400   2.504437   0.000000
    26  H    3.834811   2.686753   3.059463   2.487846   1.769614
    27  H    5.713379   6.109270   4.132304   5.722673   4.456067
                   26         27
    26  H    0.000000
    27  H    5.373366   0.000000
 Symmetry turned off by external request.
 Stoichiometry    C9H13N3O2
 Framework group  C1[X(C9H13N3O2)]
 Deg. of freedom    75
 Full point group                 C1      NOp   1
 Rotational constants (GHZ):           1.6636105           0.4124576           0.3810413
 Standard basis: 6-31G(d) (6D, 7F)
   236 basis functions,   444 primitive gaussians,   236 cartesian basis functions
    52 alpha electrons       52 beta electrons
       nuclear repulsion energy       929.7363088563 Hartrees.
 NAtoms=   27 NActive=   27 NUniq=   27 SFac= 1.00D+00 NAtFMM=   60 NAOKFM=F Big=F
 Integral buffers will be    131072 words long.
 Raffenetti 1 integral format.
 Two-electron integral symmetry is turned off.
 One-electron integrals computed using PRISM.
 NBasis=   236 RedAO= T EigKep=  1.51D-03  NBF=   236
 NBsUse=   236 1.00D-06 EigRej= -1.00D+00 NBFU=   236
 Initial guess from the checkpoint file:  "/home/alexey/tmp/Gau-1141068.chk"
 B after Tr=     0.033157   -0.012660    0.000418
         Rot=    0.999988   -0.003923    0.000200   -0.002821 Ang=  -0.55 deg.
 ExpMin= 1.61D-01 ExpMax= 5.48D+03 ExpMxC= 8.25D+02 IAcc=3 IRadAn=         5 AccDes= 0.00D+00
 Harris functional with IExCor=  205 and IRadAn=       5 diagonalized for initial guess.
 HarFok:  IExCor=  205 AccDes= 0.00D+00 IRadAn=         5 IDoV= 1 UseB2=F ITyADJ=14
 ICtDFT=  3500011 ScaDFX=  1.000000  1.000000  1.000000  1.000000
 FoFCou: FMM=F IPFlag=           0 FMFlag=      100000 FMFlg1=           0
         NFxFlg=           0 DoJE=T BraDBF=F KetDBF=T FulRan=T
         wScrn=  0.000000 ICntrl=       500 IOpCl=  0 I1Cent=   200000004 NGrid=           0
         NMat0=    1 NMatS0=      1 NMatT0=    0 NMatD0=    1 NMtDS0=    0 NMtDT0=    0
 Symmetry not used in FoFCou.
 Keep R1 ints in memory in canonical form, NReq=397720213.
 Requested convergence on RMS density matrix=1.00D-08 within 128 cycles.
 Requested convergence on MAX density matrix=1.00D-06.
 Requested convergence on             energy=1.00D-06.
 No special actions if energy rises.
 SCF Done:  E(RHF) =  -661.277144814     A.U. after   17 cycles
            NFock= 17  Conv=0.88D-08     -V/T= 2.0025
 ExpMin= 1.61D-01 ExpMax= 5.48D+03 ExpMxC= 8.25D+02 IAcc=3 IRadAn=         5 AccDes= 0.00D+00
 HarFok:  IExCor=  205 AccDes= 0.00D+00 IRadAn=         5 IDoV=-2 UseB2=F ITyADJ=14
 ICtDFT= 12500011 ScaDFX=  1.000000  1.000000  1.000000  1.000000
 Range of M.O.s used for correlation:    15   236
 NBasis=   236 NAE=    52 NBE=    52 NFC=    14 NFV=     0
 NROrb=    222 NOA=    38 NOB=    38 NVA=   184 NVB=   184
 Fully direct method using O(ONN) memory.
 JobTyp=1 Pass  1:  I=  15 to  52 NPSUse=  4 ParTrn=T ParDer=T DoDerP=T.
 Spin components of T(2) and E(2):
     alpha-alpha T2 =       0.9147460180D-01 E2=     -0.2725106979D+00
     alpha-beta  T2 =       0.4976977550D+00 E2=     -0.1494550113D+01
     beta-beta   T2 =       0.9147460180D-01 E2=     -0.2725106979D+00
 ANorm=    0.1296397685D+01
 E2 =    -0.2039571509D+01 EUMP2 =    -0.66331671632312D+03
          IDoAtm=111111111111111111111111111
          Differentiating once with respect to electric field.
                with respect to dipole field.
          Differentiating once with respect to nuclear coordinates.
 Keep R1 ints in memory in canonical form, NReq=397723379.
          There are     1 degrees of freedom in the 1st order CPHF.  IDoFFX=0 NUNeed=     1.
 LinEq1:  Iter=  0 NonCon=     1 RMS=4.50D-03 Max=1.24D-01 NDo=     1
 AX will form     1 AO Fock derivatives at one time.
 LinEq1:  Iter=  1 NonCon=     1 RMS=1.50D-03 Max=3.31D-02 NDo=     1
 LinEq1:  Iter=  2 NonCon=     1 RMS=6.35D-04 Max=1.80D-02 NDo=     1
 LinEq1:  Iter=  3 NonCon=     1 RMS=2.77D-04 Max=4.20D-03 NDo=     1
 LinEq1:  Iter=  4 NonCon=     1 RMS=8.53D-05 Max=1.38D-03 NDo=     1
 LinEq1:  Iter=  5 NonCon=     1 RMS=3.38D-05 Max=1.07D-03 NDo=     1
 LinEq1:  Iter=  6 NonCon=     1 RMS=1.32D-05 Max=3.82D-04 NDo=     1
 LinEq1:  Iter=  7 NonCon=     1 RMS=5.64D-06 Max=1.79D-04 NDo=     1
[...]
    19  H    2.997358   4.295532   3.554016   0.000000
    20  H    4.382066   4.442529   2.933421   1.767698   0.000000
    21  H    5.098481   6.506784   5.121158   2.499746   2.522321
    22  H    5.249999   6.099964   4.329411   3.070374   2.462301
    23  H    3.690583   6.232352   5.435189   2.705953   3.843874
    24  H    5.129777   7.201114   5.941728   3.850703   4.317836
    25  H    3.819390   6.094773   5.350602   4.175827   4.985805
    26  H    4.489963   5.781326   4.454638   4.032349   4.175776
    27  H    1.094347   4.223010   5.105124   3.606915   5.170135
                   21         22         23         24         25
    21  H    0.000000
    22  H    1.758822   0.000000
    23  H    2.470001   3.062114   0.000000
    24  H    2.516965   2.459532   1.764411   0.000000
    25  H    4.312079   3.836565   2.446643   2.518126   0.000000
    26  H    3.843219   2.698744   3.060630   2.493953   1.767926
    27  H    5.670575   6.074459   4.097746   5.700558   4.456341
                   26         27
    26  H    0.000000
    27  H    5.379832   0.000000
 Symmetry turned off by external request.
 Stoichiometry    C9H13N3O2
 Framework group  C1[X(C9H13N3O2)]
 Deg. of freedom    75
 Full point group                 C1      NOp   1
 Rotational constants (GHZ):           1.6572983           0.4126717           0.3823847

 **********************************************************************

            Population analysis using the SCF Density.

 **********************************************************************

 Alpha  occ. eigenvalues --  -20.60884 -20.60870 -15.84973 -15.62576 -15.56377
 Alpha  occ. eigenvalues --  -11.34363 -11.30265 -11.29089 -11.28603 -11.26928
 Alpha  occ. eigenvalues --  -11.23184 -11.22862 -11.22487 -11.21867  -1.57935
 Alpha  occ. eigenvalues --   -1.37721  -1.29820  -1.23106  -1.14600  -1.09693
 Alpha  occ. eigenvalues --   -1.02424  -1.00895  -0.94511  -0.89813  -0.85119
 Alpha  occ. eigenvalues --   -0.82595  -0.78306  -0.77912  -0.74819  -0.71923
 Alpha  occ. eigenvalues --   -0.71254  -0.68569  -0.66931  -0.65268  -0.63292
 Alpha  occ. eigenvalues --   -0.62080  -0.60204  -0.57320  -0.56737  -0.54894
 Alpha  occ. eigenvalues --   -0.54274  -0.51397  -0.50219  -0.49068  -0.48360
 Alpha  occ. eigenvalues --   -0.47893  -0.46130  -0.45806  -0.43838  -0.41458
 Alpha  occ. eigenvalues --   -0.40034  -0.33052
 Alpha virt. eigenvalues --    0.08947   0.09774   0.17544   0.21310   0.23499
 Alpha virt. eigenvalues --    0.24696   0.26284   0.28153   0.29022   0.29316
 Alpha virt. eigenvalues --    0.29611   0.31760   0.32143   0.32926   0.34147
 Alpha virt. eigenvalues --    0.34558   0.35576   0.37359   0.38871   0.38971
 Alpha virt. eigenvalues --    0.41264   0.42703   0.44414   0.45920   0.47114
 Alpha virt. eigenvalues --    0.48068   0.50895   0.54164   0.56918   0.58858
 Alpha virt. eigenvalues --    0.59255   0.69846   0.70113   0.72874   0.74285
 Alpha virt. eigenvalues --    0.74518   0.75909   0.76390   0.78958   0.79197
 Alpha virt. eigenvalues --    0.79933   0.84107   0.85480   0.86203   0.88399
 Alpha virt. eigenvalues --    0.89641   0.89976   0.91927   0.92816   0.93132
 Alpha virt. eigenvalues --    0.95214   0.97666   0.99552   1.01839   1.02385
 Alpha virt. eigenvalues --    1.04176   1.06217   1.06267   1.08012   1.08272
 Alpha virt. eigenvalues --    1.10301   1.10663   1.11835   1.12273   1.13258
 Alpha virt. eigenvalues --    1.14063   1.14242   1.14997   1.16285   1.16775
 Alpha virt. eigenvalues --    1.17457   1.19130   1.19444   1.21757   1.23255
 Alpha virt. eigenvalues --    1.23740   1.24327   1.25502   1.26716   1.28092
 Alpha virt. eigenvalues --    1.28518   1.31456   1.33438   1.36833   1.37095
 Alpha virt. eigenvalues --    1.41126   1.42793   1.45363   1.50956   1.53243
 Alpha virt. eigenvalues --    1.55793   1.55877   1.61216   1.63926   1.66932
 Alpha virt. eigenvalues --    1.67407   1.70163   1.72854   1.74816   1.75496
 Alpha virt. eigenvalues --    1.80756   1.84742   1.88466   1.92005   1.92262
 Alpha virt. eigenvalues --    1.96478   1.97029   2.00842   2.01404   2.02831
 Alpha virt. eigenvalues --    2.04648   2.05559   2.07784   2.09575   2.10747
 Alpha virt. eigenvalues --    2.11681   2.15554   2.16154   2.20099   2.22522
 Alpha virt. eigenvalues --    2.23798   2.25571   2.28179   2.28521   2.29856
 Alpha virt. eigenvalues --    2.31802   2.33403   2.34578   2.35538   2.38319
 Alpha virt. eigenvalues --    2.39765   2.40098   2.42784   2.46171   2.46755
 Alpha virt. eigenvalues --    2.48000   2.51970   2.53656   2.55221   2.61075
 Alpha virt. eigenvalues --    2.62330   2.64425   2.68720   2.70559   2.70989
 Alpha virt. eigenvalues --    2.72519   2.73790   2.75840   2.78206   2.81386
 Alpha virt. eigenvalues --    2.88382   2.90842   2.92240   2.94985   2.96775
 Alpha virt. eigenvalues --    2.99419   3.02359   3.05562   3.08625   3.09267
 Alpha virt. eigenvalues --    3.12197   3.15277   3.17389   3.21780   3.23770
 Alpha virt. eigenvalues --    3.29929   3.36649   3.38478   3.40624   3.63199
 Alpha virt. eigenvalues --    4.15663   4.16882   4.32398   4.35927   4.48703
 Alpha virt. eigenvalues --    4.56121   4.61392   4.62940   4.73957   4.80145
 Alpha virt. eigenvalues --    5.00528   5.01472   5.06173   5.11174
          Condensed to atoms (all electrons):
               1          2          3          4          5          6
     1  O    8.306993   0.292357  -0.078663  -0.088212   0.004246   0.000035
     2  N    0.292357   5.833846   0.292038   0.232301  -0.052891   0.001349
     3  O   -0.078663   0.292038   8.297048  -0.075643  -0.000087  -0.000007
     4  C   -0.088212   0.232301  -0.075643   5.170818   0.605717  -0.050084
     5  C    0.004246  -0.052891  -0.000087   0.605717   4.622460   0.339838
     6  N    0.000035   0.001349  -0.000007  -0.050084   0.339838   7.175952
     7  C   -0.000006  -0.000146   0.000007   0.003555  -0.032935   0.184677
     8  H    0.000000   0.000002  -0.000000  -0.000211   0.003258  -0.049653
     9  C   -0.000000  -0.000005   0.000000   0.000882   0.001050  -0.063979
    10  C    0.000000   0.000000  -0.000000  -0.000041  -0.000068   0.003805
    11  C   -0.000000  -0.000000   0.000000  -0.000034   0.000025  -0.000195
    12  C    0.000000   0.000002  -0.000000  -0.000063  -0.000168   0.003801
    13  C    0.000005  -0.000058  -0.000023  -0.012060   0.000145  -0.049671
    14  H    0.000001  -0.000102  -0.000010   0.002920   0.006600  -0.007005
    15  N    0.000024   0.002232  -0.000034  -0.066160  -0.008801   0.003057
    16  C    0.003381  -0.033769   0.001095   0.331294  -0.034300  -0.003650
    17  H    0.001361  -0.003714   0.000273  -0.035632   0.391456  -0.034612
    18  H    0.000001  -0.000076   0.000002   0.002345  -0.028096   0.337487
    19  H    0.000001  -0.000005  -0.000000  -0.001208   0.001001  -0.000069
    20  H    0.000000  -0.000000  -0.000000  -0.000085   0.000155   0.000065
    21  H   -0.000000   0.000000   0.000000   0.000001   0.000001  -0.000077
    22  H    0.000000   0.000000  -0.000000  -0.000000  -0.000003  -0.000115
    23  H    0.000000  -0.000000  -0.000000   0.000039   0.000000  -0.000030
    24  H    0.000000   0.000000  -0.000000   0.000000  -0.000000   0.000006
    25  H    0.000000  -0.000000   0.000000   0.000024   0.000000  -0.000090
    26  H    0.000000  -0.000000   0.000000   0.000005  -0.000002  -0.000053
    27  H    0.001432   0.000328  -0.000049  -0.076104   0.001869   0.000005
               7          8          9         10         11         12
     1  O   -0.000006   0.000000  -0.000000   0.000000  -0.000000   0.000000
     2  N   -0.000146   0.000002  -0.000005   0.000000  -0.000000   0.000002
     3  O    0.000007  -0.000000   0.000000  -0.000000   0.000000  -0.000000
     4  C    0.003555  -0.000211   0.000882  -0.000041  -0.000034  -0.000063
     5  C   -0.032935   0.003258   0.001050  -0.000068   0.000025  -0.000168
     6  N    0.184677  -0.049653  -0.063979   0.003805  -0.000195   0.003801
     7  C    5.004494   0.417804   0.352659  -0.054934  -0.008723  -0.060898
     8  H    0.417804   0.542065  -0.055473   0.000574  -0.000293  -0.002363
     9  C    0.352659  -0.055473   5.156613   0.324286  -0.050284  -0.004977
    10  C   -0.054934   0.000574   0.324286   5.120865   0.336802  -0.061189
    11  C   -0.008723  -0.000293  -0.050284   0.336802   5.120696   0.335866
    12  C   -0.060898  -0.002363  -0.004977  -0.061189   0.335866   5.119746
    13  C    0.338797  -0.037647  -0.063112   0.000282  -0.051206   0.370021
    14  H   -0.046171  -0.000702   0.004391  -0.000394   0.004154  -0.035751
    15  N   -0.059557   0.003838  -0.013813   0.001718  -0.013373  -0.082165
    16  C   -0.001862  -0.000025  -0.000922  -0.000049   0.000034   0.002894
    17  H    0.002188  -0.000078  -0.000080   0.000001   0.000000   0.000001
    18  H   -0.022448  -0.004850   0.001652  -0.000087   0.000003  -0.000118
    19  H   -0.037000   0.004381   0.390966  -0.032829  -0.002253   0.000720
    20  H   -0.041851  -0.001943   0.399135  -0.035408   0.003935  -0.000410
    21  H    0.004587  -0.000079  -0.036176   0.402190  -0.035108   0.004381
    22  H   -0.004827   0.003610  -0.046778   0.397512  -0.045555  -0.001123
    23  H    0.000570   0.000037  -0.001934  -0.039101   0.399323  -0.038136
    24  H   -0.000141  -0.000102   0.004351  -0.038351   0.402245  -0.038738
    25  H    0.005066  -0.000011  -0.000448   0.004219  -0.033664   0.398357
    26  H   -0.003986   0.001661   0.000974  -0.002278  -0.041291   0.396814
    27  H   -0.000420   0.000009  -0.000059   0.000007   0.000013  -0.000043
              13         14         15         16         17         18
     1  O    0.000005   0.000001   0.000024   0.003381   0.001361   0.000001
     2  N   -0.000058  -0.000102   0.002232  -0.033769  -0.003714  -0.000076
     3  O   -0.000023  -0.000010  -0.000034   0.001095   0.000273   0.000002
     4  C   -0.012060   0.002920  -0.066160   0.331294  -0.035632   0.002345
     5  C    0.000145   0.006600  -0.008801  -0.034300   0.391456  -0.028096
     6  N   -0.049671  -0.007005   0.003057  -0.003650  -0.034612   0.337487
     7  C    0.338797  -0.046171  -0.059557  -0.001862   0.002188  -0.022448
     8  H   -0.037647  -0.000702   0.003838  -0.000025  -0.000078  -0.004850
     9  C   -0.063112   0.004391  -0.013813  -0.000922  -0.000080   0.001652
    10  C    0.000282  -0.000394   0.001718  -0.000049   0.000001  -0.000087
    11  C   -0.051206   0.004154  -0.013373   0.000034   0.000000   0.000003
    12  C    0.370021  -0.035751  -0.082165   0.002894   0.000001  -0.000118
    13  C    5.044087   0.403695   0.253677  -0.073210  -0.000029   0.002826
    14  H    0.403695   0.522766  -0.037904  -0.005718   0.000085  -0.000117
    15  N    0.253677  -0.037904   6.927630   0.611966  -0.000070  -0.000136
    16  C   -0.073210  -0.005718   0.611966   4.668908   0.001832  -0.000130
    17  H   -0.000029   0.000085  -0.000070   0.001832   0.427670  -0.003427
    18  H    0.002826  -0.000117  -0.000136  -0.000130  -0.003427   0.316773
    19  H   -0.007397   0.000104   0.007139   0.002606   0.000013  -0.000149
    20  H    0.004427  -0.000067   0.000131  -0.000040   0.000001   0.000586
    21  H   -0.000456   0.000010  -0.000047   0.000004  -0.000000   0.000002
    22  H    0.000061  -0.000053   0.000023  -0.000002   0.000000   0.000000
    23  H   -0.007561   0.000002   0.008402   0.000112   0.000000   0.000000
    24  H    0.004712  -0.000056   0.000127   0.000007   0.000000  -0.000000
    25  H   -0.035785  -0.002809   0.000346  -0.000002  -0.000000   0.000002
    26  H   -0.047008  -0.001024   0.004855  -0.000073   0.000000  -0.000000
    27  H    0.005461  -0.000187  -0.036946   0.406742  -0.000095   0.000001
              19         20         21         22         23         24
     1  O    0.000001   0.000000  -0.000000   0.000000   0.000000   0.000000
     2  N   -0.000005  -0.000000   0.000000   0.000000  -0.000000   0.000000
     3  O   -0.000000  -0.000000   0.000000  -0.000000  -0.000000  -0.000000
     4  C   -0.001208  -0.000085   0.000001  -0.000000   0.000039   0.000000
     5  C    0.001001   0.000155   0.000001  -0.000003   0.000000  -0.000000
     6  N   -0.000069   0.000065  -0.000077  -0.000115  -0.000030   0.000006
     7  C   -0.037000  -0.041851   0.004587  -0.004827   0.000570  -0.000141
     8  H    0.004381  -0.001943  -0.000079   0.003610   0.000037  -0.000102
     9  C    0.390966   0.399135  -0.036176  -0.046778  -0.001934   0.004351
    10  C   -0.032829  -0.035408   0.402190   0.397512  -0.039101  -0.038351
    11  C   -0.002253   0.003935  -0.035108  -0.045555   0.399323   0.402245
    12  C    0.000720  -0.000410   0.004381  -0.001123  -0.038136  -0.038738
    13  C   -0.007397   0.004427  -0.000456   0.000061  -0.007561   0.004712
    14  H    0.000104  -0.000067   0.000010  -0.000053   0.000002  -0.000056
    15  N    0.007139   0.000131  -0.000047   0.000023   0.008402   0.000127
    16  C    0.002606  -0.000040   0.000004  -0.000002   0.000112   0.000007
    17  H    0.000013   0.000001  -0.000000   0.000000   0.000000   0.000000
    18  H   -0.000149   0.000586   0.000002   0.000000   0.000000  -0.000000
    19  H    0.507308  -0.024462  -0.002794   0.003995   0.001533  -0.000068
    20  H   -0.024462   0.539731  -0.002726  -0.002977  -0.000047  -0.000082
    21  H   -0.002794  -0.002726   0.526185  -0.027618  -0.002924  -0.002262
    22  H    0.003995  -0.002977  -0.027618   0.572704   0.004165  -0.003649
    23  H    0.001533  -0.000047  -0.002924   0.004165   0.501366  -0.025667
    24  H   -0.000068  -0.000082  -0.002262  -0.003649  -0.025667   0.539615
    25  H   -0.000027   0.000013  -0.000089  -0.000080  -0.002298  -0.002317
    26  H    0.000020  -0.000031  -0.000080   0.002392   0.004074  -0.003013
    27  H    0.000099   0.000000  -0.000000   0.000000  -0.000034  -0.000000
              25         26         27
     1  O    0.000000   0.000000   0.001432
     2  N   -0.000000  -0.000000   0.000328
     3  O    0.000000   0.000000  -0.000049
     4  C    0.000024   0.000005  -0.076104
     5  C    0.000000  -0.000002   0.001869
     6  N   -0.000090  -0.000053   0.000005
     7  C    0.005066  -0.003986  -0.000420
     8  H   -0.000011   0.001661   0.000009
     9  C   -0.000448   0.000974  -0.000059
    10  C    0.004219  -0.002278   0.000007
    11  C   -0.033664  -0.041291   0.000013
    12  C    0.398357   0.396814  -0.000043
    13  C   -0.035785  -0.047008   0.005461
    14  H   -0.002809  -0.001024  -0.000187
    15  N    0.000346   0.004855  -0.036946
    16  C   -0.000002  -0.000073   0.406742
    17  H   -0.000000   0.000000  -0.000095
    18  H    0.000002  -0.000000   0.000001
    19  H   -0.000027   0.000020   0.000099
    20  H    0.000013  -0.000031   0.000000
    21  H   -0.000089  -0.000080  -0.000000
    22  H   -0.000080   0.002392   0.000000
    23  H   -0.002298   0.004074  -0.000034
    24  H   -0.002317  -0.003013  -0.000000
    25  H    0.508660  -0.024245  -0.000013
    26  H   -0.024245   0.561672   0.000001
    27  H   -0.000013   0.000001   0.470346
 Mulliken charges:
               1
     1  O   -0.442957
     2  N    0.436312
     3  O   -0.435947
     4  C    0.055637
     5  C    0.179531
     6  N   -0.790786
     7  C    0.061503
     8  H    0.176191
     9  C   -0.298920
    10  C   -0.327534
    11  C   -0.321116
    12  C   -0.306460
    13  C   -0.042972
    14  H    0.193341
    15  N   -0.506159
    16  C    0.122878
    17  H    0.252853
    18  H    0.397952
    19  H    0.188373
    20  H    0.161952
    21  H    0.173072
    22  H    0.148318
    23  H    0.198109
    24  H    0.163384
    25  H    0.185192
    26  H    0.150614
    27  H    0.227637
 Sum of Mulliken charges =  -0.00000
 Mulliken charges with hydrogens summed into heavy atoms:
               1
     1  O   -0.442957
     2  N    0.436312
     3  O   -0.435947
     4  C    0.055637
     5  C    0.432384
     6  N   -0.392833
     7  C    0.237694
     9  C    0.051406
    10  C   -0.006143
    11  C    0.040378
    12  C    0.029346
    13  C    0.150369
    15  N   -0.506159
    16  C    0.350515
 Electronic spatial extent (au):  <R**2>=           2991.2653
 Charge=             -0.0000 electrons
 Dipole moment (field-independent basis, Debye):
    X=              4.4102    Y=              4.4527    Z=              1.2313  Tot=              6.3869
 Quadrupole moment (field-independent basis, Debye-Ang):
   XX=           -101.8127   YY=            -75.5995   ZZ=            -86.4740
   XY=             -2.5611   XZ=             -0.4944   YZ=              4.1030
 Traceless Quadrupole moment (field-independent basis, Debye-Ang):
   XX=            -13.8506   YY=             12.3625   ZZ=              1.4881
   XY=             -2.5611   XZ=             -0.4944   YZ=              4.1030
 Octapole moment (field-independent basis, Debye-Ang**2):
  XXX=             68.8802  YYY=             31.3734  ZZZ=              1.9970  XYY=            -20.4365
  XXY=             17.1187  XXZ=              6.4842  XZZ=              5.9444  YZZ=             -0.2729
  YYZ=              4.8948  XYZ=             -7.1388
 Hexadecapole moment (field-independent basis, Debye-Ang**3):
 XXXX=          -3267.6589 YYYY=           -531.3749 ZZZZ=           -386.1770 XXXY=            -69.4962
 XXXZ=            -28.2732 YYYX=             -2.2416 YYYZ=             52.7493 ZZZX=            -17.9257
 ZZZY=             33.7573 XXYY=           -559.6624 XXZZ=           -588.0519 YYZZ=           -161.1680
 XXYZ=             32.5945 YYXZ=              5.6396 ZZXY=             -1.0945
 N-N= 9.297910246165D+02 E-N=-3.406241151368D+03  KE= 6.595944598899D+02
 Unable to Open any file for archive entry.
 1\1\GINC-LOTUS\FOpt\RMP2-FC\6-31G(d)\C9H13N3O2\ALEXEY\30-Jun-2023\0\\#
 MP2/6-31G* SCF=Tight Opt=(ModRedun, MaxCycle=20 ) NoSymm\\MolName:\\0,
 1\O,-3.619408995,-0.0180550136,-1.2610387962\N,-3.109661786,-0.2437929
 087,-0.1459736951\O,-3.7240242753,-0.6937512991,0.8408909809\C,-1.6716
 559855,-0.0211105004,0.0074856492\C,-1.3050662359,1.2764904793,0.21020
 70175\N,-0.054946467,1.7863237469,0.2863031362\C,1.2019362035,1.051720
 2612,0.304843054\H,1.8572520098,1.6180693039,0.9837509818\C,1.90222863
 3,0.9718713086,-1.0510033285\C,3.3001158128,0.3735433144,-0.8559907651
 \C,3.2535003919,-0.9792370088,-0.1408455021\C,2.4661078083,-0.90292289
 7,1.1686186359\C,1.0543778912,-0.3684170072,0.8995041777\H,0.476489624
 6,-0.2883086741,1.833825383\N,0.4078603035,-1.3276678667,0.0099460133\
 C,-0.8428491554,-1.1637456524,-0.2834328326\H,-2.0951413995,2.01954572
 18,0.3034828537\H,-0.0010535553,2.7667462427,0.5310666146\H,1.30311995
 92,0.3515764746,-1.7266131434\H,1.96721592,1.9731970056,-1.4940633477\
 H,3.7996068381,0.2720179225,-1.8263831315\H,3.9046471721,1.0775665267,
 -0.2664107746\H,2.7707773788,-1.7187432345,-0.7874976775\H,4.273036789
 2,-1.333059206,0.0536982192\H,2.385187064,-1.8963631519,1.6220321784\H
 ,2.978267628,-0.2527771355,1.8911867451\H,-1.3189095731,-1.9666967521,
 -0.8545986463\\Version=ES64L-G16RevC.02\HF=-661.2782873\MP2=-663.32016
 33\RMSD=9.967e-09\RMSF=3.764e-04\Dipole=1.597903,1.5880702,0.4433955\P
 G=C01 [X(C9H13N3O2)]\\@
 The archive entry for this job was punched.


 THE UNDERLYING PHYSICAL LAWS NECESSARY FOR THE 
 MATHEMATICAL THEORY OF A LARGE PART OF PHYSICS AND THE
 WHOLE OF CHEMISTRY ARE THUS COMPLETELY KNOWN, AND THE
 DIFFICULTY IS ONLY THAT THE EXACT APPLICATION OF THESE
 LAWS LEADS TO EQUATIONS MUCH TOO COMPLICATED 
 TO BE SOLUBLE.

                                        -- P. A. M. DIRAC, 1929
 Job cpu time:       0 days  1 hours 27 minutes 46.1 seconds.
 Elapsed time:       0 days  0 hours 26 minutes 17.4 seconds.
 File lengths (MBytes):  RWF=     36 Int=      0 D2E=      0 Chk=      7 Scr=      1
 Normal termination of Gaussian 16 at Fri Jun 30 12:31:57 2023.
