 Entering Gaussian System, Link 0=g16
 Initial command:
 /home/alexey/programs//g16/l1.exe "/home/alexey/tmp/Gau-1137705.inp" -scrdir="/home/alexey/tmp/"
 Entering Link 1 = /home/alexey/programs//g16/l1.exe PID=   1137707.
  
 Copyright (c) 1988-2021, Gaussian, Inc.  All Rights Reserved.
  
 This is part of the Gaussian(R) 16 program.  It is based on
 the Gaussian(R) 09 system (copyright 2009, Gaussian, Inc.),
 the Gaussian(R) 03 system (copyright 2003, Gaussian, Inc.),
 the Gaussian(R) 98 system (copyright 1998, Gaussian, Inc.),
 the Gaussian(R) 94 system (copyright 1995, Gaussian, Inc.),
 the Gaussian 92(TM) system (copyright 1992, Gaussian, Inc.),
 the Gaussian 90(TM) system (copyright 1990, Gaussian, Inc.),
 the Gaussian 88(TM) system (copyright 1988, Gaussian, Inc.),
 the Gaussian 86(TM) system (copyright 1986, Carnegie Mellon
 University), and the Gaussian 82(TM) system (copyright 1983,
 Carnegie Mellon University). Gaussian is a federally registered
 trademark of Gaussian, Inc.
  
 This software contains proprietary and confidential information,
 including trade secrets, belonging to Gaussian, Inc.
  
 This software is provided under written license and may be
 used, copied, transmitted, or stored only in accord with that
 written license.
  
 The following legend is applicable only to US Government
 contracts under FAR:
  
                    RESTRICTED RIGHTS LEGEND
  
 Use, reproduction and disclosure by the US Government is
 subject to restrictions as set forth in subparagraphs (a)
 and (c) of the Commercial Computer Software - Restricted
 Rights clause in FAR 52.227-19.
  
 Gaussian, Inc.
 340 Quinnipiac St., Bldg. 40, Wallingford CT 06492
  
  
 ---------------------------------------------------------------
 Warning -- This program may not be used in any manner that
 competes with the business of Gaussian, Inc. or will provide
 assistance to any competitor of Gaussian, Inc.  The licensee
 of this program is prohibited from giving any competitor of
 Gaussian, Inc. access to this program.  By using this program,
 the user acknowledges that Gaussian, Inc. is engaged in the
 business of creating and licensing software in the field of
 computational chemistry and represents and warrants to the
 licensee that it is not a competitor of Gaussian, Inc. and that
 it will not use this program in any manner prohibited above.
 ---------------------------------------------------------------
  

 Cite this work as:
 Gaussian 16, Revision C.02,
 M. J. Frisch, G. W. Trucks, H. B. Schlegel, G. E. Scuseria, 
 M. A. Robb, J. R. Cheeseman, G. Scalmani, V. Barone, 
 G. A. Petersson, H. Nakatsuji, X. Li, M. Caricato, A. V. Marenich, 
 J. Bloino, B. G. Janesko, R. Gomperts, B. Mennucci, H. P. Hratchian, 
 J. V. Ortiz, A. F. Izmaylov, J. L. Sonnenberg, D. Williams-Young, 
 F. Ding, F. Lipparini, F. Egidi, J. Goings, B. Peng, A. Petrone, 
 T. Henderson, D. Ranasinghe, V. G. Zakrzewski, J. Gao, N. Rega, 
 G. Zheng, W. Liang, M. Hada, M. Ehara, K. Toyota, R. Fukuda, 
 J. Hasegawa, M. Ishida, T. Nakajima, Y. Honda, O. Kitao, H. Nakai, 
 T. Vreven, K. Throssell, J. A. Montgomery, Jr., J. E. Peralta, 
 F. Ogliaro, M. J. Bearpark, J. J. Heyd, E. N. Brothers, K. N. Kudin, 
 V. N. Staroverov, T. A. Keith, R. Kobayashi, J. Normand, 
 K. Raghavachari, A. P. Rendell, J. C. Burant, S. S. Iyengar, 
 J. Tomasi, M. Cossi, J. M. Millam, M. Klene, C. Adamo, R. Cammi, 
 J. W. Ochterski, R. L. Martin, K. Morokuma, O. Farkas, 
 J. B. Foresman, and D. J. Fox, Gaussian, Inc., Wallingford CT, 2019.
 
 ******************************************
 Gaussian 16:  ES64L-G16RevC.02  7-Dec-2021
                30-Jun-2023 
 ******************************************
 %mem=8GB
 %NPROCS=4
 Will use up to    4 processors via shared memory.
 %NoSave
 ---------------------------------------------------------
 #MP2/6-31G* SCF=Tight Opt=(ModRedun, MaxCycle=20 ) NoSymm
 ---------------------------------------------------------
 1/6=20,18=120,19=15,38=1/1,3;
 2/9=110,12=2,15=1,17=6,18=5,40=1/2;
 3/5=1,6=6,7=1,11=9,25=1,30=1,71=1/1,2,3;
 4//1;
 5/5=2,32=2,38=5/2;
 8/6=4,10=2/1;
 9/15=2,16=-3/6;
 10/5=1,31=1/2;
 6/7=2,8=2,9=2,10=2/1;
 7/12=2,30=1/1,2,3,16;
 1/6=20,18=20,19=15/3(2);
 2/9=110,15=1/2;
 99//99;
 2/9=110,15=1/2;
 3/5=1,6=6,7=1,11=9,25=1,30=1,71=1/1,2,3;
 4/5=5,16=3,69=1/1;
 5/5=2,32=2,38=5/2;
 8/6=4,10=2/1;
 9/15=2,16=-3/6;
 10/5=1,31=1/2;
 7/12=2,30=1/1,2,3,16;
 1/6=20,18=20,19=15/3(-8);
 2/9=110,15=1/2;
 6/7=2,8=2,9=2,10=2/1;
 99/9=10/99;
 --------
 MolName:
 --------
 Symbolic Z-matrix:
 Charge =  0 Multiplicity = 1
 8                    0    -3.71159  -0.32124  -1.17823 
 7                    0    -3.18602  -0.28677  -0.06904 
 8                    0    -3.76961  -0.24469   1.01111 
 6                    0    -1.73032  -0.01984  -0.04834 
 6                    0    -1.38383   1.3063    0.19542 
 7                    0    -0.10269   1.77135   0.33404 
 6                    0     1.18134   1.00298   0.33337 
 1                    0     1.84695   1.53979   1.05791 
 6                    0     1.93493   0.99537  -1.02006 
 6                    0     3.35318   0.42968  -0.81453 
 6                    0     3.30812  -0.95664  -0.1526 
 6                    0     2.47065  -0.93528   1.14412 
 6                    0     1.0268   -0.42651   0.88136 
 1                    0     0.48479  -0.42176   1.85613 
 7                    0     0.37144  -1.35518  -0.04657 
 6                    0    -0.8744   -1.18438  -0.34354 
 1                    0    -2.19547   2.0396    0.33753 
 1                    0     0.12734   2.75026   0.14704 
 1                    0     1.38368   0.37755  -1.76064 
 1                    0     2.00957   2.02776  -1.42286 
 1                    0     3.88021   0.36331  -1.79148 
 1                    0     3.93031   1.12053  -0.1601 
 1                    0     2.86131  -1.68492  -0.86652 
 1                    0     4.34097  -1.30091   0.07312 
 1                    0     2.42556  -1.96248   1.5678 
 1                    0     2.96421  -0.28152   1.8934 
 1                    0    -1.39142  -1.97936  -0.90283 
 
 The following ModRedundant input section has been read:
 D       1       2       4      16 F                                           
 D       7      13      15      16 F                                           
 D       7       9      10      11 F                                           
 D       9      10      11      12 F                                           
 D       6       7      13      15 F                                           
 

 GradGradGradGradGradGradGradGradGradGradGradGradGradGradGradGradGradGrad
 Berny optimization.
 Initialization pass.
                           ----------------------------
                           !    Initial Parameters    !
                           ! (Angstroms and Degrees)  !
 --------------------------                            --------------------------
 ! Name  Definition              Value          Derivative Info.                !
 --------------------------------------------------------------------------------
 ! R1    R(1,2)                  1.2279         estimate D2E/DX2                !
 ! R2    R(2,3)                  1.2284         estimate D2E/DX2                !
 ! R3    R(2,4)                  1.4801         estimate D2E/DX2                !
 ! R4    R(4,5)                  1.3922         estimate D2E/DX2                !
 ! R5    R(4,16)                 1.4751         estimate D2E/DX2                !
 ! R6    R(5,6)                  1.37           estimate D2E/DX2                !
 ! R7    R(5,17)                 1.103          estimate D2E/DX2                !
 ! R8    R(6,7)                  1.4964         estimate D2E/DX2                !
 ! R9    R(6,18)                 1.0228         estimate D2E/DX2                !
 ! R10   R(7,8)                  1.1208         estimate D2E/DX2                !
 ! R11   R(7,9)                  1.5491         estimate D2E/DX2                !
 ! R12   R(7,13)                 1.5387         estimate D2E/DX2                !
 ! R13   R(9,10)                 1.5407         estimate D2E/DX2                !
 ! R14   R(9,19)                 1.1109         estimate D2E/DX2                !
 ! R15   R(9,20)                 1.1107         estimate D2E/DX2                !
 ! R16   R(10,11)                1.5369         estimate D2E/DX2                !
 ! R17   R(10,21)                1.112          estimate D2E/DX2                !
 ! R18   R(10,22)                1.1129         estimate D2E/DX2                !
 ! R19   R(11,12)                1.5438         estimate D2E/DX2                !
 ! R20   R(11,23)                1.1134         estimate D2E/DX2                !
 ! R21   R(11,24)                1.1119         estimate D2E/DX2                !
 ! R22   R(12,13)                1.5533         estimate D2E/DX2                !
 ! R23   R(12,25)                1.1121         estimate D2E/DX2                !
 ! R24   R(12,26)                1.1101         estimate D2E/DX2                !
 ! R25   R(13,14)                1.1153         estimate D2E/DX2                !
 ! R26   R(13,15)                1.4673         estimate D2E/DX2                !
 ! R27   R(15,16)                1.2921         estimate D2E/DX2                !
 ! R28   R(16,27)                1.101          estimate D2E/DX2                !
 ! A1    A(1,2,3)              126.2923         estimate D2E/DX2                !
 ! A2    A(1,2,4)              116.0186         estimate D2E/DX2                !
 ! A3    A(3,2,4)              116.6637         estimate D2E/DX2                !
 ! A4    A(2,4,5)              114.7727         estimate D2E/DX2                !
 ! A5    A(2,4,16)             115.1824         estimate D2E/DX2                !
 ! A6    A(5,4,16)             129.9899         estimate D2E/DX2                !
 ! A7    A(4,5,6)              125.0175         estimate D2E/DX2                !
 ! A8    A(4,5,17)             118.2094         estimate D2E/DX2                !
 ! A9    A(6,5,17)             116.7055         estimate D2E/DX2                !
 ! A10   A(5,6,7)              128.9104         estimate D2E/DX2                !
 ! A11   A(5,6,18)             121.1117         estimate D2E/DX2                !
 ! A12   A(7,6,18)             107.3604         estimate D2E/DX2                !
 ! A13   A(6,7,8)              105.2704         estimate D2E/DX2                !
 ! A14   A(6,7,9)              114.8567         estimate D2E/DX2                !
 ! A15   A(6,7,13)             112.998          estimate D2E/DX2                !
 ! A16   A(8,7,9)              106.1558         estimate D2E/DX2                !
 ! A17   A(8,7,13)             105.9252         estimate D2E/DX2                !
 ! A18   A(9,7,13)             110.8208         estimate D2E/DX2                !
 ! A19   A(7,9,10)             109.4549         estimate D2E/DX2                !
 ! A20   A(7,9,19)             110.1078         estimate D2E/DX2                !
 ! A21   A(7,9,20)             110.18           estimate D2E/DX2                !
 ! A22   A(10,9,19)            109.9701         estimate D2E/DX2                !
 ! A23   A(10,9,20)            109.1354         estimate D2E/DX2                !
 ! A24   A(19,9,20)            107.9703         estimate D2E/DX2                !
 ! A25   A(9,10,11)            111.2023         estimate D2E/DX2                !
 ! A26   A(9,10,21)            109.9374         estimate D2E/DX2                !
 ! A27   A(9,10,22)            109.1403         estimate D2E/DX2                !
 ! A28   A(11,10,21)           109.7816         estimate D2E/DX2                !
 ! A29   A(11,10,22)           108.7763         estimate D2E/DX2                !
 ! A30   A(21,10,22)           107.9313         estimate D2E/DX2                !
 ! A31   A(10,11,12)           111.4191         estimate D2E/DX2                !
 ! A32   A(10,11,23)           109.0028         estimate D2E/DX2                !
 ! A33   A(10,11,24)           109.8461         estimate D2E/DX2                !
 ! A34   A(12,11,23)           109.2647         estimate D2E/DX2                !
 ! A35   A(12,11,24)           109.7361         estimate D2E/DX2                !
 ! A36   A(23,11,24)           107.4826         estimate D2E/DX2                !
 ! A37   A(11,12,13)           111.5126         estimate D2E/DX2                !
 ! A38   A(11,12,25)           109.2219         estimate D2E/DX2                !
 ! A39   A(11,12,26)           109.5049         estimate D2E/DX2                !
 ! A40   A(13,12,25)           109.2273         estimate D2E/DX2                !
 ! A41   A(13,12,26)           109.5458         estimate D2E/DX2                !
 ! A42   A(25,12,26)           107.7486         estimate D2E/DX2                !
 ! A43   A(7,13,12)            105.735          estimate D2E/DX2                !
 ! A44   A(7,13,14)            110.8611         estimate D2E/DX2                !
 ! A45   A(7,13,15)            114.0555         estimate D2E/DX2                !
 ! A46   A(12,13,14)           107.775          estimate D2E/DX2                !
 ! A47   A(12,13,15)           108.3521         estimate D2E/DX2                !
 ! A48   A(14,13,15)           109.7762         estimate D2E/DX2                !
 ! A49   A(13,15,16)           119.4947         estimate D2E/DX2                !
 ! A50   A(4,16,15)            128.1589         estimate D2E/DX2                !
 ! A51   A(4,16,27)            113.5303         estimate D2E/DX2                !
 ! A52   A(15,16,27)           118.3013         estimate D2E/DX2                !
 ! D1    D(1,2,4,5)             97.5798         estimate D2E/DX2                !
 ! D2    D(1,2,4,16)           -79.9992         Frozen                          !
 ! D3    D(3,2,4,5)            -71.5804         estimate D2E/DX2                !
 ! D4    D(3,2,4,16)           110.8406         estimate D2E/DX2                !
 ! D5    D(2,4,5,6)            176.1407         estimate D2E/DX2                !
 ! D6    D(2,4,5,17)            -0.765          estimate D2E/DX2                !
 ! D7    D(16,4,5,6)            -6.7193         estimate D2E/DX2                !
 ! D8    D(16,4,5,17)          176.375          estimate D2E/DX2                !
 ! D9    D(2,4,16,15)         -159.1079         estimate D2E/DX2                !
 ! D10   D(2,4,16,27)           22.0421         estimate D2E/DX2                !
 ! D11   D(5,4,16,15)           23.7616         estimate D2E/DX2                !
 ! D12   D(5,4,16,27)         -155.0884         estimate D2E/DX2                !
 ! D13   D(4,5,6,7)             -3.516          estimate D2E/DX2                !
 ! D14   D(4,5,6,18)           155.7183         estimate D2E/DX2                !
 ! D15   D(17,5,6,7)           173.4317         estimate D2E/DX2                !
 ! D16   D(17,5,6,18)          -27.334          estimate D2E/DX2                !
 ! D17   D(5,6,7,8)           -145.407          estimate D2E/DX2                !
 ! D18   D(5,6,7,9)             98.2106         estimate D2E/DX2                !
 ! D19   D(5,6,7,13)           -30.2653         estimate D2E/DX2                !
 ! D20   D(18,6,7,8)            53.1372         estimate D2E/DX2                !
 ! D21   D(18,6,7,9)           -63.2451         estimate D2E/DX2                !
 ! D22   D(18,6,7,13)          168.2789         estimate D2E/DX2                !
 ! D23   D(6,7,9,10)           168.5015         estimate D2E/DX2                !
 ! D24   D(6,7,9,19)           -70.4983         estimate D2E/DX2                !
 ! D25   D(6,7,9,20)            48.4875         estimate D2E/DX2                !
 ! D26   D(8,7,9,10)            52.627          estimate D2E/DX2                !
 ! D27   D(8,7,9,19)           173.6271         estimate D2E/DX2                !
 ! D28   D(8,7,9,20)           -67.3871         estimate D2E/DX2                !
 ! D29   D(13,7,9,10)          -61.9417         estimate D2E/DX2                !
 ! D30   D(13,7,9,19)           59.0584         estimate D2E/DX2                !
 ! D31   D(13,7,9,20)          178.0442         estimate D2E/DX2                !
 ! D32   D(6,7,13,12)         -166.0314         estimate D2E/DX2                !
 ! D33   D(6,7,13,14)          -49.4938         estimate D2E/DX2                !
 ! D34   D(6,7,13,15)           75.022          Frozen                          !
 ! D35   D(8,7,13,12)          -51.2827         estimate D2E/DX2                !
 ! D36   D(8,7,13,14)           65.2549         estimate D2E/DX2                !
 ! D37   D(8,7,13,15)         -170.2293         estimate D2E/DX2                !
 ! D38   D(9,7,13,12)           63.4306         estimate D2E/DX2                !
 ! D39   D(9,7,13,14)          179.9682         estimate D2E/DX2                !
 ! D40   D(9,7,13,15)          -55.516          estimate D2E/DX2                !
 ! D41   D(7,9,10,11)           54.8122         Frozen                          !
 ! D42   D(7,9,10,21)          176.606          estimate D2E/DX2                !
 ! D43   D(7,9,10,22)          -65.1932         estimate D2E/DX2                !
 ! D44   D(19,9,10,11)         -66.2714         estimate D2E/DX2                !
 ! D45   D(19,9,10,21)          55.5224         estimate D2E/DX2                !
 ! D46   D(19,9,10,22)         173.7232         estimate D2E/DX2                !
 ! D47   D(20,9,10,11)         175.464          estimate D2E/DX2                !
 ! D48   D(20,9,10,21)         -62.7422         estimate D2E/DX2                !
 ! D49   D(20,9,10,22)          55.4586         estimate D2E/DX2                !
 ! D50   D(9,10,11,12)         -52.8225         Frozen                          !
 ! D51   D(9,10,11,23)          67.8368         estimate D2E/DX2                !
 ! D52   D(9,10,11,24)        -174.641          estimate D2E/DX2                !
 ! D53   D(21,10,11,12)       -174.7069         estimate D2E/DX2                !
 ! D54   D(21,10,11,23)        -54.0476         estimate D2E/DX2                !
 ! D55   D(21,10,11,24)         63.4746         estimate D2E/DX2                !
 ! D56   D(22,10,11,12)         67.3985         estimate D2E/DX2                !
 ! D57   D(22,10,11,23)       -171.9422         estimate D2E/DX2                !
 ! D58   D(22,10,11,24)        -54.42           estimate D2E/DX2                !
 ! D59   D(10,11,12,13)         56.7411         estimate D2E/DX2                !
 ! D60   D(10,11,12,25)        177.5586         estimate D2E/DX2                !
 ! D61   D(10,11,12,26)        -64.6666         estimate D2E/DX2                !
 ! D62   D(23,11,12,13)        -63.7645         estimate D2E/DX2                !
 ! D63   D(23,11,12,25)         57.0531         estimate D2E/DX2                !
 ! D64   D(23,11,12,26)        174.8279         estimate D2E/DX2                !
 ! D65   D(24,11,12,13)        178.6234         estimate D2E/DX2                !
 ! D66   D(24,11,12,25)        -60.5591         estimate D2E/DX2                !
 ! D67   D(24,11,12,26)         57.2157         estimate D2E/DX2                !
 ! D68   D(11,12,13,7)         -60.5542         estimate D2E/DX2                !
 ! D69   D(11,12,13,14)       -179.1637         estimate D2E/DX2                !
 ! D70   D(11,12,13,15)         62.1055         estimate D2E/DX2                !
 ! D71   D(25,12,13,7)         178.6314         estimate D2E/DX2                !
 ! D72   D(25,12,13,14)         60.0219         estimate D2E/DX2                !
 ! D73   D(25,12,13,15)        -58.7089         estimate D2E/DX2                !
 ! D74   D(26,12,13,7)          60.8298         estimate D2E/DX2                !
 ! D75   D(26,12,13,14)        -57.7798         estimate D2E/DX2                !
 ! D76   D(26,12,13,15)       -176.5106         estimate D2E/DX2                !
 ! D77   D(7,13,15,16)         -67.1601         Frozen                          !
 ! D78   D(12,13,15,16)        175.3899         estimate D2E/DX2                !
 ! D79   D(14,13,15,16)         57.9336         estimate D2E/DX2                !
 ! D80   D(13,15,16,4)          11.248          estimate D2E/DX2                !
 ! D81   D(13,15,16,27)       -169.9494         estimate D2E/DX2                !
 --------------------------------------------------------------------------------
 Trust Radius=3.00D-01 FncErr=1.00D-07 GrdErr=1.00D-07 EigMax=2.50D+02 EigMin=1.00D-04
 Number of steps in this run=     20 maximum allowed number of steps=    162.
 GradGradGradGradGradGradGradGradGradGradGradGradGradGradGradGradGradGrad

                          Input orientation:                          
 ---------------------------------------------------------------------
 Center     Atomic      Atomic             Coordinates (Angstroms)
 Number     Number       Type             X           Y           Z
 ---------------------------------------------------------------------
      1          8           0       -3.711590   -0.321240   -1.178230
      2          7           0       -3.186020   -0.286770   -0.069040
      3          8           0       -3.769610   -0.244690    1.011110
      4          6           0       -1.730320   -0.019840   -0.048340
      5          6           0       -1.383830    1.306300    0.195420
      6          7           0       -0.102690    1.771350    0.334040
      7          6           0        1.181340    1.002980    0.333370
      8          1           0        1.846950    1.539790    1.057910
      9          6           0        1.934930    0.995370   -1.020060
     10          6           0        3.353180    0.429680   -0.814530
     11          6           0        3.308120   -0.956640   -0.152600
     12          6           0        2.470650   -0.935280    1.144120
     13          6           0        1.026800   -0.426510    0.881360
     14          1           0        0.484790   -0.421760    1.856130
     15          7           0        0.371440   -1.355180   -0.046570
     16          6           0       -0.874400   -1.184380   -0.343540
     17          1           0       -2.195470    2.039600    0.337530
     18          1           0        0.127340    2.750260    0.147040
     19          1           0        1.383680    0.377550   -1.760640
     20          1           0        2.009570    2.027760   -1.422860
     21          1           0        3.880210    0.363310   -1.791480
     22          1           0        3.930310    1.120530   -0.160100
     23          1           0        2.861310   -1.684920   -0.866520
     24          1           0        4.340970   -1.300910    0.073120
     25          1           0        2.425560   -1.962480    1.567800
     26          1           0        2.964210   -0.281520    1.893400
     27          1           0       -1.391420   -1.979360   -0.902830
 ---------------------------------------------------------------------
                    Distance matrix (angstroms):
                    1          2          3          4          5
     1  O    0.000000
     2  N    1.227890   0.000000
     3  O    2.191446   1.228443   0.000000
     4  C    2.300636   1.480116   2.309046   0.000000
     5  C    3.155038   2.419855   2.960214   1.392164   0.000000
     6  N    4.437347   3.728975   4.239003   2.450256   1.369966
     7  C    5.289542   4.571567   5.150526   3.109602   2.586722
     8  H    6.273844   5.471483   5.893412   4.056242   3.352066
     9  C    5.800144   5.363996   6.181034   3.925423   3.547991
    10  C    7.113869   6.620437   7.383893   5.160532   4.922167
    11  C    7.122638   6.529132   7.208006   5.125850   5.220767
    12  C    6.632529   5.821532   6.279765   4.461854   4.558698
    13  C    5.167720   4.320954   4.801608   2.937930   3.047012
    14  H    5.179484   4.147210   4.341121   2.948772   3.039061
    15  N    4.361287   3.714502   4.415900   2.490087   3.197344
    16  C    3.080806   2.494923   3.331717   1.475092   2.598747
    17  H    3.188999   2.560954   2.854752   2.146288   1.103034
    18  H    5.091938   4.499844   4.990247   3.341037   2.090693
    19  H    5.175837   4.917824   5.884401   3.575876   3.513952
    20  H    6.189452   5.846711   6.669870   4.479816   3.828119
    21  H    7.647229   7.302124   8.169695   5.887562   5.705008
    22  H    7.843081   7.254718   7.907233   5.775436   5.329258
    23  H    6.720104   6.257875   7.040515   4.952270   5.300597
    24  H    8.207884   7.596333   8.232675   6.206163   6.291728
    25  H    6.920907   6.080878   6.452971   4.863856   5.203826
    26  H    7.348659   6.455736   6.791474   5.086988   4.930493
    27  H    2.865030   2.603969   3.511130   2.164423   3.464357
                    6          7          8          9         10
     6  N    0.000000
     7  C    1.496371   0.000000
     8  H    2.092535   1.120785   0.000000
     9  C    2.566637   1.549106   2.149905   0.000000
    10  C    3.881022   2.522546   2.647094   1.540675   0.000000
    11  C    4.394584   2.932485   3.135684   2.539386   1.536901
    12  C    3.821538   2.465053   2.553900   2.949251   2.545247
    13  C    2.530987   1.538706   2.137791   2.542015   3.003523
    14  H    2.733427   2.198605   2.517998   3.519039   4.010615
    15  N    3.185099   2.522144   3.431888   2.986180   3.558969
    16  C    3.129056   3.077144   4.097671   3.619575   4.549665
    17  H    2.109905   3.532343   4.136414   4.471428   5.891231
    18  H    1.022814   2.049054   2.291720   2.776534   4.088490
    19  H    2.922269   2.194762   3.083771   1.110872   2.185583
    20  H    2.759363   2.195560   2.533531   1.110697   2.174675
    21  H    4.729049   3.494004   3.692868   2.186024   1.112024
    22  H    4.114952   2.795383   2.449432   2.176405   1.112938
    23  H    4.708762   3.389224   3.889873   2.840019   2.171675
    24  H    5.408602   3.919043   3.906344   3.500996   2.181420
    25  H    4.675008   3.444685   3.586178   3.960633   3.501200
    26  H    4.006464   2.694858   2.294228   3.343369   2.826657
    27  H    4.154335   4.128152   5.168748   4.464008   5.321889
                   11         12         13         14         15
    11  C    0.000000
    12  C    1.543792   0.000000
    13  C    2.560182   1.553252   0.000000
    14  H    3.506036   2.171244   1.115336   0.000000
    15  N    2.965496   2.449641   1.467303   2.122354   0.000000
    16  C    4.193065   3.669406   2.385227   2.695837   1.292084
    17  H    6.285474   5.592242   4.093956   3.943125   4.273300
    18  H    4.893695   4.479785   3.382325   3.620838   4.117245
    19  H    2.840656   3.367886   2.784608   3.811552   2.639132
    20  H    3.493771   3.947352   3.506951   4.367709   4.002740
    21  H    2.180707   3.505844   3.988714   5.044826   4.278947
    22  H    2.168366   2.838653   3.450847   4.279655   4.336771
    23  H    1.113424   2.181112   2.829153   3.828347   2.642063
    24  H    1.111868   2.186052   3.521583   4.338451   3.971705
    25  H    2.179542   1.112060   2.187906   2.494702   2.682240
    26  H    2.181783   1.110146   2.190617   2.483663   3.411552
    27  H    4.867697   4.493962   3.382671   3.682138   2.056808
                   16         17         18         19         20
    16  C    0.000000
    17  H    3.550089   0.000000
    18  H    4.089687   2.436549   0.000000
    19  H    3.089777   4.469345   3.293537   0.000000
    20  H    4.449726   4.558670   2.555266   1.796949   0.000000
    21  H    5.205592   6.652557   4.851744   2.496761   2.530922
    22  H    5.332120   6.214299   4.148848   3.098237   2.471208
    23  H    3.805204   6.394749   5.307798   2.690097   3.849541
    24  H    5.233285   7.345336   5.845692   3.863349   4.330523
    25  H    3.892094   6.235714   5.432338   4.199972   5.003909
    26  H    4.533650   5.867762   4.504364   4.035400   4.152312
    27  H    1.100958   4.282176   5.077220   3.740594   5.281494
                   21         22         23         24         25
    21  H    0.000000
    22  H    1.799248   0.000000
    23  H    2.467581   3.084208   0.000000
    24  H    2.541390   2.467064   1.794375   0.000000
    25  H    4.337058   3.841206   2.488540   2.518043   0.000000
    26  H    3.851390   2.667575   3.097947   2.499609   1.794933
    27  H    5.836770   6.203368   4.263065   5.854320   4.546827
                   26         27
    26  H    0.000000
    27  H    5.447300   0.000000
 Symmetry turned off by external request.
 Stoichiometry    C9H13N3O2
 Framework group  C1[X(C9H13N3O2)]
 Deg. of freedom    75
 Full point group                 C1      NOp   1
 Rotational constants (GHZ):           1.6676626           0.3985498           0.3732150
 Standard basis: 6-31G(d) (6D, 7F)
   236 basis functions,   444 primitive gaussians,   236 cartesian basis functions
    52 alpha electrons       52 beta electrons
       nuclear repulsion energy       921.0657294347 Hartrees.
 NAtoms=   27 NActive=   27 NUniq=   27 SFac= 1.00D+00 NAtFMM=   60 NAOKFM=F Big=F
 Integral buffers will be    131072 words long.
 Raffenetti 1 integral format.
 Two-electron integral symmetry is turned off.
 One-electron integrals computed using PRISM.
 NBasis=   236 RedAO= T EigKep=  1.70D-03  NBF=   236
 NBsUse=   236 1.00D-06 EigRej= -1.00D+00 NBFU=   236
 ExpMin= 1.61D-01 ExpMax= 5.48D+03 ExpMxC= 8.25D+02 IAcc=3 IRadAn=         5 AccDes= 0.00D+00
 Harris functional with IExCor=  205 and IRadAn=       5 diagonalized for initial guess.
 HarFok:  IExCor=  205 AccDes= 0.00D+00 IRadAn=         5 IDoV= 1 UseB2=F ITyADJ=14
 ICtDFT=  3500011 ScaDFX=  1.000000  1.000000  1.000000  1.000000
 FoFCou: FMM=F IPFlag=           0 FMFlag=      100000 FMFlg1=           0
         NFxFlg=           0 DoJE=T BraDBF=F KetDBF=T FulRan=T
         wScrn=  0.000000 ICntrl=       500 IOpCl=  0 I1Cent=   200000004 NGrid=           0
         NMat0=    1 NMatS0=      1 NMatT0=    0 NMatD0=    1 NMtDS0=    0 NMtDT0=    0
 Symmetry not used in FoFCou.
 Keep R1 ints in memory in canonical form, NReq=397720213.
 Requested convergence on RMS density matrix=1.00D-08 within 128 cycles.
 Requested convergence on MAX density matrix=1.00D-06.
 Requested convergence on             energy=1.00D-06.
 No special actions if energy rises.
 SCF Done:  E(RHF) =  -661.266729329     A.U. after   17 cycles
            NFock= 17  Conv=0.51D-08     -V/T= 2.0034
 ExpMin= 1.61D-01 ExpMax= 5.48D+03 ExpMxC= 8.25D+02 IAcc=3 IRadAn=         5 AccDes= 0.00D+00
 HarFok:  IExCor=  205 AccDes= 0.00D+00 IRadAn=         5 IDoV=-2 UseB2=F ITyADJ=14
 ICtDFT= 12500011 ScaDFX=  1.000000  1.000000  1.000000  1.000000
 Range of M.O.s used for correlation:    15   236
 NBasis=   236 NAE=    52 NBE=    52 NFC=    14 NFV=     0
 NROrb=    222 NOA=    38 NOB=    38 NVA=   184 NVB=   184
 Fully direct method using O(ONN) memory.
 JobTyp=1 Pass  1:  I=  15 to  52 NPSUse=  4 ParTrn=T ParDer=T DoDerP=T.
 Spin components of T(2) and E(2):
     alpha-alpha T2 =       0.9182089522D-01 E2=     -0.2718817818D+00
     alpha-beta  T2 =       0.5021316041D+00 E2=     -0.1496674376D+01
     beta-beta   T2 =       0.9182089522D-01 E2=     -0.2718817818D+00
 ANorm=    0.1298373365D+01
 E2 =    -0.2040437940D+01 EUMP2 =    -0.66330716726906D+03
          IDoAtm=111111111111111111111111111
          Differentiating once with respect to electric field.
                with respect to dipole field.
          Differentiating once with respect to nuclear coordinates.
 Keep R1 ints in memory in canonical form, NReq=397723379.
          There are     1 degrees of freedom in the 1st order CPHF.  IDoFFX=0 NUNeed=     1.
 LinEq1:  Iter=  0 NonCon=     1 RMS=4.51D-03 Max=1.22D-01 NDo=     1
 AX will form     1 AO Fock derivatives at one time.
 LinEq1:  Iter=  1 NonCon=     1 RMS=1.50D-03 Max=3.69D-02 NDo=     1
 LinEq1:  Iter=  2 NonCon=     1 RMS=6.16D-04 Max=1.95D-02 NDo=     1
 LinEq1:  Iter=  3 NonCon=     1 RMS=2.82D-04 Max=5.95D-03 NDo=     1
 LinEq1:  Iter=  4 NonCon=     1 RMS=8.61D-05 Max=1.42D-03 NDo=     1
 LinEq1:  Iter=  5 NonCon=     1 RMS=3.46D-05 Max=9.32D-04 NDo=     1
 LinEq1:  Iter=  6 NonCon=     1 RMS=1.48D-05 Max=5.26D-04 NDo=     1
 LinEq1:  Iter=  7 NonCon=     1 RMS=6.11D-06 Max=1.70D-04 NDo=     1
 LinEq1:  Iter=  8 NonCon=     1 RMS=2.51D-06 Max=6.53D-05 NDo=     1
 LinEq1:  Iter=  9 NonCon=     1 RMS=1.03D-06 Max=3.04D-05 NDo=     1
 LinEq1:  Iter= 10 NonCon=     1 RMS=5.13D-07 Max=1.89D-05 NDo=     1
 LinEq1:  Iter= 11 NonCon=     1 RMS=1.95D-07 Max=4.54D-06 NDo=     1
 LinEq1:  Iter= 12 NonCon=     1 RMS=7.79D-08 Max=2.68D-06 NDo=     1
 LinEq1:  Iter= 13 NonCon=     1 RMS=2.39D-08 Max=4.07D-07 NDo=     1
 LinEq1:  Iter= 14 NonCon=     1 RMS=8.32D-09 Max=2.04D-07 NDo=     1
 LinEq1:  Iter= 15 NonCon=     1 RMS=3.07D-09 Max=4.75D-08 NDo=     1
 LinEq1:  Iter= 16 NonCon=     1 RMS=1.02D-09 Max=1.76D-08 NDo=     1
 LinEq1:  Iter= 17 NonCon=     1 RMS=3.00D-10 Max=7.52D-09 NDo=     1
 LinEq1:  Iter= 18 NonCon=     1 RMS=1.15D-10 Max=3.46D-09 NDo=     1
 LinEq1:  Iter= 19 NonCon=     0 RMS=3.78D-11 Max=9.55D-10 NDo=     1
 Linear equations converged to 1.000D-10 1.000D-09 after    19 iterations.
 End of Minotr F.D. properties file   721 does not exist.
 End of Minotr F.D. properties file   722 does not exist.
 End of Minotr F.D. properties file   788 does not exist.

 **********************************************************************

            Population analysis using the SCF Density.

 **********************************************************************

 Alpha  occ. eigenvalues --  -20.60745 -20.60625 -15.85052 -15.62281 -15.56779
 Alpha  occ. eigenvalues --  -11.35060 -11.30807 -11.29737 -11.29196 -11.27572
 Alpha  occ. eigenvalues --  -11.24292 -11.23654 -11.23241 -11.22699  -1.59527
 Alpha  occ. eigenvalues --   -1.39179  -1.27961  -1.22620  -1.13524  -1.08974
 Alpha  occ. eigenvalues --   -1.01620  -1.00614  -0.93841  -0.88965  -0.84639
 Alpha  occ. eigenvalues --   -0.81809  -0.78556  -0.77170  -0.73976  -0.71738
 Alpha  occ. eigenvalues --   -0.71209  -0.68965  -0.66943  -0.64371  -0.62942
 Alpha  occ. eigenvalues --   -0.61537  -0.60331  -0.57260  -0.56204  -0.54629
 Alpha  occ. eigenvalues --   -0.53493  -0.51292  -0.50268  -0.48843  -0.47913
 Alpha  occ. eigenvalues --   -0.47685  -0.46143  -0.45425  -0.44252  -0.41969
 Alpha  occ. eigenvalues --   -0.39898  -0.32665
 Alpha virt. eigenvalues --    0.08514   0.10542   0.18483   0.20941   0.22786
 Alpha virt. eigenvalues --    0.24115   0.25129   0.27760   0.28630   0.28883
 Alpha virt. eigenvalues --    0.29175   0.30964   0.31957   0.32459   0.33477
 Alpha virt. eigenvalues --    0.33996   0.34997   0.36738   0.37820   0.38384
 Alpha virt. eigenvalues --    0.40660   0.42089   0.44535   0.45158   0.45692
 Alpha virt. eigenvalues --    0.46725   0.51039   0.53666   0.57179   0.57951
 Alpha virt. eigenvalues --    0.61007   0.68794   0.69482   0.72192   0.73483
 Alpha virt. eigenvalues --    0.74495   0.75910   0.76403   0.77994   0.78754
 Alpha virt. eigenvalues --    0.79871   0.83200   0.85002   0.86019   0.88276
 Alpha virt. eigenvalues --    0.88757   0.89438   0.91074   0.92541   0.92949
 Alpha virt. eigenvalues --    0.94712   0.97003   0.99015   1.00665   1.01435
 Alpha virt. eigenvalues --    1.03860   1.05224   1.06304   1.06844   1.07890
 Alpha virt. eigenvalues --    1.10479   1.10602   1.10826   1.11268   1.12602
 Alpha virt. eigenvalues --    1.12821   1.13530   1.14200   1.15743   1.16011
 Alpha virt. eigenvalues --    1.16941   1.17300   1.18415   1.21086   1.22223
 Alpha virt. eigenvalues --    1.23241   1.23485   1.25547   1.26026   1.26961
 Alpha virt. eigenvalues --    1.28530   1.30640   1.33766   1.34465   1.36410
 Alpha virt. eigenvalues --    1.39815   1.42357   1.45205   1.46570   1.51434
 Alpha virt. eigenvalues --    1.52999   1.55233   1.60166   1.64436   1.67534
 Alpha virt. eigenvalues --    1.69211   1.71203   1.72922   1.73541   1.76837
 Alpha virt. eigenvalues --    1.78107   1.81268   1.86075   1.89629   1.92710
 Alpha virt. eigenvalues --    1.93151   1.98245   1.98524   1.99882   2.01881
 Alpha virt. eigenvalues --    2.03597   2.04867   2.07119   2.09614   2.10743
 Alpha virt. eigenvalues --    2.11820   2.13333   2.17324   2.19387   2.20969
 Alpha virt. eigenvalues --    2.22676   2.23764   2.25265   2.26251   2.29845
 Alpha virt. eigenvalues --    2.30342   2.31442   2.32811   2.34119   2.37072
 Alpha virt. eigenvalues --    2.37219   2.39131   2.41577   2.44106   2.45257
 Alpha virt. eigenvalues --    2.47580   2.49677   2.50839   2.56058   2.57475
 Alpha virt. eigenvalues --    2.60916   2.63517   2.66106   2.68037   2.69365
 Alpha virt. eigenvalues --    2.69827   2.71113   2.73163   2.76619   2.82891
 Alpha virt. eigenvalues --    2.85653   2.86500   2.89744   2.94029   2.95337
 Alpha virt. eigenvalues --    2.97366   3.00206   3.04529   3.05931   3.07383
 Alpha virt. eigenvalues --    3.11631   3.13474   3.18140   3.20814   3.23978
 Alpha virt. eigenvalues --    3.28257   3.32457   3.37370   3.40842   3.59080
 Alpha virt. eigenvalues --    4.14945   4.18233   4.28292   4.34361   4.45068
 Alpha virt. eigenvalues --    4.53827   4.60047   4.60931   4.71234   4.78282
 Alpha virt. eigenvalues --    4.99192   4.99554   5.04211   5.10036
          Condensed to atoms (all electrons):
               1          2          3          4          5          6
     1  O    8.313226   0.290822  -0.080328  -0.089626   0.000464   0.000007
     2  N    0.290822   5.784308   0.299828   0.238338  -0.048314   0.001290
     3  O   -0.080328   0.299828   8.300179  -0.082885   0.001500   0.000044
     4  C   -0.089626   0.238338  -0.082885   5.222113   0.605336  -0.052824
     5  C    0.000464  -0.048314   0.001500   0.605336   4.608643   0.327779
     6  N    0.000007   0.001290   0.000044  -0.052824   0.327779   7.165170
     7  C   -0.000006  -0.000114   0.000011   0.002930  -0.031262   0.210591
     8  H    0.000000   0.000002  -0.000000  -0.000153   0.002514  -0.049158
     9  C    0.000000  -0.000006   0.000000   0.000473   0.001816  -0.058349
    10  C    0.000000   0.000000  -0.000000  -0.000018  -0.000070   0.003420
    11  C   -0.000000  -0.000000   0.000000  -0.000022   0.000016  -0.000156
    12  C    0.000000   0.000002  -0.000000  -0.000046  -0.000135   0.003540
    13  C    0.000005  -0.000045  -0.000023  -0.009880   0.001167  -0.045898
    14  H    0.000001  -0.000080  -0.000000   0.002710   0.004902  -0.005524
    15  N    0.000077   0.001957  -0.000035  -0.067949  -0.006229   0.003481
    16  C    0.003819  -0.031687   0.002437   0.323186  -0.029701  -0.002725
    17  H    0.000275  -0.002026   0.001803  -0.037375   0.388161  -0.032113
    18  H    0.000004  -0.000058  -0.000000   0.001528  -0.022650   0.327432
    19  H    0.000001   0.000000  -0.000000  -0.000824   0.000672   0.000714
    20  H    0.000000  -0.000000  -0.000000  -0.000033   0.000040  -0.001410
    21  H   -0.000000  -0.000000   0.000000   0.000000   0.000001  -0.000060
    22  H    0.000000   0.000000  -0.000000  -0.000000  -0.000002  -0.000097
    23  H    0.000000  -0.000000   0.000000   0.000025   0.000000  -0.000024
    24  H    0.000000   0.000000  -0.000000   0.000000  -0.000000   0.000004
    25  H    0.000000  -0.000000   0.000000   0.000019  -0.000000  -0.000070
    26  H    0.000000  -0.000000   0.000000   0.000004   0.000000  -0.000067
    27  H    0.002600   0.001508  -0.000005  -0.075702   0.001769   0.000041
               7          8          9         10         11         12
     1  O   -0.000006   0.000000   0.000000   0.000000  -0.000000   0.000000
     2  N   -0.000114   0.000002  -0.000006   0.000000  -0.000000   0.000002
     3  O    0.000011  -0.000000   0.000000  -0.000000   0.000000  -0.000000
     4  C    0.002930  -0.000153   0.000473  -0.000018  -0.000022  -0.000046
     5  C   -0.031262   0.002514   0.001816  -0.000070   0.000016  -0.000135
     6  N    0.210591  -0.049158  -0.058349   0.003420  -0.000156   0.003540
     7  C    5.000798   0.415723   0.342071  -0.049563  -0.007581  -0.064725
     8  H    0.415723   0.548880  -0.060901   0.001268  -0.000268  -0.002958
     9  C    0.342071  -0.060901   5.181375   0.317587  -0.053095  -0.005979
    10  C   -0.049563   0.001268   0.317587   5.127861   0.332788  -0.060170
    11  C   -0.007581  -0.000268  -0.053095   0.332788   5.124435   0.330404
    12  C   -0.064725  -0.002958  -0.005979  -0.060170   0.330404   5.138452
    13  C    0.329968  -0.039298  -0.051896  -0.001489  -0.048034   0.367090
    14  H   -0.039819  -0.000943   0.003802  -0.000383   0.003937  -0.040497
    15  N   -0.060707   0.004027  -0.012570   0.001556  -0.007831  -0.073926
    16  C   -0.001033  -0.000081  -0.000359  -0.000059   0.000028   0.002491
    17  H    0.001603  -0.000031  -0.000073   0.000001   0.000000   0.000001
    18  H   -0.029568  -0.002700   0.000608  -0.000111   0.000011  -0.000135
    19  H   -0.035119   0.004093   0.386470  -0.033027  -0.002262   0.000640
    20  H   -0.041430  -0.001768   0.397187  -0.037431   0.004138  -0.000358
    21  H    0.004050  -0.000083  -0.035789   0.399939  -0.035949   0.004225
    22  H   -0.004252   0.003545  -0.045564   0.395821  -0.045624  -0.001274
    23  H    0.000426   0.000034  -0.001983  -0.040172   0.396666  -0.036804
    24  H   -0.000150  -0.000098   0.004380  -0.038494   0.400219  -0.037914
    25  H    0.004996  -0.000001  -0.000380   0.004108  -0.034025   0.395320
    26  H   -0.004449   0.001540   0.001046  -0.002401  -0.042215   0.394665
    27  H   -0.000397   0.000008  -0.000054   0.000004   0.000005  -0.000023
              13         14         15         16         17         18
     1  O    0.000005   0.000001   0.000077   0.003819   0.000275   0.000004
     2  N   -0.000045  -0.000080   0.001957  -0.031687  -0.002026  -0.000058
     3  O   -0.000023  -0.000000  -0.000035   0.002437   0.001803  -0.000000
     4  C   -0.009880   0.002710  -0.067949   0.323186  -0.037375   0.001528
     5  C    0.001167   0.004902  -0.006229  -0.029701   0.388161  -0.022650
     6  N   -0.045898  -0.005524   0.003481  -0.002725  -0.032113   0.327432
     7  C    0.329968  -0.039819  -0.060707  -0.001033   0.001603  -0.029568
     8  H   -0.039298  -0.000943   0.004027  -0.000081  -0.000031  -0.002700
     9  C   -0.051896   0.003802  -0.012570  -0.000359  -0.000073   0.000608
    10  C   -0.001489  -0.000383   0.001556  -0.000059   0.000001  -0.000111
    11  C   -0.048034   0.003937  -0.007831   0.000028   0.000000   0.000011
    12  C    0.367090  -0.040497  -0.073926   0.002491   0.000001  -0.000135
    13  C    5.020296   0.403532   0.248149  -0.071233  -0.000045   0.003782
    14  H    0.403532   0.512854  -0.035252  -0.005594   0.000058   0.000015
    15  N    0.248149  -0.035252   6.922595   0.601561  -0.000050  -0.000117
    16  C   -0.071233  -0.005594   0.601561   4.679966   0.001409  -0.000172
    17  H   -0.000045   0.000058  -0.000050   0.001409   0.417768  -0.002077
    18  H    0.003782   0.000015  -0.000117  -0.000172  -0.002077   0.331052
    19  H   -0.006107   0.000060   0.006729   0.002073   0.000011  -0.000107
    20  H    0.003883  -0.000050   0.000080  -0.000035  -0.000002   0.002763
    21  H   -0.000389   0.000009  -0.000035   0.000003  -0.000000  -0.000000
    22  H    0.000330  -0.000042   0.000007  -0.000001   0.000000   0.000003
    23  H   -0.005845   0.000007   0.006750   0.000072   0.000000   0.000000
    24  H    0.004147  -0.000059   0.000037   0.000005   0.000000  -0.000000
    25  H   -0.034685  -0.002651   0.000893  -0.000048  -0.000000   0.000002
    26  H   -0.044493  -0.000909   0.004146  -0.000055   0.000000  -0.000001
    27  H    0.004926  -0.000168  -0.035531   0.403263  -0.000070   0.000002
              19         20         21         22         23         24
     1  O    0.000001   0.000000  -0.000000   0.000000   0.000000   0.000000
     2  N    0.000000  -0.000000  -0.000000   0.000000  -0.000000   0.000000
     3  O   -0.000000  -0.000000   0.000000  -0.000000   0.000000  -0.000000
     4  C   -0.000824  -0.000033   0.000000  -0.000000   0.000025   0.000000
     5  C    0.000672   0.000040   0.000001  -0.000002   0.000000  -0.000000
     6  N    0.000714  -0.001410  -0.000060  -0.000097  -0.000024   0.000004
     7  C   -0.035119  -0.041430   0.004050  -0.004252   0.000426  -0.000150
     8  H    0.004093  -0.001768  -0.000083   0.003545   0.000034  -0.000098
     9  C    0.386470   0.397187  -0.035789  -0.045564  -0.001983   0.004380
    10  C   -0.033027  -0.037431   0.399939   0.395821  -0.040172  -0.038494
    11  C   -0.002262   0.004138  -0.035949  -0.045624   0.396666   0.400219
    12  C    0.000640  -0.000358   0.004225  -0.001274  -0.036804  -0.037914
    13  C   -0.006107   0.003883  -0.000389   0.000330  -0.005845   0.004147
    14  H    0.000060  -0.000050   0.000009  -0.000042   0.000007  -0.000059
    15  N    0.006729   0.000080  -0.000035   0.000007   0.006750   0.000037
    16  C    0.002073  -0.000035   0.000003  -0.000001   0.000072   0.000005
    17  H    0.000011  -0.000002  -0.000000   0.000000   0.000000   0.000000
    18  H   -0.000107   0.002763  -0.000000   0.000003   0.000000  -0.000000
    19  H    0.507870  -0.023818  -0.002604   0.003778   0.001663  -0.000071
    20  H   -0.023818   0.549545  -0.002647  -0.002945  -0.000050  -0.000090
    21  H   -0.002604  -0.002647   0.527554  -0.024812  -0.002834  -0.002079
    22  H    0.003778  -0.002945  -0.024812   0.569534   0.004075  -0.003588
    23  H    0.001663  -0.000050  -0.002834   0.004075   0.511294  -0.025095
    24  H   -0.000071  -0.000090  -0.002079  -0.003588  -0.025095   0.542153
    25  H   -0.000027   0.000011  -0.000087  -0.000082  -0.002082  -0.002401
    26  H    0.000024  -0.000035  -0.000073   0.002456   0.003822  -0.002750
    27  H    0.000083   0.000000  -0.000000   0.000000  -0.000020  -0.000000
              25         26         27
     1  O    0.000000   0.000000   0.002600
     2  N   -0.000000  -0.000000   0.001508
     3  O    0.000000   0.000000  -0.000005
     4  C    0.000019   0.000004  -0.075702
     5  C   -0.000000   0.000000   0.001769
     6  N   -0.000070  -0.000067   0.000041
     7  C    0.004996  -0.004449  -0.000397
     8  H   -0.000001   0.001540   0.000008
     9  C   -0.000380   0.001046  -0.000054
    10  C    0.004108  -0.002401   0.000004
    11  C   -0.034025  -0.042215   0.000005
    12  C    0.395320   0.394665  -0.000023
    13  C   -0.034685  -0.044493   0.004926
    14  H   -0.002651  -0.000909  -0.000168
    15  N    0.000893   0.004146  -0.035531
    16  C   -0.000048  -0.000055   0.403263
    17  H   -0.000000   0.000000  -0.000070
    18  H    0.000002  -0.000001   0.000002
    19  H   -0.000027   0.000024   0.000083
    20  H    0.000011  -0.000035   0.000000
    21  H   -0.000087  -0.000073  -0.000000
    22  H   -0.000082   0.002456   0.000000
    23  H   -0.002082   0.003822  -0.000020
    24  H   -0.002401  -0.002750  -0.000000
    25  H    0.512173  -0.023210  -0.000011
    26  H   -0.023210   0.560403   0.000001
    27  H   -0.000011   0.000001   0.469698
 Mulliken charges:
               1
     1  O   -0.441342
     2  N    0.464277
     3  O   -0.442525
     4  C    0.020676
     5  C    0.193582
     6  N   -0.795038
     7  C    0.057006
     8  H    0.176805
     9  C   -0.309818
    10  C   -0.320967
    11  C   -0.315585
    12  C   -0.311882
    13  C   -0.027912
    14  H    0.200086
    15  N   -0.501812
    16  C    0.122469
    17  H    0.262770
    18  H    0.390493
    19  H    0.189086
    20  H    0.154455
    21  H    0.171661
    22  H    0.148736
    23  H    0.190073
    24  H    0.161845
    25  H    0.182237
    26  H    0.152551
    27  H    0.228073
 Sum of Mulliken charges =  -0.00000
 Mulliken charges with hydrogens summed into heavy atoms:
               1
     1  O   -0.441342
     2  N    0.464277
     3  O   -0.442525
     4  C    0.020676
     5  C    0.456353
     6  N   -0.404545
     7  C    0.233811
     9  C    0.033723
    10  C   -0.000570
    11  C    0.036333
    12  C    0.022905
    13  C    0.172174
    15  N   -0.501812
    16  C    0.350543
 Electronic spatial extent (au):  <R**2>=           3065.7098
 Charge=             -0.0000 electrons
 Dipole moment (field-independent basis, Debye):
    X=              4.5519    Y=              3.9152    Z=              0.4090  Tot=              6.0180
 Quadrupole moment (field-independent basis, Debye-Ang):
   XX=           -101.4600   YY=            -75.7816   ZZ=            -87.5110
   XY=             -1.0725   XZ=              0.5121   YZ=              0.1246
 Traceless Quadrupole moment (field-independent basis, Debye-Ang):
   XX=            -13.2092   YY=             12.4693   ZZ=              0.7399
   XY=             -1.0725   XZ=              0.5121   YZ=              0.1246
 Octapole moment (field-independent basis, Debye-Ang**2):
  XXX=             76.5620  YYY=             28.8217  ZZZ=             -2.9163  XYY=            -21.5589
  XXY=             12.7438  XXZ=              1.9035  XZZ=              9.4324  YZZ=             -2.0605
  YYZ=             -1.4278  XYZ=             -1.9200
 Hexadecapole moment (field-independent basis, Debye-Ang**3):
 XXXX=          -3388.5957 YYYY=           -538.5036 ZZZZ=           -385.6117 XXXY=            -49.3435
 XXXZ=              2.9931 YYYX=              9.2370 YYYZ=             21.3922 ZZZX=              1.7180
 ZZZY=             19.1188 XXYY=           -564.8451 XXZZ=           -610.8864 YYZZ=           -166.4645
 XXYZ=             10.8869 YYXZ=              7.9715 ZZXY=             -0.8648
 N-N= 9.210657294347D+02 E-N=-3.388273099833D+03  KE= 6.590219599430D+02
 Calling FoFJK, ICntrl=  10002127 FMM=F ISym2X=0 I1Cent= 0 IOpClX= 0 NMat=1 NMatS=1 NMatT=0.
 -------------------------------------------------------------------
 Center     Atomic                   Forces (Hartrees/Bohr)
 Number     Number              X              Y              Z
 -------------------------------------------------------------------
      1        8          -0.014096893   -0.015216366   -0.021852351
      2        7           0.032697536    0.033880823   -0.000581918
      3        8          -0.014485383   -0.008045935    0.019844849
      4        6           0.011694498    0.003374002    0.007718062
      5        6           0.005388151   -0.023135850   -0.001474952
      6        7           0.020180147   -0.002886420   -0.004126413
      7        6          -0.006697186    0.006477518    0.002414451
      8        1          -0.010159796   -0.002114252   -0.007464958
      9        6          -0.003688698   -0.000331845   -0.001837397
     10        6           0.002769512   -0.000821876    0.000747949
     11        6          -0.000708343   -0.004588743   -0.002023459
     12        6           0.000754424   -0.009080507   -0.002773957
     13        6           0.008328744   -0.000550152    0.002196543
     14        1           0.000552770    0.003469551   -0.010621620
     15        7           0.002119276   -0.004635970    0.005533743
     16        6          -0.013326879    0.017144399    0.000950517
     17        1           0.009379914   -0.004364919   -0.002507757
     18        1          -0.016677955   -0.002640174    0.003565690
     19        1           0.003099730    0.006223625    0.007234636
     20        1          -0.003234111   -0.007351564    0.003064158
     21        1          -0.004201640    0.002801240    0.009528477
     22        1          -0.004012757   -0.004382248   -0.007129363
     23        1           0.003926100    0.006552557    0.008940738
     24        1          -0.009391244    0.002368655   -0.002198770
     25        1          -0.000920879    0.010444277   -0.002967745
     26        1          -0.004797551   -0.005041773   -0.004151493
     27        1           0.005508512    0.002451947   -0.000027661
 -------------------------------------------------------------------
 Cartesian Forces:  Max     0.033880823 RMS     0.009540893

 GradGradGradGradGradGradGradGradGradGradGradGradGradGradGradGradGradGrad
 Berny optimization.
 FormGI is forming the generalized inverse of G from B-inverse, IUseBI=4.
 Internal  Forces:  Max     0.029337233 RMS     0.006422832
 Search for a local minimum.
 Step number   1 out of a maximum of   20
 All quantities printed in internal units (Hartrees-Bohrs-Radians)
 Mixed Optimization -- RFO/linear search
 Second derivative matrix not updated -- first step.
 ITU=  0
     Eigenvalues ---    0.00769   0.00774   0.01098   0.01181   0.01343
     Eigenvalues ---    0.01512   0.01542   0.01667   0.02001   0.02075
     Eigenvalues ---    0.02146   0.02670   0.03654   0.04507   0.04697
     Eigenvalues ---    0.04837   0.05070   0.05138   0.05300   0.05868
     Eigenvalues ---    0.06271   0.07214   0.07700   0.07717   0.07860
     Eigenvalues ---    0.07997   0.08041   0.08050   0.10460   0.11738
     Eigenvalues ---    0.12271   0.13420   0.15191   0.15658   0.15988
     Eigenvalues ---    0.15999   0.20100   0.22022   0.23270   0.24978
     Eigenvalues ---    0.25000   0.25000   0.25313   0.26128   0.26656
     Eigenvalues ---    0.27989   0.28082   0.28420   0.31484   0.31775
     Eigenvalues ---    0.32042   0.32240   0.32291   0.32383   0.32387
     Eigenvalues ---    0.32403   0.32508   0.32526   0.32585   0.33349
     Eigenvalues ---    0.33576   0.34224   0.34556   0.35246   0.43892
     Eigenvalues ---    0.45407   0.49491   0.67273   0.91738   0.91971
     Eigenvalues --- 1000.000001000.000001000.000001000.000001000.00000
     Eigenvalues --- 1000.000001000.000001000.000001000.000001000.00000
     Eigenvalues --- 1000.000001000.000001000.000001000.000001000.00000
     Eigenvalues --- 1000.000001000.000001000.000001000.000001000.00000
     Eigenvalues --- 1000.000001000.000001000.000001000.000001000.00000
     Eigenvalues --- 1000.000001000.000001000.000001000.000001000.00000
     Eigenvalues --- 1000.000001000.000001000.000001000.000001000.00000
     Eigenvalues --- 1000.000001000.000001000.000001000.000001000.00000
     Eigenvalues --- 1000.000001000.000001000.000001000.000001000.00000
     Eigenvalues --- 1000.000001000.000001000.000001000.000001000.00000
     Eigenvalues --- 1000.000001000.000001000.000001000.000001000.00000
     Eigenvalues --- 1000.000001000.000001000.000001000.000001000.00000
     Eigenvalues --- 1000.000001000.000001000.000001000.000001000.00000
     Eigenvalues --- 1000.000001000.000001000.000001000.000001000.00000
     Eigenvalues --- 1000.000001000.000001000.000001000.000001000.00000
     Eigenvalues --- 1000.000001000.000001000.000001000.000001000.00000
     Eigenvalues --- 1000.000001000.000001000.000001000.000001000.00000
     Eigenvalues --- 1000.000001000.000001000.000001000.000001000.00000
     Eigenvalues --- 1000.00000
 RFO step:  Lambda=-2.30565249D-02 EMin= 7.68810593D-03
 Linear search not attempted -- first point.
 Iteration  1 RMS(Cart)=  0.04943145 RMS(Int)=  0.01105177
 Iteration  2 RMS(Cart)=  0.01445770 RMS(Int)=  0.00241947
 Iteration  3 RMS(Cart)=  0.00065582 RMS(Int)=  0.00232886
 Iteration  4 RMS(Cart)=  0.00000469 RMS(Int)=  0.00232886
 Iteration  5 RMS(Cart)=  0.00000008 RMS(Int)=  0.00232886
 Iteration  1 RMS(Cart)=  0.00007647 RMS(Int)=  0.00005282
 Iteration  2 RMS(Cart)=  0.00003449 RMS(Int)=  0.00005886
 Iteration  3 RMS(Cart)=  0.00001625 RMS(Int)=  0.00006489
 Iteration  4 RMS(Cart)=  0.00000846 RMS(Int)=  0.00006821
 Iteration  5 RMS(Cart)=  0.00000519 RMS(Int)=  0.00006996
 Iteration  6 RMS(Cart)=  0.00000375 RMS(Int)=  0.00007095
 Iteration  7 RMS(Cart)=  0.00000298 RMS(Int)=  0.00007157
 Iteration  8 RMS(Cart)=  0.00000246 RMS(Int)=  0.00007200
 Iteration  9 RMS(Cart)=  0.00000207 RMS(Int)=  0.00007234
 Iteration 10 RMS(Cart)=  0.00000175 RMS(Int)=  0.00007261
 Iteration 11 RMS(Cart)=  0.00000148 RMS(Int)=  0.00007284
 Iteration 12 RMS(Cart)=  0.00000125 RMS(Int)=  0.00007303
 Iteration 13 RMS(Cart)=  0.00000106 RMS(Int)=  0.00007320
 Iteration 14 RMS(Cart)=  0.00000089 RMS(Int)=  0.00007335
 Variable       Old X    -DE/DX   Delta X   Delta X   Delta X     New X
                                 (Linear)    (Quad)   (Total)
    R1        2.32038   0.02620   0.00000   0.02779   0.02779   2.34817
    R2        2.32142   0.02406   0.00000   0.02558   0.02558   2.34700
    R3        2.79701  -0.00593   0.00000  -0.01608  -0.01608   2.78094
    R4        2.63081  -0.02934   0.00000  -0.06163  -0.06145   2.56936
    R5        2.78752  -0.01872   0.00000  -0.05299  -0.05285   2.73467
    R6        2.58886  -0.01789   0.00000  -0.03377  -0.03368   2.55518
    R7        2.08443  -0.01013   0.00000  -0.02840  -0.02840   2.05603
    R8        2.82773  -0.02100   0.00000  -0.05752  -0.05758   2.77016
    R9        1.93284  -0.00693   0.00000  -0.01500  -0.01500   1.91784
   R10        2.11798  -0.01187   0.00000  -0.03514  -0.03514   2.08284
   R11        2.92739  -0.01273   0.00000  -0.04336  -0.04337   2.88402
   R12        2.90773  -0.00431   0.00000  -0.01008  -0.01008   2.89765
   R13        2.91145  -0.00456   0.00000  -0.01433  -0.01438   2.89708
   R14        2.09924  -0.00982   0.00000  -0.02821  -0.02821   2.07103
   R15        2.09891  -0.00816   0.00000  -0.02343  -0.02343   2.07548
   R16        2.90432  -0.00201   0.00000  -0.00737  -0.00745   2.89688
   R17        2.10142  -0.01053   0.00000  -0.03035  -0.03035   2.07107
   R18        2.10315  -0.00899   0.00000  -0.02599  -0.02599   2.07715
   R19        2.91734  -0.00918   0.00000  -0.02924  -0.02924   2.88811
   R20        2.10407  -0.01159   0.00000  -0.03356  -0.03356   2.07050
   R21        2.10113  -0.00990   0.00000  -0.02853  -0.02853   2.07259
   R22        2.93522  -0.01056   0.00000  -0.03621  -0.03617   2.89905
   R23        2.10149  -0.01074   0.00000  -0.03096  -0.03096   2.07053
   R24        2.09787  -0.00790   0.00000  -0.02265  -0.02265   2.07522
   R25        2.10768  -0.00954   0.00000  -0.02777  -0.02777   2.07991
   R26        2.77280  -0.00714   0.00000  -0.01659  -0.01680   2.75600
   R27        2.44168  -0.00376   0.00000  -0.00575  -0.00579   2.43589
   R28        2.08051  -0.00434   0.00000  -0.01210  -0.01210   2.06840
    A1        2.20422  -0.00720   0.00000  -0.01157  -0.02864   2.17558
    A2        2.02491   0.00695   0.00000   0.03994   0.02304   2.04794
    A3        2.03617   0.00497   0.00000   0.03268   0.01578   2.05195
    A4        2.00316  -0.00146   0.00000  -0.00114  -0.00181   2.00135
    A5        2.01031   0.00012   0.00000   0.00445   0.00378   2.01409
    A6        2.26875   0.00128   0.00000  -0.00085  -0.00108   2.26767
    A7        2.18197   0.01025   0.00000   0.03872   0.03893   2.22090
    A8        2.06314  -0.00222   0.00000  -0.00283  -0.00307   2.06007
    A9        2.03690  -0.00797   0.00000  -0.03474  -0.03499   2.00190
   A10        2.24991  -0.00636   0.00000  -0.01921  -0.01916   2.23075
   A11        2.11380  -0.01125   0.00000  -0.06737  -0.06785   2.04595
   A12        1.87379   0.01759   0.00000   0.09513   0.09523   1.96902
   A13        1.83732  -0.00198   0.00000  -0.01599  -0.01577   1.82154
   A14        2.00463  -0.00054   0.00000  -0.00953  -0.00979   1.99483
   A15        1.97219   0.00113   0.00000  -0.00519  -0.00553   1.96666
   A16        1.85277   0.00269   0.00000   0.02444   0.02436   1.87713
   A17        1.84874   0.00115   0.00000   0.02215   0.02187   1.87061
   A18        1.93419  -0.00212   0.00000  -0.01068  -0.01040   1.92379
   A19        1.91035   0.00054   0.00000  -0.00424  -0.00435   1.90600
   A20        1.92174  -0.00071   0.00000  -0.01305  -0.01304   1.90870
   A21        1.92300  -0.00192   0.00000  -0.00743  -0.00745   1.91556
   A22        1.91934  -0.00056   0.00000   0.00466   0.00462   1.92396
   A23        1.90477   0.00299   0.00000   0.02567   0.02566   1.93043
   A24        1.88444  -0.00034   0.00000  -0.00521  -0.00546   1.87898
   A25        1.94085  -0.00103   0.00000   0.00480   0.00471   1.94556
   A26        1.91877  -0.00054   0.00000  -0.00617  -0.00618   1.91259
   A27        1.90486   0.00029   0.00000  -0.00268  -0.00275   1.90211
   A28        1.91605   0.00071   0.00000   0.00701   0.00704   1.92309
   A29        1.89850   0.00183   0.00000   0.01125   0.01127   1.90978
   A30        1.88376  -0.00125   0.00000  -0.01468  -0.01476   1.86900
   A31        1.94463   0.00071   0.00000   0.00533   0.00540   1.95003
   A32        1.90246   0.00055   0.00000   0.00617   0.00617   1.90863
   A33        1.91718   0.00044   0.00000   0.00533   0.00529   1.92246
   A34        1.90703  -0.00127   0.00000  -0.01478  -0.01481   1.89221
   A35        1.91526  -0.00041   0.00000   0.00032   0.00025   1.91550
   A36        1.87592  -0.00006   0.00000  -0.00275  -0.00279   1.87313
   A37        1.94626  -0.00291   0.00000  -0.01892  -0.01891   1.92735
   A38        1.90628   0.00238   0.00000   0.01642   0.01627   1.92255
   A39        1.91122   0.00150   0.00000   0.01403   0.01397   1.92519
   A40        1.90638   0.00026   0.00000  -0.00320  -0.00308   1.90329
   A41        1.91193  -0.00032   0.00000  -0.00437  -0.00429   1.90764
   A42        1.88057  -0.00083   0.00000  -0.00343  -0.00361   1.87695
   A43        1.84542   0.00483   0.00000   0.02337   0.02337   1.86879
   A44        1.93489  -0.00431   0.00000  -0.02956  -0.03011   1.90479
   A45        1.99064   0.00094   0.00000   0.01425   0.01480   2.00545
   A46        1.88103   0.00234   0.00000   0.03196   0.03227   1.91330
   A47        1.89110  -0.00448   0.00000  -0.03084  -0.03103   1.86008
   A48        1.91596   0.00089   0.00000  -0.00669  -0.00659   1.90936
   A49        2.08558  -0.00652   0.00000  -0.01332  -0.01385   2.07173
   A50        2.23680   0.00035   0.00000   0.00022  -0.00012   2.23667
   A51        1.98148   0.00325   0.00000   0.01813   0.01757   1.99905
   A52        2.06475  -0.00362   0.00000  -0.01932  -0.01981   2.04494
    D1        1.70309   0.01427   0.00000   0.05405   0.05375   1.75684
    D2       -1.39625   0.01543   0.00000   0.00000  -0.00000  -1.39625
    D3       -1.24931  -0.00948   0.00000  -0.26320  -0.26232  -1.51163
    D4        1.93453  -0.00833   0.00000  -0.31725  -0.31607   1.61846
    D5        3.07423   0.00208   0.00000  -0.01535  -0.01474   3.05949
    D6       -0.01335   0.00106   0.00000  -0.04045  -0.04040  -0.05375
    D7       -0.11727   0.00067   0.00000   0.04866   0.04872  -0.06856
    D8        3.07833  -0.00036   0.00000   0.02355   0.02306   3.10138
    D9       -2.77696  -0.00105   0.00000   0.01050   0.01046  -2.76650
   D10        0.38471   0.00023   0.00000   0.06951   0.06972   0.45443
   D11        0.41472   0.00041   0.00000  -0.05358  -0.05325   0.36147
   D12       -2.70680   0.00169   0.00000   0.00542   0.00601  -2.70079
   D13       -0.06137  -0.00074   0.00000  -0.02232  -0.02199  -0.08335
   D14        2.71780   0.00248   0.00000   0.02786   0.02686   2.74466
   D15        3.02695   0.00042   0.00000   0.00329   0.00374   3.03069
   D16       -0.47707   0.00364   0.00000   0.05348   0.05259  -0.42448
   D17       -2.53783  -0.00068   0.00000  -0.00617  -0.00602  -2.54385
   D18        1.71410  -0.00240   0.00000  -0.02058  -0.02037   1.69372
   D19       -0.52823   0.00008   0.00000   0.00819   0.00797  -0.52026
   D20        0.92742   0.00059   0.00000  -0.02695  -0.02752   0.89990
   D21       -1.10384  -0.00113   0.00000  -0.04137  -0.04187  -1.14571
   D22        2.93702   0.00135   0.00000  -0.01260  -0.01353   2.92349
   D23        2.94091   0.00224   0.00000   0.03274   0.03257   2.97348
   D24       -1.23043   0.00145   0.00000   0.02755   0.02741  -1.20301
   D25        0.84627  -0.00060   0.00000   0.00837   0.00831   0.85458
   D26        0.91851   0.00320   0.00000   0.04160   0.04154   0.96006
   D27        3.03036   0.00241   0.00000   0.03641   0.03639   3.06675
   D28       -1.17613   0.00036   0.00000   0.01723   0.01728  -1.15884
   D29       -1.08109   0.00141   0.00000   0.00731   0.00734  -1.07375
   D30        1.03076   0.00062   0.00000   0.00212   0.00218   1.03294
   D31        3.10746  -0.00143   0.00000  -0.01706  -0.01692   3.09054
   D32       -2.89780  -0.00083   0.00000  -0.01439  -0.01412  -2.91192
   D33       -0.86383   0.00250   0.00000   0.02175   0.02160  -0.84223
   D34        1.30938   0.00094   0.00000   0.00000  -0.00001   1.30937
   D35       -0.89505  -0.00194   0.00000  -0.02295  -0.02287  -0.91793
   D36        1.13891   0.00139   0.00000   0.01318   0.01285   1.15176
   D37       -2.97106  -0.00016   0.00000  -0.00856  -0.00876  -2.97982
   D38        1.10707   0.00082   0.00000   0.01276   0.01287   1.11994
   D39        3.14104   0.00415   0.00000   0.04890   0.04859  -3.09356
   D40       -0.96894   0.00260   0.00000   0.02715   0.02698  -0.94195
   D41        0.95665   0.00088   0.00000   0.00000   0.00000   0.95666
   D42        3.08236   0.00072   0.00000   0.00786   0.00782   3.09018
   D43       -1.13784  -0.00095   0.00000  -0.01523  -0.01520  -1.15304
   D44       -1.15665   0.00176   0.00000   0.01591   0.01596  -1.14069
   D45        0.96905   0.00160   0.00000   0.02376   0.02378   0.99283
   D46        3.03204  -0.00006   0.00000   0.00068   0.00076   3.03280
   D47        3.06242   0.00071   0.00000   0.00412   0.00408   3.06651
   D48       -1.09506   0.00055   0.00000   0.01197   0.01190  -1.08316
   D49        0.96793  -0.00112   0.00000  -0.01111  -0.01112   0.95682
   D50       -0.92193  -0.00062   0.00000   0.00000   0.00000  -0.92192
   D51        1.18398  -0.00139   0.00000  -0.01098  -0.01099   1.17299
   D52       -3.04806  -0.00088   0.00000  -0.00761  -0.00763  -3.05570
   D53       -3.04921   0.00026   0.00000  -0.00018  -0.00017  -3.04938
   D54       -0.94331  -0.00051   0.00000  -0.01116  -0.01116  -0.95447
   D55        1.10784  -0.00000   0.00000  -0.00779  -0.00781   1.10003
   D56        1.17633   0.00029   0.00000   0.00693   0.00696   1.18328
   D57       -3.00096  -0.00048   0.00000  -0.00405  -0.00403  -3.00499
   D58       -0.94981   0.00003   0.00000  -0.00068  -0.00068  -0.95049
   D59        0.99032  -0.00100   0.00000  -0.01078  -0.01077   0.97955
   D60        3.09898  -0.00095   0.00000  -0.01596  -0.01608   3.08290
   D61       -1.12865   0.00030   0.00000  -0.00238  -0.00231  -1.13096
   D62       -1.11290  -0.00130   0.00000  -0.01211  -0.01207  -1.12497
   D63        0.99576  -0.00126   0.00000  -0.01729  -0.01738   0.97838
   D64        3.05132  -0.00001   0.00000  -0.00370  -0.00361   3.04771
   D65        3.11757  -0.00025   0.00000  -0.00027  -0.00026   3.11731
   D66       -1.05696  -0.00020   0.00000  -0.00546  -0.00557  -1.06253
   D67        0.99860   0.00105   0.00000   0.00813   0.00820   1.00680
   D68       -1.05687  -0.00006   0.00000  -0.00228  -0.00228  -1.05915
   D69       -3.12700   0.00128   0.00000   0.00408   0.00369  -3.12331
   D70        1.08394   0.00138   0.00000   0.01119   0.01128   1.09523
   D71        3.11771  -0.00134   0.00000  -0.00857  -0.00852   3.10919
   D72        1.04758  -0.00000   0.00000  -0.00221  -0.00254   1.04504
   D73       -1.02466   0.00010   0.00000   0.00490   0.00505  -1.01961
   D74        1.06168  -0.00030   0.00000  -0.00000   0.00010   1.06178
   D75       -1.00845   0.00104   0.00000   0.00636   0.00607  -1.00238
   D76       -3.08069   0.00114   0.00000   0.01347   0.01366  -3.06703
   D77       -1.17217   0.00404   0.00000   0.00000  -0.00001  -1.17217
   D78        3.06113   0.00045   0.00000  -0.01705  -0.01692   3.04422
   D79        1.01113  -0.00027   0.00000  -0.03390  -0.03415   0.97698
   D80        0.19632  -0.00159   0.00000   0.01924   0.01922   0.21554
   D81       -2.96618  -0.00286   0.00000  -0.04182  -0.04100  -3.00718
         Item               Value     Threshold  Converged?
 Maximum Force            0.029033     0.000450     NO 
 RMS     Force            0.006259     0.000300     NO 
 Maximum Displacement     0.473697     0.001800     NO 
 RMS     Displacement     0.059147     0.001200     NO 
 Predicted change in Energy=-1.462994D-02
 GradGradGradGradGradGradGradGradGradGradGradGradGradGradGradGradGradGrad

                          Input orientation:                          
 ---------------------------------------------------------------------
 Center     Atomic      Atomic             Coordinates (Angstroms)
 Number     Number       Type             X           Y           Z
 ---------------------------------------------------------------------
      1          8           0       -3.695784   -0.307705   -1.170458
      2          7           0       -3.124906   -0.237456   -0.069000
      3          8           0       -3.660275   -0.495360    1.021585
      4          6           0       -1.673929    0.008046   -0.074260
      5          6           0       -1.315106    1.294455    0.180764
      6          7           0       -0.061883    1.781505    0.323977
      7          6           0        1.197836    1.031929    0.334878
      8          1           0        1.836484    1.580732    1.046054
      9          6           0        1.923119    1.003292   -1.007620
     10          6           0        3.321926    0.406999   -0.812512
     11          6           0        3.256154   -0.971899   -0.145967
     12          6           0        2.442644   -0.936911    1.147378
     13          6           0        1.033805   -0.392141    0.879250
     14          1           0        0.466293   -0.355056    1.821571
     15          7           0        0.392544   -1.329349   -0.035841
     16          6           0       -0.849022   -1.152289   -0.333727
     17          1           0       -2.106370    2.029489    0.312593
     18          1           0        0.072124    2.773968    0.159561
     19          1           0        1.348723    0.397942   -1.718048
     20          1           0        1.990163    2.021004   -1.415083
     21          1           0        3.828920    0.334849   -1.781474
     22          1           0        3.916585    1.087457   -0.186765
     23          1           0        2.785206   -1.684743   -0.831927
     24          1           0        4.268264   -1.339351    0.062632
     25          1           0        2.362001   -1.944571    1.570015
     26          1           0        2.940624   -0.303806    1.893800
     27          1           0       -1.340129   -1.938031   -0.916367
 ---------------------------------------------------------------------
                    Distance matrix (angstroms):
                    1          2          3          4          5
     1  O    0.000000
     2  N    1.242597   0.000000
     3  O    2.200347   1.241979   0.000000
     4  C    2.321475   1.471608   2.323761   0.000000
     5  C    3.171805   2.384220   3.067611   1.359647   0.000000
     6  N    4.450098   3.689545   4.314997   2.429494   1.352145
     7  C    5.292275   4.523334   5.138620   3.076160   2.531313
     8  H    6.251809   5.400421   5.875808   4.006426   3.280733
     9  C    5.772114   5.282331   6.126820   3.847133   3.461667
    10  C    7.063086   6.521486   7.275253   5.065842   4.824546
    11  C    7.058341   6.423647   7.030452   5.027042   5.112683
    12  C    6.591553   5.741639   6.120165   4.396762   4.475938
    13  C    5.155332   4.268252   4.697371   2.898474   2.974874
    14  H    5.126146   4.060147   4.205738   2.882112   2.930277
    15  N    4.364119   3.683175   4.270718   2.461790   3.138046
    16  C    3.085044   2.467112   3.189290   1.447126   2.543323
    17  H    3.191888   2.514372   3.048303   2.103067   1.088004
    18  H    5.046067   4.397944   5.036109   3.279283   2.028254
    19  H    5.122972   4.810036   5.778723   3.462728   3.391933
    20  H    6.149205   5.751218   6.648074   4.390373   3.741578
    21  H    7.576766   7.184413   8.039554   5.770852   5.588580
    22  H    7.801429   7.166021   7.834171   5.694878   5.248668
    23  H    6.634310   6.132382   6.811341   4.829439   5.168532
    24  H    8.124707   7.475992   8.030794   6.094578   6.174537
    25  H    6.847356   5.975513   6.218424   4.775467   5.093371
    26  H    7.309693   6.375550   6.661031   5.026392   4.858001
    27  H    2.876046   2.606802   3.349632   2.146575   3.413692
                    6          7          8          9         10
     6  N    0.000000
     7  C    1.465903   0.000000
     8  H    2.040957   1.102193   0.000000
     9  C    2.513762   1.526158   2.135070   0.000000
    10  C    3.825054   2.493753   2.653009   1.533067   0.000000
    11  C    4.337216   2.912595   3.154726   2.533931   1.532961
    12  C    3.786876   2.466989   2.591567   2.945898   2.533851
    13  C    2.496717   1.533370   2.136433   2.509660   2.955704
    14  H    2.662077   2.160819   2.495221   3.460026   3.959011
    15  N    3.164393   2.522214   3.424037   2.954358   3.492765
    16  C    3.107943   3.067160   4.072487   3.575672   4.478552
    17  H    2.059504   3.451579   4.035524   4.362663   5.776222
    18  H    1.014876   2.081505   2.307087   2.814922   4.136264
    19  H    2.841464   2.153883   3.045844   1.095941   2.171085
    20  H    2.700478   2.160651   2.504926   1.098297   2.177543
    21  H    4.654469   3.447821   3.676539   2.162809   1.095963
    22  H    4.070720   2.768897   2.467789   2.157497   1.099182
    23  H    4.632159   3.355813   3.884612   2.828355   2.159590
    24  H    5.343988   3.889038   3.925245   3.483263   2.170523
    25  H    4.616434   3.426426   3.602563   3.940396   3.482496
    26  H    3.978431   2.692905   2.342921   3.340967   2.823962
    27  H    4.123993   4.102139   5.130659   4.394144   5.219647
                   11         12         13         14         15
    11  C    0.000000
    12  C    1.528320   0.000000
    13  C    2.515159   1.534111   0.000000
    14  H    3.469153   2.167730   1.100643   0.000000
    15  N    2.887933   2.399360   1.458412   2.098730   0.000000
    16  C    4.113425   3.615955   2.365201   2.647819   1.289020
    17  H    6.162408   5.494536   4.005757   3.818595   4.200925
    18  H    4.925739   4.512845   3.386300   3.564890   4.120444
    19  H    2.825986   3.345021   2.733014   3.724862   2.593768
    20  H    3.488675   3.939569   3.464369   4.294621   3.959742
    21  H    2.170376   3.480992   3.926912   4.976461   4.198270
    22  H    2.163050   2.837341   3.411162   4.244853   4.275815
    23  H    1.095664   2.143420   2.768817   3.766494   2.546544
    24  H    1.096769   2.161370   3.467823   4.303218   3.876984
    25  H    2.165685   1.095675   2.156687   2.486674   2.614581
    26  H    2.169459   1.098158   2.161730   2.475916   3.356779
    27  H    4.759489   4.423874   3.354039   3.642153   2.036658
                   16         17         18         19         20
    16  C    0.000000
    17  H    3.481719   0.000000
    18  H    4.062922   2.307273   0.000000
    19  H    3.024838   4.327022   3.286429   0.000000
    20  H    4.393187   4.445956   2.593324   1.771317   0.000000
    21  H    5.117684   6.518021   4.881642   2.481810   2.521584
    22  H    5.267739   6.116598   4.212379   3.068253   2.468071
    23  H    3.706659   6.247636   5.312622   2.680722   3.834673
    24  H    5.136021   7.214397   5.876766   3.835717   4.320343
    25  H    3.816100   6.110696   5.431162   4.162386   4.977434
    26  H    4.476966   5.780712   4.550667   4.008996   4.154133
    27  H    1.094552   4.223587   5.035376   3.650944   5.197453
                   21         22         23         24         25
    21  H    0.000000
    22  H    1.765560   0.000000
    23  H    2.463682   3.062898   0.000000
    24  H    2.529168   2.464807   1.766067   0.000000
    25  H    4.310462   3.833563   2.452741   2.504463   0.000000
    26  H    3.834655   2.686422   3.059530   2.487600   1.769676
    27  H    5.712570   6.108923   4.133965   5.724590   4.459586
                   26         27
    26  H    0.000000
    27  H    5.375182   0.000000
 Symmetry turned off by external request.
 Stoichiometry    C9H13N3O2
 Framework group  C1[X(C9H13N3O2)]
 Deg. of freedom    75
 Full point group                 C1      NOp   1
 Rotational constants (GHZ):           1.6668069           0.4105477           0.3823624
 Standard basis: 6-31G(d) (6D, 7F)
   236 basis functions,   444 primitive gaussians,   236 cartesian basis functions
    52 alpha electrons       52 beta electrons
       nuclear repulsion energy       929.7227085034 Hartrees.
 NAtoms=   27 NActive=   27 NUniq=   27 SFac= 1.00D+00 NAtFMM=   60 NAOKFM=F Big=F
 Integral buffers will be    131072 words long.
 Raffenetti 1 integral format.
 Two-electron integral symmetry is turned off.
 One-electron integrals computed using PRISM.
 NBasis=   236 RedAO= T EigKep=  1.51D-03  NBF=   236
 NBsUse=   236 1.00D-06 EigRej= -1.00D+00 NBFU=   236
 Initial guess from the checkpoint file:  "/home/alexey/tmp/Gau-1137707.chk"
 B after Tr=     0.033961   -0.013237    0.001697
         Rot=    0.999988   -0.003776   -0.000480   -0.002925 Ang=  -0.55 deg.
 ExpMin= 1.61D-01 ExpMax= 5.48D+03 ExpMxC= 8.25D+02 IAcc=3 IRadAn=         5 AccDes= 0.00D+00
 Harris functional with IExCor=  205 and IRadAn=       5 diagonalized for initial guess.
 HarFok:  IExCor=  205 AccDes= 0.00D+00 IRadAn=         5 IDoV= 1 UseB2=F ITyADJ=14
 ICtDFT=  3500011 ScaDFX=  1.000000  1.000000  1.000000  1.000000
 FoFCou: FMM=F IPFlag=           0 FMFlag=      100000 FMFlg1=           0
         NFxFlg=           0 DoJE=T BraDBF=F KetDBF=T FulRan=T
         wScrn=  0.000000 ICntrl=       500 IOpCl=  0 I1Cent=   200000004 NGrid=           0
         NMat0=    1 NMatS0=      1 NMatT0=    0 NMatD0=    1 NMtDS0=    0 NMtDT0=    0
 Symmetry not used in FoFCou.
 Keep R1 ints in memory in canonical form, NReq=397720213.
 Requested convergence on RMS density matrix=1.00D-08 within 128 cycles.
 Requested convergence on MAX density matrix=1.00D-06.
 Requested convergence on             energy=1.00D-06.
 No special actions if energy rises.
 SCF Done:  E(RHF) =  -661.277594898     A.U. after   17 cycles
            NFock= 17  Conv=0.90D-08     -V/T= 2.0025
 ExpMin= 1.61D-01 ExpMax= 5.48D+03 ExpMxC= 8.25D+02 IAcc=3 IRadAn=         5 AccDes= 0.00D+00
 HarFok:  IExCor=  205 AccDes= 0.00D+00 IRadAn=         5 IDoV=-2 UseB2=F ITyADJ=14
 ICtDFT= 12500011 ScaDFX=  1.000000  1.000000  1.000000  1.000000
 Range of M.O.s used for correlation:    15   236
 NBasis=   236 NAE=    52 NBE=    52 NFC=    14 NFV=     0
 NROrb=    222 NOA=    38 NOB=    38 NVA=   184 NVB=   184
 Fully direct method using O(ONN) memory.
 JobTyp=1 Pass  1:  I=  15 to  52 NPSUse=  4 ParTrn=T ParDer=T DoDerP=T.
 Spin components of T(2) and E(2):
     alpha-alpha T2 =       0.9150706892D-01 E2=     -0.2725558002D+00
     alpha-beta  T2 =       0.4976530904D+00 E2=     -0.1494546874D+01
     beta-beta   T2 =       0.9150706892D-01 E2=     -0.2725558002D+00
 ANorm=    0.1296405503D+01
 E2 =    -0.2039658474D+01 EUMP2 =    -0.66331725337259D+03
          IDoAtm=111111111111111111111111111
          Differentiating once with respect to electric field.
                with respect to dipole field.
          Differentiating once with respect to nuclear coordinates.
 Keep R1 ints in memory in canonical form, NReq=397723379.
          There are     1 degrees of freedom in the 1st order CPHF.  IDoFFX=0 NUNeed=     1.
 LinEq1:  Iter=  0 NonCon=     1 RMS=4.51D-03 Max=1.16D-01 NDo=     1
 AX will form     1 AO Fock derivatives at one time.
 LinEq1:  Iter=  1 NonCon=     1 RMS=1.50D-03 Max=3.44D-02 NDo=     1
 LinEq1:  Iter=  2 NonCon=     1 RMS=6.36D-04 Max=1.63D-02 NDo=     1
 LinEq1:  Iter=  3 NonCon=     1 RMS=2.78D-04 Max=4.52D-03 NDo=     1
 LinEq1:  Iter=  4 NonCon=     1 RMS=8.50D-05 Max=1.26D-03 NDo=     1
 LinEq1:  Iter=  5 NonCon=     1 RMS=3.35D-05 Max=9.54D-04 NDo=     1
[...]
    27  H    4.731755   4.421215   3.357988   3.643093   2.035234
                   16         17         18         19         20
    16  C    0.000000
    17  H    3.474162   0.000000
    18  H    4.102604   2.231255   0.000000
    19  H    2.999642   4.341305   3.572454   0.000000
    20  H    4.386079   4.491050   2.960714   1.767717   0.000000
    21  H    5.099523   6.539728   5.137484   2.499695   2.522784
    22  H    5.252663   6.110595   4.337390   3.070370   2.462868
    23  H    3.688517   6.238621   5.437081   2.705376   3.843886
    24  H    5.128957   7.196002   5.940662   3.850326   4.318257
    25  H    3.818187   6.056588   5.334725   4.175534   4.986197
    26  H    4.491446   5.743935   4.438557   4.032207   4.176346
    27  H    1.094241   4.239016   5.110863   3.612563   5.176822
                   21         22         23         24         25
    21  H    0.000000
    22  H    1.758788   0.000000
    23  H    2.469951   3.062208   0.000000
    24  H    2.516860   2.459781   1.764354   0.000000
    25  H    4.312127   3.837005   2.446480   2.518169   0.000000
    26  H    3.843448   2.699284   3.060574   2.494238   1.768027
    27  H    5.673263   6.077863   4.096039   5.699144   4.453270
                   26         27
    26  H    0.000000
    27  H    5.380120   0.000000
 Symmetry turned off by external request.
 Stoichiometry    C9H13N3O2
 Framework group  C1[X(C9H13N3O2)]
 Deg. of freedom    75
 Full point group                 C1      NOp   1
 Rotational constants (GHZ):           1.6645301           0.4100346           0.3840119

 **********************************************************************

            Population analysis using the SCF Density.

 **********************************************************************

 Alpha  occ. eigenvalues --  -20.60930 -20.60843 -15.85054 -15.62541 -15.56425
 Alpha  occ. eigenvalues --  -11.34356 -11.30225 -11.29094 -11.28690 -11.26950
 Alpha  occ. eigenvalues --  -11.23173 -11.22862 -11.22496 -11.21877  -1.57995
 Alpha  occ. eigenvalues --   -1.37785  -1.29788  -1.23108  -1.14618  -1.09706
 Alpha  occ. eigenvalues --   -1.02430  -1.00896  -0.94543  -0.89843  -0.85088
 Alpha  occ. eigenvalues --   -0.82607  -0.78301  -0.77930  -0.74818  -0.71885
 Alpha  occ. eigenvalues --   -0.71268  -0.68599  -0.67089  -0.65217  -0.63314
 Alpha  occ. eigenvalues --   -0.62000  -0.60272  -0.57348  -0.56709  -0.54873
 Alpha  occ. eigenvalues --   -0.54223  -0.51360  -0.50216  -0.49189  -0.48367
 Alpha  occ. eigenvalues --   -0.47934  -0.46143  -0.45776  -0.43900  -0.41571
 Alpha  occ. eigenvalues --   -0.39927  -0.33102
 Alpha virt. eigenvalues --    0.08599   0.10159   0.17568   0.21166   0.23442
 Alpha virt. eigenvalues --    0.24686   0.26408   0.28198   0.29114   0.29349
 Alpha virt. eigenvalues --    0.29632   0.31776   0.32110   0.32910   0.34208
 Alpha virt. eigenvalues --    0.34573   0.35628   0.37353   0.38624   0.38986
 Alpha virt. eigenvalues --    0.41188   0.42688   0.44495   0.45914   0.47011
 Alpha virt. eigenvalues --    0.48087   0.51060   0.54085   0.57273   0.58765
 Alpha virt. eigenvalues --    0.59683   0.69879   0.70083   0.72721   0.74158
 Alpha virt. eigenvalues --    0.74592   0.75895   0.76336   0.78796   0.79107
 Alpha virt. eigenvalues --    0.79926   0.83923   0.85592   0.86296   0.88598
 Alpha virt. eigenvalues --    0.89641   0.90204   0.91664   0.92898   0.93180
 Alpha virt. eigenvalues --    0.95338   0.97612   0.99971   1.01692   1.02632
 Alpha virt. eigenvalues --    1.04320   1.06252   1.06692   1.07351   1.08298
 Alpha virt. eigenvalues --    1.10316   1.11012   1.11458   1.11827   1.13268
 Alpha virt. eigenvalues --    1.13860   1.14268   1.14760   1.16153   1.16680
 Alpha virt. eigenvalues --    1.17375   1.19043   1.19507   1.21844   1.23368
 Alpha virt. eigenvalues --    1.24052   1.24815   1.25713   1.27493   1.27895
 Alpha virt. eigenvalues --    1.28541   1.31486   1.33935   1.36637   1.37074
 Alpha virt. eigenvalues --    1.40245   1.42818   1.46616   1.50136   1.52564
 Alpha virt. eigenvalues --    1.54990   1.55936   1.61496   1.62903   1.66781
 Alpha virt. eigenvalues --    1.68025   1.70501   1.72516   1.74019   1.75750
 Alpha virt. eigenvalues --    1.80620   1.84916   1.87752   1.91393   1.92525
 Alpha virt. eigenvalues --    1.95747   1.97154   2.00299   2.01270   2.02698
 Alpha virt. eigenvalues --    2.06109   2.06837   2.07902   2.09419   2.10795
 Alpha virt. eigenvalues --    2.11643   2.14928   2.15989   2.19944   2.22722
 Alpha virt. eigenvalues --    2.23641   2.25414   2.27757   2.28365   2.30253
 Alpha virt. eigenvalues --    2.32579   2.33090   2.33748   2.36107   2.38309
 Alpha virt. eigenvalues --    2.39915   2.40048   2.43161   2.44856   2.47134
 Alpha virt. eigenvalues --    2.48568   2.52031   2.53915   2.55450   2.60043
 Alpha virt. eigenvalues --    2.62532   2.64884   2.68727   2.70237   2.71239
 Alpha virt. eigenvalues --    2.72060   2.73654   2.75735   2.77952   2.81813
 Alpha virt. eigenvalues --    2.88580   2.89938   2.93365   2.95665   2.96192
 Alpha virt. eigenvalues --    2.99220   3.02167   3.04990   3.08430   3.09311
 Alpha virt. eigenvalues --    3.13584   3.15279   3.15976   3.20921   3.23842
 Alpha virt. eigenvalues --    3.29839   3.36134   3.38527   3.40981   3.63651
 Alpha virt. eigenvalues --    4.15536   4.16782   4.31256   4.36276   4.47152
 Alpha virt. eigenvalues --    4.56188   4.61632   4.62669   4.73975   4.79214
 Alpha virt. eigenvalues --    5.00433   5.01515   5.06291   5.10842
          Condensed to atoms (all electrons):
               1          2          3          4          5          6
     1  O    8.304627   0.288867  -0.078024  -0.082159   0.001253  -0.000015
     2  N    0.288867   5.828008   0.296417   0.230341  -0.053947   0.001313
     3  O   -0.078024   0.296417   8.298871  -0.080682   0.002453   0.000067
     4  C   -0.082159   0.230341  -0.080682   5.166821   0.610111  -0.051280
     5  C    0.001253  -0.053947   0.002453   0.610111   4.626800   0.339819
     6  N   -0.000015   0.001313   0.000067  -0.051280   0.339819   7.169345
     7  C   -0.000005  -0.000158   0.000010   0.002653  -0.034790   0.186744
     8  H    0.000000   0.000002  -0.000000  -0.000169   0.003082  -0.049615
     9  C    0.000000  -0.000005   0.000000   0.000940   0.001134  -0.063235
    10  C    0.000000   0.000000  -0.000000  -0.000037  -0.000069   0.003754
    11  C   -0.000000  -0.000000   0.000000  -0.000041   0.000024  -0.000200
    12  C    0.000000   0.000002  -0.000000  -0.000062  -0.000125   0.003884
    13  C    0.000005  -0.000052  -0.000024  -0.011926   0.000760  -0.050559
    14  H    0.000002  -0.000094  -0.000005   0.002889   0.007371  -0.007193
    15  N    0.000084   0.002334  -0.000039  -0.066229  -0.009430   0.003043
    16  C    0.002779  -0.032265   0.001960   0.332637  -0.034967  -0.002936
    17  H    0.000423  -0.003429   0.001301  -0.035523   0.390916  -0.034225
    18  H    0.000001  -0.000075   0.000004   0.002569  -0.028635   0.337628
    19  H    0.000001  -0.000003  -0.000000  -0.001070   0.000918  -0.000085
    20  H    0.000000  -0.000000  -0.000000  -0.000100   0.000177   0.000009
    21  H   -0.000000   0.000000   0.000000   0.000001   0.000001  -0.000075
    22  H    0.000000   0.000000  -0.000000  -0.000000  -0.000003  -0.000116
    23  H    0.000000  -0.000000  -0.000000   0.000040   0.000001  -0.000031
    24  H    0.000000   0.000000  -0.000000   0.000000  -0.000000   0.000005
    25  H    0.000000  -0.000000  -0.000000   0.000026  -0.000000  -0.000092
    26  H   -0.000000  -0.000000   0.000000   0.000005  -0.000003  -0.000051
    27  H    0.002550   0.000614  -0.000055  -0.074505   0.002064   0.000005
               7          8          9         10         11         12
     1  O   -0.000005   0.000000   0.000000   0.000000  -0.000000   0.000000
     2  N   -0.000158   0.000002  -0.000005   0.000000  -0.000000   0.000002
     3  O    0.000010  -0.000000   0.000000  -0.000000   0.000000  -0.000000
     4  C    0.002653  -0.000169   0.000940  -0.000037  -0.000041  -0.000062
     5  C   -0.034790   0.003082   0.001134  -0.000069   0.000024  -0.000125
     6  N    0.186744  -0.049615  -0.063235   0.003754  -0.000200   0.003884
     7  C    5.006156   0.417606   0.351465  -0.055014  -0.008659  -0.061407
     8  H    0.417606   0.542200  -0.055268   0.000539  -0.000290  -0.002330
     9  C    0.351465  -0.055268   5.156085   0.324284  -0.050296  -0.004925
    10  C   -0.055014   0.000539   0.324284   5.121458   0.336671  -0.061148
    11  C   -0.008659  -0.000290  -0.050296   0.336671   5.121031   0.335903
    12  C   -0.061407  -0.002330  -0.004925  -0.061148   0.335903   5.120758
    13  C    0.339976  -0.037675  -0.062926   0.000213  -0.051188   0.369989
    14  H   -0.046170  -0.000645   0.004379  -0.000389   0.004145  -0.035818
    15  N   -0.060094   0.003875  -0.013818   0.001752  -0.013447  -0.082697
    16  C   -0.000830  -0.000085  -0.000809  -0.000051   0.000053   0.002818
    17  H    0.002173  -0.000082  -0.000080   0.000001   0.000000   0.000001
    18  H   -0.022813  -0.004917   0.001765  -0.000089   0.000003  -0.000122
    19  H   -0.036920   0.004391   0.391049  -0.032980  -0.002256   0.000720
    20  H   -0.041433  -0.001905   0.399031  -0.035390   0.003925  -0.000410
    21  H    0.004584  -0.000078  -0.036185   0.402257  -0.035096   0.004372
    22  H   -0.004834   0.003611  -0.046718   0.397431  -0.045555  -0.001119
    23  H    0.000584   0.000038  -0.001942  -0.039120   0.399308  -0.038220
    24  H   -0.000140  -0.000102   0.004341  -0.038301   0.402211  -0.038696
    25  H    0.005067  -0.000011  -0.000451   0.004218  -0.033643   0.398209
    26  H   -0.003971   0.001656   0.000967  -0.002273  -0.041276   0.396676
    27  H   -0.000403   0.000009  -0.000054   0.000006   0.000013  -0.000039
              13         14         15         16         17         18
     1  O    0.000005   0.000002   0.000084   0.002779   0.000423   0.000001
     2  N   -0.000052  -0.000094   0.002334  -0.032265  -0.003429  -0.000075
     3  O   -0.000024  -0.000005  -0.000039   0.001960   0.001301   0.000004
     4  C   -0.011926   0.002889  -0.066229   0.332637  -0.035523   0.002569
     5  C    0.000760   0.007371  -0.009430  -0.034967   0.390916  -0.028635
     6  N   -0.050559  -0.007193   0.003043  -0.002936  -0.034225   0.337628
     7  C    0.339976  -0.046170  -0.060094  -0.000830   0.002173  -0.022813
     8  H   -0.037675  -0.000645   0.003875  -0.000085  -0.000082  -0.004917
     9  C   -0.062926   0.004379  -0.013818  -0.000809  -0.000080   0.001765
    10  C    0.000213  -0.000389   0.001752  -0.000051   0.000001  -0.000089
    11  C   -0.051188   0.004145  -0.013447   0.000053   0.000000   0.000003
    12  C    0.369989  -0.035818  -0.082697   0.002818   0.000001  -0.000122
    13  C    5.044330   0.403478   0.253570  -0.072716  -0.000007   0.002806
    14  H    0.403478   0.523229  -0.037491  -0.006451   0.000086  -0.000096
    15  N    0.253570  -0.037491   6.934742   0.604119  -0.000074  -0.000129
    16  C   -0.072716  -0.006451   0.604119   4.679745   0.001757  -0.000111
    17  H   -0.000007   0.000086  -0.000074   0.001757   0.425611  -0.003543
    18  H    0.002806  -0.000096  -0.000129  -0.000111  -0.003543   0.318381
    19  H   -0.007522   0.000106   0.007247   0.002378   0.000011  -0.000144
    20  H    0.004407  -0.000067   0.000134  -0.000040   0.000003   0.000502
    21  H   -0.000447   0.000010  -0.000045   0.000004  -0.000000   0.000002
    22  H    0.000054  -0.000053   0.000024  -0.000002   0.000000  -0.000000
    23  H   -0.007600   0.000002   0.008450   0.000119   0.000000   0.000000
    24  H    0.004708  -0.000057   0.000126   0.000007   0.000000  -0.000000
    25  H   -0.035753  -0.002788   0.000415  -0.000006  -0.000000   0.000002
    26  H   -0.046979  -0.001026   0.004877  -0.000070   0.000000   0.000000
    27  H    0.005344  -0.000185  -0.036715   0.404780  -0.000089   0.000001
              19         20         21         22         23         24
     1  O    0.000001   0.000000  -0.000000   0.000000   0.000000   0.000000
     2  N   -0.000003  -0.000000   0.000000   0.000000  -0.000000   0.000000
     3  O   -0.000000  -0.000000   0.000000  -0.000000  -0.000000  -0.000000
     4  C   -0.001070  -0.000100   0.000001  -0.000000   0.000040   0.000000
     5  C    0.000918   0.000177   0.000001  -0.000003   0.000001  -0.000000
     6  N   -0.000085   0.000009  -0.000075  -0.000116  -0.000031   0.000005
     7  C   -0.036920  -0.041433   0.004584  -0.004834   0.000584  -0.000140
     8  H    0.004391  -0.001905  -0.000078   0.003611   0.000038  -0.000102
     9  C    0.391049   0.399031  -0.036185  -0.046718  -0.001942   0.004341
    10  C   -0.032980  -0.035390   0.402257   0.397431  -0.039120  -0.038301
    11  C   -0.002256   0.003925  -0.035096  -0.045555   0.399308   0.402211
    12  C    0.000720  -0.000410   0.004372  -0.001119  -0.038220  -0.038696
    13  C   -0.007522   0.004407  -0.000447   0.000054  -0.007600   0.004708
    14  H    0.000106  -0.000067   0.000010  -0.000053   0.000002  -0.000057
    15  N    0.007247   0.000134  -0.000045   0.000024   0.008450   0.000126
    16  C    0.002378  -0.000040   0.000004  -0.000002   0.000119   0.000007
    17  H    0.000011   0.000003  -0.000000   0.000000   0.000000   0.000000
    18  H   -0.000144   0.000502   0.000002  -0.000000   0.000000  -0.000000
    19  H    0.507435  -0.024333  -0.002784   0.003995   0.001541  -0.000068
    20  H   -0.024333   0.538462  -0.002709  -0.002969  -0.000047  -0.000082
    21  H   -0.002784  -0.002709   0.525997  -0.027603  -0.002927  -0.002259
    22  H    0.003995  -0.002969  -0.027603   0.572693   0.004165  -0.003643
    23  H    0.001541  -0.000047  -0.002927   0.004165   0.501490  -0.025651
    24  H   -0.000068  -0.000082  -0.002259  -0.003643  -0.025651   0.539448
    25  H   -0.000027   0.000013  -0.000089  -0.000080  -0.002294  -0.002313
    26  H    0.000020  -0.000031  -0.000080   0.002390   0.004078  -0.003008
    27  H    0.000092   0.000000  -0.000000   0.000000  -0.000033  -0.000000
              25         26         27
     1  O    0.000000  -0.000000   0.002550
     2  N   -0.000000  -0.000000   0.000614
     3  O   -0.000000   0.000000  -0.000055
     4  C    0.000026   0.000005  -0.074505
     5  C   -0.000000  -0.000003   0.002064
     6  N   -0.000092  -0.000051   0.000005
     7  C    0.005067  -0.003971  -0.000403
     8  H   -0.000011   0.001656   0.000009
     9  C   -0.000451   0.000967  -0.000054
    10  C    0.004218  -0.002273   0.000006
    11  C   -0.033643  -0.041276   0.000013
    12  C    0.398209   0.396676  -0.000039
    13  C   -0.035753  -0.046979   0.005344
    14  H   -0.002788  -0.001026  -0.000185
    15  N    0.000415   0.004877  -0.036715
    16  C   -0.000006  -0.000070   0.404780
    17  H   -0.000000   0.000000  -0.000089
    18  H    0.000002   0.000000   0.000001
    19  H   -0.000027   0.000020   0.000092
    20  H    0.000013  -0.000031   0.000000
    21  H   -0.000089  -0.000080  -0.000000
    22  H   -0.000080   0.002390   0.000000
    23  H   -0.002294   0.004078  -0.000033
    24  H   -0.002313  -0.003008  -0.000000
    25  H    0.508751  -0.024238  -0.000013
    26  H   -0.024238   0.561818   0.000001
    27  H   -0.000013   0.000001   0.466513
 Mulliken charges:
               1
     1  O   -0.440390
     2  N    0.442129
     3  O   -0.442254
     4  C    0.054750
     5  C    0.175082
     6  N   -0.785907
     7  C    0.060625
     8  H    0.176162
     9  C   -0.298727
    10  C   -0.327724
    11  C   -0.321341
    12  C   -0.306213
    13  C   -0.044267
    14  H    0.192832
    15  N   -0.504586
    16  C    0.118183
    17  H    0.254769
    18  H    0.397011
    19  H    0.188288
    20  H    0.162855
    21  H    0.173150
    22  H    0.148333
    23  H    0.198049
    24  H    0.163474
    25  H    0.185097
    26  H    0.150518
    27  H    0.230100
 Sum of Mulliken charges =  -0.00000
 Mulliken charges with hydrogens summed into heavy atoms:
               1
     1  O   -0.440390
     2  N    0.442129
     3  O   -0.442254
     4  C    0.054750
     5  C    0.429852
     6  N   -0.388897
     7  C    0.236787
     9  C    0.052416
    10  C   -0.006241
    11  C    0.040182
    12  C    0.029402
    13  C    0.148566
    15  N   -0.504586
    16  C    0.348283
 Electronic spatial extent (au):  <R**2>=           2992.3201
 Charge=             -0.0000 electrons
 Dipole moment (field-independent basis, Debye):
    X=              4.4172    Y=              4.3368    Z=              1.2635  Tot=              6.3179
 Quadrupole moment (field-independent basis, Debye-Ang):
   XX=           -101.9832   YY=            -75.3484   ZZ=            -86.7194
   XY=             -2.2610   XZ=             -0.1120   YZ=              3.3235
 Traceless Quadrupole moment (field-independent basis, Debye-Ang):
   XX=            -13.9662   YY=             12.6686   ZZ=              1.2976
   XY=             -2.2610   XZ=             -0.1120   YZ=              3.3235
 Octapole moment (field-independent basis, Debye-Ang**2):
  XXX=             70.0302  YYY=             29.7213  ZZZ=              2.4451  XYY=            -22.1375
  XXY=             15.8780  XXZ=              4.4771  XZZ=              7.2086  YZZ=              0.4588
  YYZ=              6.5484  XYZ=             -3.5691
 Hexadecapole moment (field-independent basis, Debye-Ang**3):
 XXXX=          -3277.4817 YYYY=           -526.3744 ZZZZ=           -391.0348 XXXY=            -64.3954
 XXXZ=            -12.7676 YYYX=              0.0530 YYYZ=             44.1227 ZZZX=            -10.5744
 ZZZY=             23.2751 XXYY=           -552.8676 XXZZ=           -594.2298 YYZZ=           -159.6700
 XXYZ=             15.8000 YYXZ=              4.9166 ZZXY=             -2.9732
 N-N= 9.298173775263D+02 E-N=-3.406282538984D+03  KE= 6.595949129415D+02
 Unable to Open any file for archive entry.
 1\1\GINC-LOTUS\FOpt\RMP2-FC\6-31G(d)\C9H13N3O2\ALEXEY\30-Jun-2023\0\\#
 MP2/6-31G* SCF=Tight Opt=(ModRedun, MaxCycle=20 ) NoSymm\\MolName:\\0,
 1\O,-3.6322475194,-0.2760584462,-1.2591496231\N,-3.1093943888,-0.25621
 06808,-0.1279005354\O,-3.7238064177,-0.4085151566,0.9456309488\C,-1.66
 83995372,-0.0174031056,-0.0577859648\C,-1.3063644835,1.2668292563,0.22
 1966222\N,-0.0574878785,1.7860299392,0.2707875559\C,1.2017584853,1.052
 5549338,0.2968851339\H,1.8497385767,1.6147711844,0.986186461\C,1.91589
 65476,0.9812312321,-1.0517217987\C,3.3108972848,0.3798757064,-0.845307
 0949\C,3.2548032534,-0.9776152713,-0.1397010545\C,2.4531481386,-0.9093
 894576,1.1616243312\C,1.0451912275,-0.3712195831,0.879816263\H,0.45599
 52901,-0.2959275474,1.8074794049\N,0.4081688073,-1.3258598969,-0.02096
 58149\C,-0.8393231141,-1.1632227138,-0.3297772961\H,-2.0994880362,1.99
 62855694,0.3768306322\H,-0.009104181,2.7547358925,0.5599950879\H,1.323
 5613537,0.3657357714,-1.737636522\H,1.9863198425,1.9853001386,-1.48746
 19246\H,3.8208482082,0.2840092494,-1.8108090366\H,3.9098542522,1.07921
 49221,-0.244583976\H,2.7781328722,-1.7121440728,-0.7965233216\H,4.2716
 822908,-1.3342380599,0.0633858315\H,2.3661585869,-1.9058130731,1.60723
 12601\H,2.9580387368,-0.2646899509,1.8941312556\H,-1.3085681983,-1.965
 2667793,-0.907616425\\Version=ES64L-G16RevC.02\HF=-661.2789851\MP2=-66
 3.3207554\RMSD=9.544e-09\RMSF=1.315e-03\Dipole=1.5970674,1.5542696,0.4
 546574\PG=C01 [X(C9H13N3O2)]\\@
 The archive entry for this job was punched.


 UNLESS WE CHANGE DIRECTIONS, WE WILL WIND UP WHERE WE ARE HEADED.
     -- CONFUCIUS
 Job cpu time:       0 days  1 hours 26 minutes 22.9 seconds.
 Elapsed time:       0 days  0 hours 25 minutes 58.9 seconds.
 File lengths (MBytes):  RWF=     36 Int=      0 D2E=      0 Chk=      7 Scr=      1
 Normal termination of Gaussian 16 at Fri Jun 30 12:05:12 2023.
