 Entering Gaussian System, Link 0=g16
 Initial command:
 /home/alexey/programs//g16/l1.exe "/home/alexey/tmp/Gau-1313679.inp" -scrdir="/home/alexey/tmp/"
 Entering Link 1 = /home/alexey/programs//g16/l1.exe PID=   1313681.
  
 Copyright (c) 1988-2021, Gaussian, Inc.  All Rights Reserved.
  
 This is part of the Gaussian(R) 16 program.  It is based on
 the Gaussian(R) 09 system (copyright 2009, Gaussian, Inc.),
 the Gaussian(R) 03 system (copyright 2003, Gaussian, Inc.),
 the Gaussian(R) 98 system (copyright 1998, Gaussian, Inc.),
 the Gaussian(R) 94 system (copyright 1995, Gaussian, Inc.),
 the Gaussian 92(TM) system (copyright 1992, Gaussian, Inc.),
 the Gaussian 90(TM) system (copyright 1990, Gaussian, Inc.),
 the Gaussian 88(TM) system (copyright 1988, Gaussian, Inc.),
 the Gaussian 86(TM) system (copyright 1986, Carnegie Mellon
 University), and the Gaussian 82(TM) system (copyright 1983,
 Carnegie Mellon University). Gaussian is a federally registered
 trademark of Gaussian, Inc.
  
 This software contains proprietary and confidential information,
 including trade secrets, belonging to Gaussian, Inc.
  
 This software is provided under written license and may be
 used, copied, transmitted, or stored only in accord with that
 written license.
  
 The following legend is applicable only to US Government
 contracts under FAR:
  
                    RESTRICTED RIGHTS LEGEND
  
 Use, reproduction and disclosure by the US Government is
 subject to restrictions as set forth in subparagraphs (a)
 and (c) of the Commercial Computer Software - Restricted
 Rights clause in FAR 52.227-19.
  
 Gaussian, Inc.
 340 Quinnipiac St., Bldg. 40, Wallingford CT 06492
  
  
 ---------------------------------------------------------------
 Warning -- This program may not be used in any manner that
 competes with the business of Gaussian, Inc. or will provide
 assistance to any competitor of Gaussian, Inc.  The licensee
 of this program is prohibited from giving any competitor of
 Gaussian, Inc. access to this program.  By using this program,
 the user acknowledges that Gaussian, Inc. is engaged in the
 business of creating and licensing software in the field of
 computational chemistry and represents and warrants to the
 licensee that it is not a competitor of Gaussian, Inc. and that
 it will not use this program in any manner prohibited above.
 ---------------------------------------------------------------
  

 Cite this work as:
 Gaussian 16, Revision C.02,
 M. J. Frisch, G. W. Trucks, H. B. Schlegel, G. E. Scuseria, 
 M. A. Robb, J. R. Cheeseman, G. Scalmani, V. Barone, 
 G. A. Petersson, H. Nakatsuji, X. Li, M. Caricato, A. V. Marenich, 
 J. Bloino, B. G. Janesko, R. Gomperts, B. Mennucci, H. P. Hratchian, 
 J. V. Ortiz, A. F. Izmaylov, J. L. Sonnenberg, D. Williams-Young, 
 F. Ding, F. Lipparini, F. Egidi, J. Goings, B. Peng, A. Petrone, 
 T. Henderson, D. Ranasinghe, V. G. Zakrzewski, J. Gao, N. Rega, 
 G. Zheng, W. Liang, M. Hada, M. Ehara, K. Toyota, R. Fukuda, 
 J. Hasegawa, M. Ishida, T. Nakajima, Y. Honda, O. Kitao, H. Nakai, 
 T. Vreven, K. Throssell, J. A. Montgomery, Jr., J. E. Peralta, 
 F. Ogliaro, M. J. Bearpark, J. J. Heyd, E. N. Brothers, K. N. Kudin, 
 V. N. Staroverov, T. A. Keith, R. Kobayashi, J. Normand, 
 K. Raghavachari, A. P. Rendell, J. C. Burant, S. S. Iyengar, 
 J. Tomasi, M. Cossi, J. M. Millam, M. Klene, C. Adamo, R. Cammi, 
 J. W. Ochterski, R. L. Martin, K. Morokuma, O. Farkas, 
 J. B. Foresman, and D. J. Fox, Gaussian, Inc., Wallingford CT, 2019.
 
 ******************************************
 Gaussian 16:  ES64L-G16RevC.02  7-Dec-2021
                 1-Jul-2023 
 ******************************************
 %mem=8GB
 %NPROCS=4
 Will use up to    4 processors via shared memory.
 %NoSave
 ---------------------------------------------------------
 #MP2/6-31G* SCF=Tight Opt=(ModRedun, MaxCycle=20 ) NoSymm
 ---------------------------------------------------------
 1/6=20,18=120,19=15,38=1/1,3;
 2/9=110,12=2,15=1,17=6,18=5,40=1/2;
 3/5=1,6=6,7=1,11=9,25=1,30=1,71=1/1,2,3;
 4//1;
 5/5=2,32=2,38=5/2;
 8/6=4,10=2/1;
 9/15=2,16=-3/6;
 10/5=1,31=1/2;
 6/7=2,8=2,9=2,10=2/1;
 7/12=2,30=1/1,2,3,16;
 1/6=20,18=20,19=15/3(2);
 2/9=110,15=1/2;
 99//99;
 2/9=110,15=1/2;
 3/5=1,6=6,7=1,11=9,25=1,30=1,71=1/1,2,3;
 4/5=5,16=3,69=1/1;
 5/5=2,32=2,38=5/2;
 8/6=4,10=2/1;
 9/15=2,16=-3/6;
 10/5=1,31=1/2;
 7/12=2,30=1/1,2,3,16;
 1/6=20,18=20,19=15/3(-8);
 2/9=110,15=1/2;
 6/7=2,8=2,9=2,10=2/1;
 99/9=10/99;
 --------
 MolName:
 --------
 Symbolic Z-matrix:
 Charge =  0 Multiplicity = 1
 8                    0    -3.60077  -1.47439  -0.18099 
 7                    0    -3.23736  -0.30968  -0.01986 
 8                    0    -4.019     0.62817   0.1432 
 6                    0    -1.73316  -0.01247  -0.05208 
 6                    0    -1.3594    1.30092   0.27046 
 7                    0    -0.07727   1.77338   0.3924 
 6                    0     1.20327   1.00585   0.36063 
 1                    0     1.86781   1.50174   1.11486 
 6                    0     1.96866   1.05191  -0.98525 
 6                    0     3.37543   0.45363  -0.79431 
 6                    0     3.30038  -0.96211  -0.20071 
 6                    0     2.44995  -0.98971   1.0879 
 6                    0     1.01832  -0.4395    0.84211 
 1                    0     0.46858  -0.47625   1.81185 
 7                    0     0.35594  -1.29607  -0.14413 
 6                    0    -0.88394  -1.07494  -0.44455 
 1                    0    -2.15533   2.02918   0.49815 
 1                    0     0.1464    2.757     0.22292 
 1                    0     1.41577   0.48112  -1.76126 
 1                    0     2.06384   2.10172  -1.33528 
 1                    0     3.91135   0.42569  -1.76824 
 1                    0     3.95699   1.10212  -0.10155 
 1                    0     2.84822  -1.64699  -0.95321 
 1                    0     4.32484  -1.33505   0.01746 
 1                    0     2.3811   -2.03608   1.45814 
 1                    0     2.94932  -0.38477   1.87355 
 1                    0    -1.37893  -1.81142  -1.0962 
 
 The following ModRedundant input section has been read:
 B       4      16 F                                                           
 D       1       2       4      16 F                                           
 D       7      13      15      16 F                                           
 D       7       9      10      11 F                                           
 D       9      10      11      12 F                                           
 D       6       7      13      15 F                                           
 

 GradGradGradGradGradGradGradGradGradGradGradGradGradGradGradGradGradGrad
 Berny optimization.
 Initialization pass.
                           ----------------------------
                           !    Initial Parameters    !
                           ! (Angstroms and Degrees)  !
 --------------------------                            --------------------------
 ! Name  Definition              Value          Derivative Info.                !
 --------------------------------------------------------------------------------
 ! R1    R(1,2)                  1.2307         estimate D2E/DX2                !
 ! R2    R(2,3)                  1.2317         estimate D2E/DX2                !
 ! R3    R(2,4)                  1.5336         estimate D2E/DX2                !
 ! R4    R(4,5)                  1.4031         estimate D2E/DX2                !
 ! R5    R(4,16)                 1.4156         Frozen                          !
 ! R6    R(5,6)                  1.3718         estimate D2E/DX2                !
 ! R7    R(5,17)                 1.1026         estimate D2E/DX2                !
 ! R8    R(6,7)                  1.4933         estimate D2E/DX2                !
 ! R9    R(6,18)                 1.0229         estimate D2E/DX2                !
 ! R10   R(7,8)                  1.1209         estimate D2E/DX2                !
 ! R11   R(7,9)                  1.549          estimate D2E/DX2                !
 ! R12   R(7,13)                 1.5346         estimate D2E/DX2                !
 ! R13   R(9,10)                 1.5406         estimate D2E/DX2                !
 ! R14   R(9,19)                 1.1107         estimate D2E/DX2                !
 ! R15   R(9,20)                 1.1107         estimate D2E/DX2                !
 ! R16   R(10,11)                1.537          estimate D2E/DX2                !
 ! R17   R(10,21)                1.112          estimate D2E/DX2                !
 ! R18   R(10,22)                1.113          estimate D2E/DX2                !
 ! R19   R(11,12)                1.5442         estimate D2E/DX2                !
 ! R20   R(11,23)                1.1134         estimate D2E/DX2                !
 ! R21   R(11,24)                1.1118         estimate D2E/DX2                !
 ! R22   R(12,13)                1.5533         estimate D2E/DX2                !
 ! R23   R(12,25)                1.1121         estimate D2E/DX2                !
 ! R24   R(12,26)                1.1102         estimate D2E/DX2                !
 ! R25   R(13,14)                1.1153         estimate D2E/DX2                !
 ! R26   R(13,15)                1.4646         estimate D2E/DX2                !
 ! R27   R(15,16)                1.2948         estimate D2E/DX2                !
 ! R28   R(16,27)                1.1009         estimate D2E/DX2                !
 ! A1    A(1,2,3)              123.4044         estimate D2E/DX2                !
 ! A2    A(1,2,4)              118.0527         estimate D2E/DX2                !
 ! A3    A(3,2,4)              118.5316         estimate D2E/DX2                !
 ! A4    A(2,4,5)              115.9664         estimate D2E/DX2                !
 ! A5    A(2,4,16)             116.6636         estimate D2E/DX2                !
 ! A6    A(5,4,16)             127.3341         estimate D2E/DX2                !
 ! A7    A(4,5,6)              126.2827         estimate D2E/DX2                !
 ! A8    A(4,5,17)             118.2579         estimate D2E/DX2                !
 ! A9    A(6,5,17)             115.3937         estimate D2E/DX2                !
 ! A10   A(5,6,7)              128.5024         estimate D2E/DX2                !
 ! A11   A(5,6,18)             121.3876         estimate D2E/DX2                !
 ! A12   A(7,6,18)             107.6514         estimate D2E/DX2                !
 ! A13   A(6,7,8)              105.4678         estimate D2E/DX2                !
 ! A14   A(6,7,9)              115.2729         estimate D2E/DX2                !
 ! A15   A(6,7,13)             111.9665         estimate D2E/DX2                !
 ! A16   A(8,7,9)              106.1738         estimate D2E/DX2                !
 ! A17   A(8,7,13)             106.0818         estimate D2E/DX2                !
 ! A18   A(9,7,13)             111.1103         estimate D2E/DX2                !
 ! A19   A(7,9,10)             109.3883         estimate D2E/DX2                !
 ! A20   A(7,9,19)             110.231          estimate D2E/DX2                !
 ! A21   A(7,9,20)             110.1371         estimate D2E/DX2                !
 ! A22   A(10,9,19)            109.9723         estimate D2E/DX2                !
 ! A23   A(10,9,20)            109.139          estimate D2E/DX2                !
 ! A24   A(19,9,20)            107.9507         estimate D2E/DX2                !
 ! A25   A(9,10,11)            111.1611         estimate D2E/DX2                !
 ! A26   A(9,10,21)            109.9555         estimate D2E/DX2                !
 ! A27   A(9,10,22)            109.1485         estimate D2E/DX2                !
 ! A28   A(11,10,21)           109.7946         estimate D2E/DX2                !
 ! A29   A(11,10,22)           108.7735         estimate D2E/DX2                !
 ! A30   A(21,10,22)           107.9372         estimate D2E/DX2                !
 ! A31   A(10,11,12)           111.4473         estimate D2E/DX2                !
 ! A32   A(10,11,23)           108.9894         estimate D2E/DX2                !
 ! A33   A(10,11,24)           109.8621         estimate D2E/DX2                !
 ! A34   A(12,11,23)           109.2283         estimate D2E/DX2                !
 ! A35   A(12,11,24)           109.737          estimate D2E/DX2                !
 ! A36   A(23,11,24)           107.4857         estimate D2E/DX2                !
 ! A37   A(11,12,13)           111.6672         estimate D2E/DX2                !
 ! A38   A(11,12,25)           109.1923         estimate D2E/DX2                !
 ! A39   A(11,12,26)           109.4558         estimate D2E/DX2                !
 ! A40   A(13,12,25)           109.2029         estimate D2E/DX2                !
 ! A41   A(13,12,26)           109.4835         estimate D2E/DX2                !
 ! A42   A(25,12,26)           107.7547         estimate D2E/DX2                !
 ! A43   A(7,13,12)            105.7943         estimate D2E/DX2                !
 ! A44   A(7,13,14)            111.2985         estimate D2E/DX2                !
 ! A45   A(7,13,15)            113.207          estimate D2E/DX2                !
 ! A46   A(12,13,14)           107.7603         estimate D2E/DX2                !
 ! A47   A(12,13,15)           108.4345         estimate D2E/DX2                !
 ! A48   A(14,13,15)           110.0775         estimate D2E/DX2                !
 ! A49   A(13,15,16)           119.3033         estimate D2E/DX2                !
 ! A50   A(4,16,15)            129.6651         estimate D2E/DX2                !
 ! A51   A(4,16,27)            113.3566         estimate D2E/DX2                !
 ! A52   A(15,16,27)           116.9769         estimate D2E/DX2                !
 ! D1    D(1,2,4,5)           -173.758          estimate D2E/DX2                !
 ! D2    D(1,2,4,16)             8.2593         Frozen                          !
 ! D3    D(3,2,4,5)              7.418          estimate D2E/DX2                !
 ! D4    D(3,2,4,16)          -170.5647         estimate D2E/DX2                !
 ! D5    D(2,4,5,6)            175.4528         estimate D2E/DX2                !
 ! D6    D(2,4,5,17)            -1.45           estimate D2E/DX2                !
 ! D7    D(16,4,5,6)            -6.8147         estimate D2E/DX2                !
 ! D8    D(16,4,5,17)          176.2825         estimate D2E/DX2                !
 ! D9    D(2,4,16,15)         -153.3457         estimate D2E/DX2                !
 ! D10   D(2,4,16,27)           26.206          estimate D2E/DX2                !
 ! D11   D(5,4,16,15)           28.9355         estimate D2E/DX2                !
 ! D12   D(5,4,16,27)         -151.5129         estimate D2E/DX2                !
 ! D13   D(4,5,6,7)             -7.1148         estimate D2E/DX2                !
 ! D14   D(4,5,6,18)           152.8079         estimate D2E/DX2                !
 ! D15   D(17,5,6,7)           169.8654         estimate D2E/DX2                !
 ! D16   D(17,5,6,18)          -30.2118         estimate D2E/DX2                !
 ! D17   D(5,6,7,8)           -142.7339         estimate D2E/DX2                !
 ! D18   D(5,6,7,9)            100.5059         estimate D2E/DX2                !
 ! D19   D(5,6,7,13)           -27.8024         estimate D2E/DX2                !
 ! D20   D(18,6,7,8)            55.1766         estimate D2E/DX2                !
 ! D21   D(18,6,7,9)           -61.5836         estimate D2E/DX2                !
 ! D22   D(18,6,7,13)          170.1081         estimate D2E/DX2                !
 ! D23   D(6,7,9,10)           169.3428         estimate D2E/DX2                !
 ! D24   D(6,7,9,19)           -69.619          estimate D2E/DX2                !
 ! D25   D(6,7,9,20)            49.3926         estimate D2E/DX2                !
 ! D26   D(8,7,9,10)            52.9828         estimate D2E/DX2                !
 ! D27   D(8,7,9,19)           174.021          estimate D2E/DX2                !
 ! D28   D(8,7,9,20)           -66.9674         estimate D2E/DX2                !
 ! D29   D(13,7,9,10)          -61.9243         estimate D2E/DX2                !
 ! D30   D(13,7,9,19)           59.1139         estimate D2E/DX2                !
 ! D31   D(13,7,9,20)          178.1255         estimate D2E/DX2                !
 ! D32   D(6,7,13,12)         -166.369          estimate D2E/DX2                !
 ! D33   D(6,7,13,14)          -49.5921         estimate D2E/DX2                !
 ! D34   D(6,7,13,15)           75.0217         Frozen                          !
 ! D35   D(8,7,13,12)          -51.8139         estimate D2E/DX2                !
 ! D36   D(8,7,13,14)           64.963          estimate D2E/DX2                !
 ! D37   D(8,7,13,15)         -170.4232         estimate D2E/DX2                !
 ! D38   D(9,7,13,12)           63.1504         estimate D2E/DX2                !
 ! D39   D(9,7,13,14)          179.9273         estimate D2E/DX2                !
 ! D40   D(9,7,13,15)          -55.4589         estimate D2E/DX2                !
 ! D41   D(7,9,10,11)           54.812          Frozen                          !
 ! D42   D(7,9,10,21)          176.6069         estimate D2E/DX2                !
 ! D43   D(7,9,10,22)          -65.1696         estimate D2E/DX2                !
 ! D44   D(19,9,10,11)         -66.3831         estimate D2E/DX2                !
 ! D45   D(19,9,10,21)          55.4119         estimate D2E/DX2                !
 ! D46   D(19,9,10,22)         173.6354         estimate D2E/DX2                !
 ! D47   D(20,9,10,11)         175.3728         estimate D2E/DX2                !
 ! D48   D(20,9,10,21)         -62.8323         estimate D2E/DX2                !
 ! D49   D(20,9,10,22)          55.3912         estimate D2E/DX2                !
 ! D50   D(9,10,11,12)         -52.8221         Frozen                          !
 ! D51   D(9,10,11,23)          67.801          estimate D2E/DX2                !
 ! D52   D(9,10,11,24)        -174.6717         estimate D2E/DX2                !
 ! D53   D(21,10,11,12)       -174.7107         estimate D2E/DX2                !
 ! D54   D(21,10,11,23)        -54.0876         estimate D2E/DX2                !
 ! D55   D(21,10,11,24)         63.4397         estimate D2E/DX2                !
 ! D56   D(22,10,11,12)         67.3817         estimate D2E/DX2                !
 ! D57   D(22,10,11,23)       -171.9952         estimate D2E/DX2                !
 ! D58   D(22,10,11,24)        -54.4679         estimate D2E/DX2                !
 ! D59   D(10,11,12,13)         56.5023         estimate D2E/DX2                !
 ! D60   D(10,11,12,25)        177.3688         estimate D2E/DX2                !
 ! D61   D(10,11,12,26)        -64.8949         estimate D2E/DX2                !
 ! D62   D(23,11,12,13)        -63.9805         estimate D2E/DX2                !
 ! D63   D(23,11,12,25)         56.8859         estimate D2E/DX2                !
 ! D64   D(23,11,12,26)        174.6223         estimate D2E/DX2                !
 ! D65   D(24,11,12,13)        178.4243         estimate D2E/DX2                !
 ! D66   D(24,11,12,25)        -60.7092         estimate D2E/DX2                !
 ! D67   D(24,11,12,26)         57.0271         estimate D2E/DX2                !
 ! D68   D(11,12,13,7)         -60.119          estimate D2E/DX2                !
 ! D69   D(11,12,13,14)       -179.2606         estimate D2E/DX2                !
 ! D70   D(11,12,13,15)         61.6134         estimate D2E/DX2                !
 ! D71   D(25,12,13,7)         179.0208         estimate D2E/DX2                !
 ! D72   D(25,12,13,14)         59.8792         estimate D2E/DX2                !
 ! D73   D(25,12,13,15)        -59.2469         estimate D2E/DX2                !
 ! D74   D(26,12,13,7)          61.2622         estimate D2E/DX2                !
 ! D75   D(26,12,13,14)        -57.8794         estimate D2E/DX2                !
 ! D76   D(26,12,13,15)       -177.0055         estimate D2E/DX2                !
 ! D77   D(7,13,15,16)         -67.16           Frozen                          !
 ! D78   D(12,13,15,16)        175.7702         estimate D2E/DX2                !
 ! D79   D(14,13,15,16)         58.1136         estimate D2E/DX2                !
 ! D80   D(13,15,16,4)           6.6837         estimate D2E/DX2                !
 ! D81   D(13,15,16,27)       -172.8545         estimate D2E/DX2                !
 --------------------------------------------------------------------------------
 Trust Radius=3.00D-01 FncErr=1.00D-07 GrdErr=1.00D-07 EigMax=2.50D+02 EigMin=1.00D-04
 Number of steps in this run=     20 maximum allowed number of steps=    162.
 GradGradGradGradGradGradGradGradGradGradGradGradGradGradGradGradGradGrad

                          Input orientation:                          
 ---------------------------------------------------------------------
 Center     Atomic      Atomic             Coordinates (Angstroms)
 Number     Number       Type             X           Y           Z
 ---------------------------------------------------------------------
      1          8           0       -3.600770   -1.474390   -0.180990
      2          7           0       -3.237360   -0.309680   -0.019860
      3          8           0       -4.019000    0.628170    0.143200
      4          6           0       -1.733160   -0.012470   -0.052080
      5          6           0       -1.359400    1.300920    0.270460
      6          7           0       -0.077270    1.773380    0.392400
      7          6           0        1.203270    1.005850    0.360630
      8          1           0        1.867810    1.501740    1.114860
      9          6           0        1.968660    1.051910   -0.985250
     10          6           0        3.375430    0.453630   -0.794310
     11          6           0        3.300380   -0.962110   -0.200710
     12          6           0        2.449950   -0.989710    1.087900
     13          6           0        1.018320   -0.439500    0.842110
     14          1           0        0.468580   -0.476250    1.811850
     15          7           0        0.355940   -1.296070   -0.144130
     16          6           0       -0.883940   -1.074940   -0.444550
     17          1           0       -2.155330    2.029180    0.498150
     18          1           0        0.146400    2.757000    0.222920
     19          1           0        1.415770    0.481120   -1.761260
     20          1           0        2.063840    2.101720   -1.335280
     21          1           0        3.911350    0.425690   -1.768240
     22          1           0        3.956990    1.102120   -0.101550
     23          1           0        2.848220   -1.646990   -0.953210
     24          1           0        4.324840   -1.335050    0.017460
     25          1           0        2.381100   -2.036080    1.458140
     26          1           0        2.949320   -0.384770    1.873550
     27          1           0       -1.378930   -1.811420   -1.096200
 ---------------------------------------------------------------------
                    Distance matrix (angstroms):
                    1          2          3          4          5
     1  O    0.000000
     2  N    1.230682   0.000000
     3  O    2.168127   1.231711   0.000000
     4  C    2.375246   1.533620   2.381936   0.000000
     5  C    3.595816   2.490994   2.746318   1.403111   0.000000
     6  N    4.826162   3.807265   4.112279   2.475640   1.371840
     7  C    5.433576   4.646998   5.240422   3.135271   2.581177
     8  H    6.359398   5.534582   6.030073   4.076955   3.341889
     9  C    6.168272   5.467042   6.107784   3.963229   3.565781
    10  C    7.263662   6.701597   7.455668   5.183227   4.926485
    11  C    6.920166   6.572702   7.498039   5.124493   5.201620
    12  C    6.201307   5.833958   6.734783   4.444430   4.519551
    13  C    4.842904   4.344037   5.196440   2.924478   3.001566
    14  H    4.639753   4.137257   4.913503   2.921812   2.979216
    15  N    3.960898   3.728299   4.788043   2.453659   3.139846
    16  C    2.758657   2.510890   3.615886   1.415645   2.526264
    17  H    3.850394   2.628572   2.358407   2.156227   1.102592
    18  H    5.666488   4.573106   4.678550   3.358323   2.095200
    19  H    5.611323   5.030851   5.760670   3.616723   3.535750
    20  H    6.797702   5.970586   6.431034   4.531403   3.865004
    21  H    7.909590   7.396057   8.159966   5.915884   5.718665
    22  H    7.985265   7.332020   7.993807   5.798497   5.333096
    23  H    6.497352   6.300304   7.316910   4.946992   5.281251
    24  H    7.929319   7.631490   8.572614   6.201082   6.270800
    25  H    6.227761   6.060696   7.056102   4.827307   5.151455
    26  H    6.950690   6.470367   7.251044   5.076640   4.896582
    27  H    2.426473   2.620590   3.802326   2.109949   3.399235
                    6          7          8          9         10
     6  N    0.000000
     7  C    1.493283   0.000000
     8  H    2.092623   1.120885   0.000000
     9  C    2.569877   1.548979   2.150112   0.000000
    10  C    3.882159   2.521331   2.648846   1.540584   0.000000
    11  C    4.386708   2.930160   3.139035   2.538751   1.536982
    12  C    3.808573   2.462802   2.558698   2.949204   2.546067
    13  C    2.509859   1.534622   2.136455   2.542970   3.005249
    14  H    2.715442   2.200552   2.521128   3.522681   4.013293
    15  N    3.145959   2.504314   3.420314   2.970077   3.549860
    16  C    3.076382   3.055233   4.079604   3.599052   4.538842
    17  H    2.096414   3.513732   4.104166   4.490304   5.894244
    18  H    1.022869   2.049991   2.309651   2.772659   4.094741
    19  H    2.921875   2.196114   3.085137   1.110712   2.185410
    20  H    2.770747   2.194908   2.530136   1.110712   2.174653
    21  H    4.732201   3.493189   3.694077   2.186154   1.111994
    22  H    4.119445   2.793896   2.450311   2.176443   1.112955
    23  H    4.697668   3.386679   3.892636   2.838787   2.171590
    24  H    5.401989   3.916858   3.910072   3.500656   2.181680
    25  H    4.657400   3.441678   3.591306   3.959286   3.501554
    26  H    4.001458   2.696561   2.303084   3.346413   2.828774
    27  H    4.094025   4.089880   5.138787   4.406510   5.274991
                   11         12         13         14         15
    11  C    0.000000
    12  C    1.544185   0.000000
    13  C    2.562888   1.553289   0.000000
    14  H    3.507927   2.171076   1.115330   0.000000
    15  N    2.963859   2.448802   1.464626   2.123829   0.000000
    16  C    4.192937   3.670217   2.382828   2.697977   1.294779
    17  H    6.261070   5.538060   4.035436   3.858483   4.216194
    18  H    4.894776   4.482451   3.370646   3.616961   4.075047
    19  H    2.840772   3.369062   2.789811   3.818487   2.626167
    20  H    3.493327   3.946875   3.505986   4.369807   3.985064
    21  H    2.180923   3.506648   3.991504   5.048089   4.271198
    22  H    2.168413   2.839316   3.450053   4.280345   4.326741
    23  H    1.113448   2.181001   2.833680   3.831302   2.643712
    24  H    1.111846   2.186393   3.523511   4.339137   3.972379
    25  H    2.179512   1.112074   2.187631   2.493173   2.686291
    26  H    2.181541   1.110211   2.189892   2.483193   3.409856
    27  H    4.839336   4.483952   3.374317   3.694960   2.044944
                   16         17         18         19         20
    16  C    0.000000
    17  H    3.484347   0.000000
    18  H    4.023789   2.429698   0.000000
    19  H    3.073063   4.500464   3.275347   0.000000
    20  H    4.424249   4.600883   2.556160   1.796607   0.000000
    21  H    5.196042   6.671755   4.855365   2.496205   2.531763
    22  H    5.319008   6.211243   4.167074   3.098076   2.470892
    23  H    3.809855   6.376220   5.298891   2.689556   3.848903
    24  H    5.235695   7.317220   5.852046   3.863290   4.330521
    25  H    3.899296   6.166613   5.430771   4.199130   5.002523
    26  H    4.532527   5.811741   4.522351   4.038983   4.154912
    27  H    1.100939   4.230243   4.993713   3.675377   5.217518
                   21         22         23         24         25
    21  H    0.000000
    22  H    1.799304   0.000000
    23  H    2.467898   3.084202   0.000000
    24  H    2.541634   2.467646   1.794412   0.000000
    25  H    4.337223   3.842442   2.486805   2.518954   0.000000
    26  H    3.852919   2.669693   3.097417   2.498031   1.795067
    27  H    5.783024   6.160364   4.232763   5.830966   4.551148
                   26         27
    26  H    0.000000
    27  H    5.439531   0.000000
 Symmetry turned off by external request.
 Stoichiometry    C9H13N3O2
 Framework group  C1[X(C9H13N3O2)]
 Deg. of freedom    75
 Full point group                 C1      NOp   1
 Rotational constants (GHZ):           1.6831174           0.4027828           0.3576757
 Standard basis: 6-31G(d) (6D, 7F)
   236 basis functions,   444 primitive gaussians,   236 cartesian basis functions
    52 alpha electrons       52 beta electrons
       nuclear repulsion energy       920.0352389853 Hartrees.
 NAtoms=   27 NActive=   27 NUniq=   27 SFac= 1.00D+00 NAtFMM=   60 NAOKFM=F Big=F
 Integral buffers will be    131072 words long.
 Raffenetti 1 integral format.
 Two-electron integral symmetry is turned off.
 One-electron integrals computed using PRISM.
 NBasis=   236 RedAO= T EigKep=  1.16D-03  NBF=   236
 NBsUse=   236 1.00D-06 EigRej= -1.00D+00 NBFU=   236
 ExpMin= 1.61D-01 ExpMax= 5.48D+03 ExpMxC= 8.25D+02 IAcc=3 IRadAn=         5 AccDes= 0.00D+00
 Harris functional with IExCor=  205 and IRadAn=       5 diagonalized for initial guess.
 HarFok:  IExCor=  205 AccDes= 0.00D+00 IRadAn=         5 IDoV= 1 UseB2=F ITyADJ=14
 ICtDFT=  3500011 ScaDFX=  1.000000  1.000000  1.000000  1.000000
 FoFCou: FMM=F IPFlag=           0 FMFlag=      100000 FMFlg1=           0
         NFxFlg=           0 DoJE=T BraDBF=F KetDBF=T FulRan=T
         wScrn=  0.000000 ICntrl=       500 IOpCl=  0 I1Cent=   200000004 NGrid=           0
         NMat0=    1 NMatS0=      1 NMatT0=    0 NMatD0=    1 NMtDS0=    0 NMtDT0=    0
 Symmetry not used in FoFCou.
 Keep R1 ints in memory in canonical form, NReq=397720213.
 Requested convergence on RMS density matrix=1.00D-08 within 128 cycles.
 Requested convergence on MAX density matrix=1.00D-06.
 Requested convergence on             energy=1.00D-06.
 No special actions if energy rises.
 SCF Done:  E(RHF) =  -661.279103266     A.U. after   16 cycles
            NFock= 16  Conv=0.80D-08     -V/T= 2.0035
 ExpMin= 1.61D-01 ExpMax= 5.48D+03 ExpMxC= 8.25D+02 IAcc=3 IRadAn=         5 AccDes= 0.00D+00
 HarFok:  IExCor=  205 AccDes= 0.00D+00 IRadAn=         5 IDoV=-2 UseB2=F ITyADJ=14
 ICtDFT= 12500011 ScaDFX=  1.000000  1.000000  1.000000  1.000000
 Range of M.O.s used for correlation:    15   236
 NBasis=   236 NAE=    52 NBE=    52 NFC=    14 NFV=     0
 NROrb=    222 NOA=    38 NOB=    38 NVA=   184 NVB=   184
 Fully direct method using O(ONN) memory.
 JobTyp=1 Pass  1:  I=  15 to  52 NPSUse=  4 ParTrn=T ParDer=T DoDerP=T.
 Spin components of T(2) and E(2):
     alpha-alpha T2 =       0.9212162783D-01 E2=     -0.2722787750D+00
     alpha-beta  T2 =       0.4993079891D+00 E2=     -0.1493976972D+01
     beta-beta   T2 =       0.9212162783D-01 E2=     -0.2722787750D+00
 ANorm=    0.1297517339D+01
 E2 =    -0.2038534522D+01 EUMP2 =    -0.66331763778790D+03
          IDoAtm=111111111111111111111111111
          Differentiating once with respect to electric field.
                with respect to dipole field.
          Differentiating once with respect to nuclear coordinates.
 Keep R1 ints in memory in canonical form, NReq=397723379.
          There are     1 degrees of freedom in the 1st order CPHF.  IDoFFX=0 NUNeed=     1.
 LinEq1:  Iter=  0 NonCon=     1 RMS=4.64D-03 Max=1.10D-01 NDo=     1
 AX will form     1 AO Fock derivatives at one time.
 LinEq1:  Iter=  1 NonCon=     1 RMS=1.58D-03 Max=2.87D-02 NDo=     1
 LinEq1:  Iter=  2 NonCon=     1 RMS=6.49D-04 Max=1.72D-02 NDo=     1
 LinEq1:  Iter=  3 NonCon=     1 RMS=2.98D-04 Max=9.36D-03 NDo=     1
 LinEq1:  Iter=  4 NonCon=     1 RMS=9.27D-05 Max=2.43D-03 NDo=     1
 LinEq1:  Iter=  5 NonCon=     1 RMS=3.81D-05 Max=1.82D-03 NDo=     1
 LinEq1:  Iter=  6 NonCon=     1 RMS=1.56D-05 Max=6.06D-04 NDo=     1
 LinEq1:  Iter=  7 NonCon=     1 RMS=5.95D-06 Max=8.25D-05 NDo=     1
 LinEq1:  Iter=  8 NonCon=     1 RMS=2.32D-06 Max=5.61D-05 NDo=     1
 LinEq1:  Iter=  9 NonCon=     1 RMS=8.01D-07 Max=2.35D-05 NDo=     1
 LinEq1:  Iter= 10 NonCon=     1 RMS=3.92D-07 Max=1.45D-05 NDo=     1
 LinEq1:  Iter= 11 NonCon=     1 RMS=1.53D-07 Max=5.51D-06 NDo=     1
 LinEq1:  Iter= 12 NonCon=     1 RMS=5.47D-08 Max=8.51D-07 NDo=     1
 LinEq1:  Iter= 13 NonCon=     1 RMS=1.75D-08 Max=3.40D-07 NDo=     1
 LinEq1:  Iter= 14 NonCon=     1 RMS=5.54D-09 Max=1.43D-07 NDo=     1
 LinEq1:  Iter= 15 NonCon=     1 RMS=2.00D-09 Max=5.45D-08 NDo=     1
 LinEq1:  Iter= 16 NonCon=     1 RMS=7.64D-10 Max=1.47D-08 NDo=     1
 LinEq1:  Iter= 17 NonCon=     1 RMS=2.62D-10 Max=4.31D-09 NDo=     1
 LinEq1:  Iter= 18 NonCon=     1 RMS=8.95D-11 Max=1.04D-09 NDo=     1
 LinEq1:  Iter= 19 NonCon=     0 RMS=2.98D-11 Max=4.52D-10 NDo=     1
 Linear equations converged to 1.000D-10 1.000D-09 after    19 iterations.
 End of Minotr F.D. properties file   721 does not exist.
 End of Minotr F.D. properties file   722 does not exist.
 End of Minotr F.D. properties file   788 does not exist.

 **********************************************************************

            Population analysis using the SCF Density.

 **********************************************************************

 Alpha  occ. eigenvalues --  -20.59964 -20.59505 -15.85332 -15.63597 -15.56433
 Alpha  occ. eigenvalues --  -11.36135 -11.30024 -11.29812 -11.29606 -11.27515
 Alpha  occ. eigenvalues --  -11.24616 -11.23843 -11.23299 -11.22775  -1.58541
 Alpha  occ. eigenvalues --   -1.38017  -1.28850  -1.22670  -1.13651  -1.08539
 Alpha  occ. eigenvalues --   -1.01800  -1.00586  -0.93806  -0.89670  -0.84933
 Alpha  occ. eigenvalues --   -0.81842  -0.78055  -0.77194  -0.74494  -0.71402
 Alpha  occ. eigenvalues --   -0.70400  -0.69802  -0.67459  -0.64410  -0.63185
 Alpha  occ. eigenvalues --   -0.61637  -0.60597  -0.57439  -0.56430  -0.54811
 Alpha  occ. eigenvalues --   -0.53591  -0.50706  -0.49622  -0.48540  -0.47800
 Alpha  occ. eigenvalues --   -0.47641  -0.46105  -0.45699  -0.44059  -0.42195
 Alpha  occ. eigenvalues --   -0.39833  -0.33552
 Alpha virt. eigenvalues --    0.07132   0.11530   0.18138   0.21373   0.23327
 Alpha virt. eigenvalues --    0.24288   0.26485   0.27965   0.28569   0.28888
 Alpha virt. eigenvalues --    0.30020   0.31211   0.31846   0.32342   0.33415
 Alpha virt. eigenvalues --    0.33827   0.34260   0.35629   0.37766   0.39184
 Alpha virt. eigenvalues --    0.40671   0.42177   0.44483   0.45325   0.45787
 Alpha virt. eigenvalues --    0.46696   0.49878   0.53449   0.57907   0.59445
 Alpha virt. eigenvalues --    0.63238   0.69225   0.69680   0.72234   0.74157
 Alpha virt. eigenvalues --    0.74790   0.75639   0.75983   0.77992   0.79299
 Alpha virt. eigenvalues --    0.80697   0.83573   0.85262   0.85611   0.88042
 Alpha virt. eigenvalues --    0.89205   0.90177   0.91079   0.91823   0.94027
 Alpha virt. eigenvalues --    0.95283   0.97236   0.99339   1.00494   1.02118
 Alpha virt. eigenvalues --    1.02562   1.05214   1.06490   1.06981   1.08673
 Alpha virt. eigenvalues --    1.09511   1.10519   1.11261   1.12061   1.13295
 Alpha virt. eigenvalues --    1.13835   1.14222   1.15470   1.16418   1.17381
 Alpha virt. eigenvalues --    1.17975   1.20024   1.21485   1.22247   1.23381
 Alpha virt. eigenvalues --    1.23998   1.24556   1.25849   1.27545   1.28114
 Alpha virt. eigenvalues --    1.29676   1.31192   1.32942   1.36072   1.39989
 Alpha virt. eigenvalues --    1.42789   1.45829   1.47508   1.48914   1.52893
 Alpha virt. eigenvalues --    1.54746   1.55361   1.60653   1.61847   1.65713
 Alpha virt. eigenvalues --    1.68690   1.70210   1.72972   1.73787   1.77538
 Alpha virt. eigenvalues --    1.78021   1.80792   1.84547   1.89364   1.92516
 Alpha virt. eigenvalues --    1.94397   1.96606   1.97357   1.98852   2.01550
 Alpha virt. eigenvalues --    2.03246   2.03704   2.06791   2.09077   2.12005
 Alpha virt. eigenvalues --    2.13449   2.14443   2.18474   2.18934   2.19693
 Alpha virt. eigenvalues --    2.20866   2.22110   2.24220   2.24970   2.26884
 Alpha virt. eigenvalues --    2.28992   2.32671   2.34051   2.35655   2.36935
 Alpha virt. eigenvalues --    2.38477   2.40142   2.41882   2.43406   2.46670
 Alpha virt. eigenvalues --    2.49265   2.50744   2.51526   2.57237   2.57901
 Alpha virt. eigenvalues --    2.60952   2.63103   2.66311   2.68768   2.68959
 Alpha virt. eigenvalues --    2.69983   2.70551   2.74956   2.77934   2.80903
 Alpha virt. eigenvalues --    2.85599   2.87620   2.90304   2.92271   2.96391
 Alpha virt. eigenvalues --    2.97874   2.98618   3.02146   3.04662   3.06164
 Alpha virt. eigenvalues --    3.07196   3.13084   3.19326   3.22873   3.27248
 Alpha virt. eigenvalues --    3.30813   3.34358   3.37730   3.45383   3.62974
 Alpha virt. eigenvalues --    4.10092   4.23327   4.32082   4.36616   4.43697
 Alpha virt. eigenvalues --    4.53956   4.59966   4.61286   4.70949   4.77914
 Alpha virt. eigenvalues --    4.97445   4.99345   5.03118   5.10264
          Condensed to atoms (all electrons):
               1          2          3          4          5          6
     1  O    8.296455   0.316006  -0.090873  -0.079618   0.003457  -0.000012
     2  N    0.316006   5.690520   0.305966   0.267516  -0.044834   0.000856
     3  O   -0.090873   0.305966   8.332040  -0.086762   0.007255   0.000468
     4  C   -0.079618   0.267516  -0.086762   5.234552   0.561843  -0.047774
     5  C    0.003457  -0.044834   0.007255   0.561843   4.677978   0.311009
     6  N   -0.000012   0.000856   0.000468  -0.047774   0.311009   7.186194
     7  C    0.000003  -0.000093   0.000002   0.004108  -0.030410   0.198002
     8  H   -0.000000   0.000002  -0.000000  -0.000197   0.002481  -0.049947
     9  C   -0.000000  -0.000003   0.000000   0.000537   0.001631  -0.055733
    10  C   -0.000000   0.000000  -0.000000  -0.000022  -0.000061   0.003293
    11  C   -0.000000  -0.000000  -0.000000  -0.000014   0.000015  -0.000154
    12  C   -0.000000   0.000002  -0.000000  -0.000138  -0.000128   0.003687
    13  C   -0.000020  -0.000048  -0.000003  -0.010507   0.000340  -0.046304
    14  H   -0.000003  -0.000048   0.000000   0.003242   0.005279  -0.005997
    15  N    0.000137   0.001824  -0.000017  -0.063482  -0.004846   0.001945
    16  C    0.003476  -0.031326   0.002301   0.314833  -0.047363  -0.001879
    17  H    0.000124  -0.004267   0.012287  -0.026762   0.376425  -0.034135
    18  H    0.000000  -0.000035   0.000008   0.000949  -0.024147   0.327773
    19  H    0.000000   0.000000   0.000000  -0.000883   0.000717   0.000682
    20  H    0.000000  -0.000000   0.000000  -0.000027   0.000019  -0.001637
    21  H   -0.000000  -0.000000   0.000000   0.000000   0.000001  -0.000058
    22  H   -0.000000   0.000000  -0.000000  -0.000000  -0.000002  -0.000096
    23  H    0.000000  -0.000000   0.000000   0.000030  -0.000000  -0.000024
    24  H    0.000000   0.000000   0.000000   0.000000  -0.000000   0.000005
    25  H    0.000000  -0.000000   0.000000   0.000020  -0.000001  -0.000073
    26  H    0.000000  -0.000000   0.000000   0.000008  -0.000001  -0.000070
    27  H    0.005918  -0.001558   0.000014  -0.072971   0.002656   0.000046
               7          8          9         10         11         12
     1  O    0.000003  -0.000000  -0.000000  -0.000000  -0.000000  -0.000000
     2  N   -0.000093   0.000002  -0.000003   0.000000  -0.000000   0.000002
     3  O    0.000002  -0.000000   0.000000  -0.000000  -0.000000  -0.000000
     4  C    0.004108  -0.000197   0.000537  -0.000022  -0.000014  -0.000138
     5  C   -0.030410   0.002481   0.001631  -0.000061   0.000015  -0.000128
     6  N    0.198002  -0.049947  -0.055733   0.003293  -0.000154   0.003687
     7  C    5.010437   0.415524   0.341566  -0.049382  -0.007786  -0.064613
     8  H    0.415524   0.547535  -0.060141   0.001478  -0.000303  -0.002789
     9  C    0.341566  -0.060141   5.179818   0.318277  -0.053160  -0.006195
    10  C   -0.049382   0.001478   0.318277   5.125942   0.332951  -0.060055
    11  C   -0.007786  -0.000303  -0.053160   0.332951   5.123017   0.331077
    12  C   -0.064613  -0.002789  -0.006195  -0.060055   0.331077   5.135477
    13  C    0.331405  -0.040137  -0.050600  -0.001675  -0.047637   0.368983
    14  H   -0.040807  -0.000822   0.003833  -0.000390   0.003960  -0.040587
    15  N   -0.058880   0.004118  -0.013445   0.001439  -0.007805  -0.074276
    16  C   -0.002388   0.000031  -0.000963  -0.000026   0.000004   0.002496
    17  H    0.001432  -0.000014  -0.000068   0.000001   0.000000   0.000001
    18  H   -0.028301  -0.002613   0.000884  -0.000119   0.000012  -0.000139
    19  H   -0.035051   0.004089   0.385752  -0.032296  -0.002259   0.000617
    20  H   -0.041890  -0.001875   0.396923  -0.037323   0.004149  -0.000368
    21  H    0.004055  -0.000082  -0.035854   0.400160  -0.035793   0.004207
    22  H   -0.004221   0.003497  -0.045747   0.395991  -0.045664  -0.001194
    23  H    0.000434   0.000033  -0.002024  -0.039972   0.396577  -0.036429
    24  H   -0.000143  -0.000097   0.004413  -0.038587   0.400238  -0.037962
    25  H    0.005017  -0.000014  -0.000363   0.004091  -0.033846   0.395237
    26  H   -0.004446   0.001620   0.001043  -0.002382  -0.042525   0.394651
    27  H   -0.000432   0.000010  -0.000067   0.000006   0.000004  -0.000013
              13         14         15         16         17         18
     1  O   -0.000020  -0.000003   0.000137   0.003476   0.000124   0.000000
     2  N   -0.000048  -0.000048   0.001824  -0.031326  -0.004267  -0.000035
     3  O   -0.000003   0.000000  -0.000017   0.002301   0.012287   0.000008
     4  C   -0.010507   0.003242  -0.063482   0.314833  -0.026762   0.000949
     5  C    0.000340   0.005279  -0.004846  -0.047363   0.376425  -0.024147
     6  N   -0.046304  -0.005997   0.001945  -0.001879  -0.034135   0.327773
     7  C    0.331405  -0.040807  -0.058880  -0.002388   0.001432  -0.028301
     8  H   -0.040137  -0.000822   0.004118   0.000031  -0.000014  -0.002613
     9  C   -0.050600   0.003833  -0.013445  -0.000963  -0.000068   0.000884
    10  C   -0.001675  -0.000390   0.001439  -0.000026   0.000001  -0.000119
    11  C   -0.047637   0.003960  -0.007805   0.000004   0.000000   0.000012
    12  C    0.368983  -0.040587  -0.074276   0.002496   0.000001  -0.000139
    13  C    5.027764   0.401598   0.241864  -0.071933  -0.000039   0.003791
    14  H    0.401598   0.522404  -0.036281  -0.004592   0.000071   0.000016
    15  N    0.241864  -0.036281   6.943128   0.590796  -0.000047  -0.000119
    16  C   -0.071933  -0.004592   0.590796   4.726012   0.001891  -0.000245
    17  H   -0.000039   0.000071  -0.000047   0.001891   0.385007  -0.001883
    18  H    0.003791   0.000016  -0.000119  -0.000245  -0.001883   0.323130
    19  H   -0.006108   0.000068   0.007164   0.002612   0.000012  -0.000125
    20  H    0.003877  -0.000048   0.000096  -0.000033  -0.000001   0.002833
    21  H   -0.000375   0.000008  -0.000033   0.000002  -0.000000  -0.000000
    22  H    0.000301  -0.000044   0.000002  -0.000001   0.000000   0.000002
    23  H   -0.005895   0.000010   0.006915   0.000069   0.000000   0.000000
    24  H    0.004142  -0.000057   0.000055   0.000005   0.000000  -0.000000
    25  H   -0.034368  -0.002653   0.000784  -0.000061  -0.000000   0.000002
    26  H   -0.045071  -0.000901   0.004206  -0.000059   0.000000  -0.000000
    27  H    0.005115  -0.000171  -0.039352   0.406377  -0.000066   0.000003
              19         20         21         22         23         24
     1  O    0.000000   0.000000  -0.000000  -0.000000   0.000000   0.000000
     2  N    0.000000  -0.000000  -0.000000   0.000000  -0.000000   0.000000
     3  O    0.000000   0.000000   0.000000  -0.000000   0.000000   0.000000
     4  C   -0.000883  -0.000027   0.000000  -0.000000   0.000030   0.000000
     5  C    0.000717   0.000019   0.000001  -0.000002  -0.000000  -0.000000
     6  N    0.000682  -0.001637  -0.000058  -0.000096  -0.000024   0.000005
     7  C   -0.035051  -0.041890   0.004055  -0.004221   0.000434  -0.000143
     8  H    0.004089  -0.001875  -0.000082   0.003497   0.000033  -0.000097
     9  C    0.385752   0.396923  -0.035854  -0.045747  -0.002024   0.004413
    10  C   -0.032296  -0.037323   0.400160   0.395991  -0.039972  -0.038587
    11  C   -0.002259   0.004149  -0.035793  -0.045664   0.396577   0.400238
    12  C    0.000617  -0.000368   0.004207  -0.001194  -0.036429  -0.037962
    13  C   -0.006108   0.003877  -0.000375   0.000301  -0.005895   0.004142
    14  H    0.000068  -0.000048   0.000008  -0.000044   0.000010  -0.000057
    15  N    0.007164   0.000096  -0.000033   0.000002   0.006915   0.000055
    16  C    0.002612  -0.000033   0.000002  -0.000001   0.000069   0.000005
    17  H    0.000012  -0.000001  -0.000000   0.000000   0.000000   0.000000
    18  H   -0.000125   0.002833  -0.000000   0.000002   0.000000  -0.000000
    19  H    0.506090  -0.024168  -0.002612   0.003754   0.001633  -0.000068
    20  H   -0.024168   0.551328  -0.002604  -0.002997  -0.000049  -0.000090
    21  H   -0.002612  -0.002604   0.526146  -0.024712  -0.002802  -0.002058
    22  H    0.003754  -0.002997  -0.024712   0.569166   0.004057  -0.003610
    23  H    0.001633  -0.000049  -0.002802   0.004057   0.508887  -0.025059
    24  H   -0.000068  -0.000090  -0.002058  -0.003610  -0.025059   0.541897
    25  H   -0.000028   0.000011  -0.000085  -0.000083  -0.002097  -0.002374
    26  H    0.000023  -0.000035  -0.000074   0.002470   0.003826  -0.002782
    27  H    0.000091  -0.000000  -0.000000   0.000000  -0.000023  -0.000000
              25         26         27
     1  O    0.000000   0.000000   0.005918
     2  N   -0.000000  -0.000000  -0.001558
     3  O    0.000000   0.000000   0.000014
     4  C    0.000020   0.000008  -0.072971
     5  C   -0.000001  -0.000001   0.002656
     6  N   -0.000073  -0.000070   0.000046
     7  C    0.005017  -0.004446  -0.000432
     8  H   -0.000014   0.001620   0.000010
     9  C   -0.000363   0.001043  -0.000067
    10  C    0.004091  -0.002382   0.000006
    11  C   -0.033846  -0.042525   0.000004
    12  C    0.395237   0.394651  -0.000013
    13  C   -0.034368  -0.045071   0.005115
    14  H   -0.002653  -0.000901  -0.000171
    15  N    0.000784   0.004206  -0.039352
    16  C   -0.000061  -0.000059   0.406377
    17  H   -0.000000   0.000000  -0.000066
    18  H    0.000002  -0.000000   0.000003
    19  H   -0.000028   0.000023   0.000091
    20  H    0.000011  -0.000035  -0.000000
    21  H   -0.000085  -0.000074  -0.000000
    22  H   -0.000083   0.002470   0.000000
    23  H   -0.002097   0.003826  -0.000023
    24  H   -0.002374  -0.002782  -0.000000
    25  H    0.510842  -0.023166  -0.000011
    26  H   -0.023166   0.562456   0.000001
    27  H   -0.000011   0.000001   0.456805
 Mulliken charges:
               1
     1  O   -0.455050
     2  N    0.499520
     3  O   -0.482686
     4  C    0.001519
     5  C    0.200689
     6  N   -0.790066
     7  C    0.056859
     8  H    0.178610
     9  C   -0.310313
    10  C   -0.321336
    11  C   -0.315058
    12  C   -0.311549
    13  C   -0.028460
    14  H    0.192911
    15  N   -0.505890
    16  C    0.109962
    17  H    0.290032
    18  H    0.398325
    19  H    0.190294
    20  H    0.153912
    21  H    0.172562
    22  H    0.149130
    23  H    0.191902
    24  H    0.162132
    25  H    0.183220
    26  H    0.151209
    27  H    0.237619
 Sum of Mulliken charges =   0.00000
 Mulliken charges with hydrogens summed into heavy atoms:
               1
     1  O   -0.455050
     2  N    0.499520
     3  O   -0.482686
     4  C    0.001519
     5  C    0.490720
     6  N   -0.391741
     7  C    0.235469
     9  C    0.033893
    10  C    0.000356
    11  C    0.038976
    12  C    0.022880
    13  C    0.164451
    15  N   -0.505890
    16  C    0.347581
 Electronic spatial extent (au):  <R**2>=           3107.2924
 Charge=              0.0000 electrons
 Dipole moment (field-independent basis, Debye):
    X=              5.2304    Y=              4.6739    Z=              0.4970  Tot=              7.0321
 Quadrupole moment (field-independent basis, Debye-Ang):
   XX=           -105.0737   YY=            -80.3525   ZZ=            -82.2062
   XY=             -2.1297   XZ=              0.9307   YZ=             -0.0255
 Traceless Quadrupole moment (field-independent basis, Debye-Ang):
   XX=            -15.8629   YY=              8.8583   ZZ=              7.0046
   XY=             -2.1297   XZ=              0.9307   YZ=             -0.0255
 Octapole moment (field-independent basis, Debye-Ang**2):
  XXX=             98.1327  YYY=             37.9388  ZZZ=             -5.4991  XYY=             -1.3219
  XXY=             12.6328  XXZ=             -0.8343  XZZ=             -8.7769  YZZ=             -2.6894
  YYZ=              0.8852  XYZ=             -1.2807
 Hexadecapole moment (field-independent basis, Debye-Ang**3):
 XXXX=          -3530.1266 YYYY=           -616.3215 ZZZZ=           -299.8210 XXXY=            -50.5011
 XXXZ=             27.8789 YYYX=            -28.9652 YYYZ=             10.8326 ZZZX=             21.5933
 ZZZY=              8.8054 XXYY=           -652.7380 XXZZ=           -540.2145 YYZZ=           -164.1677
 XXYZ=              2.4780 YYXZ=             10.0532 ZZXY=              0.2733
 N-N= 9.200352389853D+02 E-N=-3.386183019991D+03  KE= 6.589947590761D+02
 Calling FoFJK, ICntrl=  10002127 FMM=F ISym2X=0 I1Cent= 0 IOpClX= 0 NMat=1 NMatS=1 NMatT=0.
 -------------------------------------------------------------------
 Center     Atomic                   Forces (Hartrees/Bohr)
 Number     Number              X              Y              Z
 -------------------------------------------------------------------
      1        8           0.004534687   -0.017790896   -0.002607280
      2        7           0.035938130    0.014092262   -0.003835079
      3        8          -0.004742011    0.016090211    0.004184088
      4        6          -0.027765233    0.042673245    0.022754079
      5        6           0.002999553   -0.014682953   -0.003369761
      6        7           0.013262368   -0.011774480   -0.008145797
      7        6          -0.004678126    0.005366112    0.003792003
      8        1          -0.010031975   -0.001250033   -0.007706800
      9        6          -0.004031840    0.000354133   -0.002031041
     10        6           0.002842506   -0.000944746    0.001131785
     11        6          -0.001214747   -0.004712877   -0.002485193
     12        6           0.000670467   -0.008948760   -0.002774684
     13        6           0.009044042   -0.003954673    0.003673497
     14        1           0.000806523    0.004936267   -0.009598067
     15        7           0.004775063    0.000391478    0.000581722
     16        6           0.000889364   -0.025366895   -0.008777149
     17        1           0.007138760   -0.005926271   -0.006521722
     18        1          -0.017753329   -0.001508785    0.006313518
     19        1           0.003077800    0.005714195    0.007852494
     20        1          -0.003256205   -0.007264312    0.002592740
     21        1          -0.004361101    0.002454928    0.009603556
     22        1          -0.004009677   -0.003937937   -0.007410622
     23        1           0.004013017    0.006164416    0.009350913
     24        1          -0.009330043    0.002736495   -0.002098588
     25        1          -0.000606619    0.010576220   -0.002394844
     26        1          -0.004784009   -0.004751317   -0.004320787
     27        1           0.006572634    0.001264969    0.002247020
 -------------------------------------------------------------------
 Cartesian Forces:  Max     0.042673245 RMS     0.010279007

 GradGradGradGradGradGradGradGradGradGradGradGradGradGradGradGradGradGrad
 Berny optimization.
 FormGI is forming the generalized inverse of G from B-inverse, IUseBI=4.
 Internal  Forces:  Max     0.037494262 RMS     0.006952394
 Search for a local minimum.
 Step number   1 out of a maximum of   20
 All quantities printed in internal units (Hartrees-Bohrs-Radians)
 Mixed Optimization -- RFO/linear search
 Second derivative matrix not updated -- first step.
 ITU=  0
     Eigenvalues ---    0.00232   0.00772   0.01120   0.01188   0.01409
     Eigenvalues ---    0.01536   0.01663   0.02004   0.02059   0.02090
     Eigenvalues ---    0.02367   0.02705   0.03688   0.04499   0.04692
     Eigenvalues ---    0.04839   0.05092   0.05137   0.05309   0.05910
     Eigenvalues ---    0.06240   0.07247   0.07693   0.07730   0.07870
     Eigenvalues ---    0.07990   0.08054   0.08065   0.10451   0.11731
     Eigenvalues ---    0.12251   0.13483   0.15221   0.15693   0.15989
     Eigenvalues ---    0.16000   0.20049   0.21974   0.23108   0.24985
     Eigenvalues ---    0.25000   0.25000   0.25397   0.26212   0.26650
     Eigenvalues ---    0.27972   0.28087   0.28489   0.29092   0.31474
     Eigenvalues ---    0.32042   0.32208   0.32238   0.32289   0.32381
     Eigenvalues ---    0.32390   0.32405   0.32525   0.32525   0.32578
     Eigenvalues ---    0.33397   0.33579   0.35262   0.43637   0.43884
     Eigenvalues ---    0.48916   0.66286   0.90377   0.908031000.00000
     Eigenvalues --- 1000.000001000.000001000.000001000.000001000.00000
     Eigenvalues --- 1000.000001000.000001000.000001000.000001000.00000
     Eigenvalues --- 1000.000001000.000001000.000001000.000001000.00000
     Eigenvalues --- 1000.000001000.000001000.000001000.000001000.00000
     Eigenvalues --- 1000.000001000.000001000.000001000.000001000.00000
     Eigenvalues --- 1000.000001000.000001000.000001000.000001000.00000
     Eigenvalues --- 1000.000001000.000001000.000001000.000001000.00000
     Eigenvalues --- 1000.000001000.000001000.000001000.000001000.00000
     Eigenvalues --- 1000.000001000.000001000.000001000.000001000.00000
     Eigenvalues --- 1000.000001000.000001000.000001000.000001000.00000
     Eigenvalues --- 1000.000001000.000001000.000001000.000001000.00000
     Eigenvalues --- 1000.000001000.000001000.000001000.000001000.00000
     Eigenvalues --- 1000.000001000.000001000.000001000.000001000.00000
     Eigenvalues --- 1000.000001000.000001000.000001000.000001000.00000
     Eigenvalues --- 1000.000001000.000001000.000001000.000001000.00000
     Eigenvalues --- 1000.000001000.000001000.000001000.000001000.00000
     Eigenvalues --- 1000.000001000.000001000.000001000.000001000.00000
     Eigenvalues --- 1000.000001000.000001000.000001000.000001000.00000
     Eigenvalues --- 1000.00000
 RFO step:  Lambda=-2.34737660D-02 EMin= 2.31500132D-03
 Linear search not attempted -- first point.
 Iteration  1 RMS(Cart)=  0.05521080 RMS(Int)=  0.00107399
 Iteration  2 RMS(Cart)=  0.00117688 RMS(Int)=  0.00026618
 Iteration  3 RMS(Cart)=  0.00000097 RMS(Int)=  0.00026618
 Iteration  1 RMS(Cart)=  0.00003634 RMS(Int)=  0.00003362
 Iteration  2 RMS(Cart)=  0.00001846 RMS(Int)=  0.00003632
 Iteration  3 RMS(Cart)=  0.00001426 RMS(Int)=  0.00004064
 Iteration  4 RMS(Cart)=  0.00001201 RMS(Int)=  0.00004487
 Iteration  5 RMS(Cart)=  0.00001026 RMS(Int)=  0.00004877
 Iteration  6 RMS(Cart)=  0.00000876 RMS(Int)=  0.00005229
 Iteration  7 RMS(Cart)=  0.00000746 RMS(Int)=  0.00005542
 Iteration  8 RMS(Cart)=  0.00000634 RMS(Int)=  0.00005816
 Iteration  9 RMS(Cart)=  0.00000538 RMS(Int)=  0.00006056
 Iteration 10 RMS(Cart)=  0.00000456 RMS(Int)=  0.00006264
 Iteration 11 RMS(Cart)=  0.00000387 RMS(Int)=  0.00006443
 Iteration 12 RMS(Cart)=  0.00000328 RMS(Int)=  0.00006596
 Iteration 13 RMS(Cart)=  0.00000278 RMS(Int)=  0.00006728
 Iteration 14 RMS(Cart)=  0.00000236 RMS(Int)=  0.00006841
 Iteration 15 RMS(Cart)=  0.00000200 RMS(Int)=  0.00006938
 Iteration 16 RMS(Cart)=  0.00000170 RMS(Int)=  0.00007020
 Iteration 17 RMS(Cart)=  0.00000144 RMS(Int)=  0.00007090
 Iteration 18 RMS(Cart)=  0.00000122 RMS(Int)=  0.00007150
 Iteration 19 RMS(Cart)=  0.00000104 RMS(Int)=  0.00007201
 Iteration 20 RMS(Cart)=  0.00000088 RMS(Int)=  0.00007244
 Variable       Old X    -DE/DX   Delta X   Delta X   Delta X     New X
                                 (Linear)    (Quad)   (Total)
    R1        2.32565   0.01584   0.00000   0.01700   0.01700   2.34266
    R2        2.32760   0.01581   0.00000   0.01706   0.01706   2.34465
    R3        2.89812  -0.03749   0.00000  -0.11926  -0.11926   2.77886
    R4        2.65150  -0.03665   0.00000  -0.07727  -0.07713   2.57436
    R5        2.67518   0.02212   0.00000   0.00000   0.00000   2.67518
    R6        2.59240  -0.02568   0.00000  -0.05091  -0.05098   2.54142
    R7        2.08360  -0.01041   0.00000  -0.02914  -0.02914   2.05446
    R8        2.82190  -0.01638   0.00000  -0.05034  -0.05052   2.77137
    R9        1.93294  -0.00638   0.00000  -0.01380  -0.01380   1.91914
   R10        2.11817  -0.01169   0.00000  -0.03455  -0.03455   2.08361
   R11        2.92715  -0.01302   0.00000  -0.04491  -0.04496   2.88219
   R12        2.90002  -0.00192   0.00000  -0.00472  -0.00458   2.89544
   R13        2.91128  -0.00446   0.00000  -0.01401  -0.01401   2.89727
   R14        2.09894  -0.00995   0.00000  -0.02855  -0.02855   2.07039
   R15        2.09894  -0.00796   0.00000  -0.02283  -0.02283   2.07611
   R16        2.90447  -0.00205   0.00000  -0.00719  -0.00724   2.89724
   R17        2.10136  -0.01057   0.00000  -0.03044  -0.03044   2.07092
   R18        2.10318  -0.00900   0.00000  -0.02599  -0.02599   2.07719
   R19        2.91809  -0.00951   0.00000  -0.02966  -0.02962   2.88847
   R20        2.10411  -0.01174   0.00000  -0.03395  -0.03395   2.07016
   R21        2.10108  -0.00993   0.00000  -0.02856  -0.02856   2.07252
   R22        2.93529  -0.01069   0.00000  -0.03659  -0.03660   2.89869
   R23        2.10151  -0.01071   0.00000  -0.03084  -0.03084   2.07067
   R24        2.09799  -0.00780   0.00000  -0.02233  -0.02233   2.07567
   R25        2.10767  -0.00891   0.00000  -0.02590  -0.02590   2.08177
   R26        2.76774  -0.00459   0.00000  -0.01163  -0.01192   2.75582
   R27        2.44678  -0.00342   0.00000  -0.00292  -0.00286   2.44392
   R28        2.08047  -0.00513   0.00000  -0.01428  -0.01428   2.06619
    A1        2.15381   0.01272   0.00000   0.04680   0.04639   2.20021
    A2        2.06041  -0.00969   0.00000  -0.03515  -0.03556   2.02485
    A3        2.06877  -0.00300   0.00000  -0.01069  -0.01110   2.05767
    A4        2.02400  -0.00742   0.00000  -0.03022  -0.03057   1.99342
    A5        2.03616  -0.00046   0.00000  -0.00472  -0.00510   2.03106
    A6        2.22240   0.00783   0.00000   0.03384   0.03409   2.25649
    A7        2.20405   0.00466   0.00000   0.01413   0.01418   2.21823
    A8        2.06399  -0.00273   0.00000  -0.00879  -0.00895   2.05504
    A9        2.01400  -0.00189   0.00000  -0.00420  -0.00437   2.00962
   A10        2.24279  -0.00081   0.00000  -0.01194  -0.01222   2.23057
   A11        2.11861  -0.01461   0.00000  -0.07527  -0.07574   2.04287
   A12        1.87887   0.01598   0.00000   0.09675   0.09699   1.97586
   A13        1.84076  -0.00300   0.00000  -0.02059  -0.02055   1.82021
   A14        2.01189  -0.00168   0.00000  -0.01549  -0.01553   1.99636
   A15        1.95418   0.00396   0.00000   0.00938   0.00913   1.96331
   A16        1.85308   0.00323   0.00000   0.02251   0.02241   1.87549
   A17        1.85148   0.00089   0.00000   0.02035   0.02011   1.87158
   A18        1.93924  -0.00317   0.00000  -0.01225  -0.01192   1.92732
   A19        1.90919   0.00068   0.00000  -0.00396  -0.00409   1.90510
   A20        1.92389  -0.00090   0.00000  -0.01441  -0.01440   1.90950
   A21        1.92226  -0.00187   0.00000  -0.00683  -0.00683   1.91543
   A22        1.91938  -0.00042   0.00000   0.00562   0.00560   1.92498
   A23        1.90484   0.00276   0.00000   0.02425   0.02422   1.92906
   A24        1.88409  -0.00024   0.00000  -0.00423  -0.00448   1.87961
   A25        1.94013  -0.00045   0.00000   0.00662   0.00657   1.94669
   A26        1.91908  -0.00076   0.00000  -0.00728  -0.00733   1.91176
   A27        1.90500   0.00010   0.00000  -0.00317  -0.00326   1.90174
   A28        1.91628   0.00054   0.00000   0.00679   0.00683   1.92311
   A29        1.89846   0.00173   0.00000   0.01122   0.01122   1.90968
   A30        1.88386  -0.00116   0.00000  -0.01468  -0.01476   1.86910
   A31        1.94512   0.00078   0.00000   0.00489   0.00497   1.95010
   A32        1.90222   0.00058   0.00000   0.00620   0.00616   1.90839
   A33        1.91745   0.00034   0.00000   0.00495   0.00493   1.92238
   A34        1.90639  -0.00128   0.00000  -0.01430  -0.01433   1.89206
   A35        1.91527  -0.00043   0.00000   0.00014   0.00006   1.91534
   A36        1.87598  -0.00001   0.00000  -0.00222  -0.00226   1.87372
   A37        1.94896  -0.00358   0.00000  -0.01983  -0.01984   1.92912
   A38        1.90576   0.00253   0.00000   0.01702   0.01687   1.92264
   A39        1.91036   0.00172   0.00000   0.01361   0.01356   1.92393
   A40        1.90595   0.00044   0.00000  -0.00225  -0.00209   1.90386
   A41        1.91085  -0.00005   0.00000  -0.00407  -0.00400   1.90685
   A42        1.88067  -0.00098   0.00000  -0.00394  -0.00412   1.87655
   A43        1.84646   0.00539   0.00000   0.02490   0.02493   1.87139
   A44        1.94252  -0.00549   0.00000  -0.03551  -0.03595   1.90658
   A45        1.97584   0.00210   0.00000   0.01489   0.01531   1.99114
   A46        1.88077   0.00233   0.00000   0.02976   0.03016   1.91093
   A47        1.89254  -0.00578   0.00000  -0.02923  -0.02946   1.86308
   A48        1.92122   0.00156   0.00000  -0.00268  -0.00256   1.91865
   A49        2.08224  -0.00665   0.00000  -0.01856  -0.01903   2.06321
   A50        2.26308  -0.00828   0.00000  -0.02413  -0.02410   2.23898
   A51        1.97845   0.00914   0.00000   0.03940   0.03894   2.01739
   A52        2.04163  -0.00084   0.00000  -0.01498  -0.01542   2.02621
    D1       -3.03265  -0.00033   0.00000  -0.03019  -0.02952  -3.06217
    D2        0.14415   0.00085   0.00000   0.00000  -0.00000   0.14415
    D3        0.12947  -0.00229   0.00000  -0.08112  -0.08078   0.04868
    D4       -2.97692  -0.00111   0.00000  -0.05093  -0.05126  -3.02817
    D5        3.06223   0.00046   0.00000   0.01974   0.01988   3.08211
    D6       -0.02531  -0.00028   0.00000  -0.00672  -0.00677  -0.03208
    D7       -0.11894  -0.00111   0.00000  -0.01531  -0.01550  -0.13444
    D8        3.07671  -0.00185   0.00000  -0.04178  -0.04215   3.03456
    D9       -2.67639  -0.00340   0.00000  -0.05817  -0.05863  -2.73502
   D10        0.45738  -0.00017   0.00000  -0.01137  -0.01166   0.44572
   D11        0.50502  -0.00169   0.00000  -0.02240  -0.02215   0.48287
   D12       -2.64440   0.00155   0.00000   0.02439   0.02483  -2.61957
   D13       -0.12418   0.00001   0.00000   0.01830   0.01872  -0.10545
   D14        2.66700   0.00496   0.00000   0.07303   0.07168   2.73868
   D15        2.96471   0.00070   0.00000   0.04396   0.04463   3.00934
   D16       -0.52730   0.00565   0.00000   0.09869   0.09759  -0.42970
   D17       -2.49118  -0.00020   0.00000  -0.01592  -0.01552  -2.50670
   D18        1.75416  -0.00126   0.00000  -0.02145  -0.02123   1.73292
   D19       -0.48524   0.00108   0.00000   0.00101   0.00088  -0.48436
   D20        0.96301  -0.00006   0.00000  -0.03953  -0.04014   0.92288
   D21       -1.07484  -0.00112   0.00000  -0.04506  -0.04585  -1.12069
   D22        2.96895   0.00122   0.00000  -0.02259  -0.02374   2.94521
   D23        2.95559   0.00085   0.00000   0.02113   0.02083   2.97642
   D24       -1.21508   0.00020   0.00000   0.01645   0.01619  -1.19889
   D25        0.86206  -0.00182   0.00000  -0.00203  -0.00220   0.85986
   D26        0.92472   0.00334   0.00000   0.04018   0.04012   0.96485
   D27        3.03724   0.00269   0.00000   0.03549   0.03549   3.07273
   D28       -1.16880   0.00067   0.00000   0.01702   0.01709  -1.15171
   D29       -1.08078   0.00206   0.00000   0.00962   0.00970  -1.07108
   D30        1.03173   0.00141   0.00000   0.00493   0.00506   1.03680
   D31        3.10888  -0.00061   0.00000  -0.01354  -0.01333   3.09555
   D32       -2.90369  -0.00048   0.00000  -0.01143  -0.01118  -2.91487
   D33       -0.86555   0.00259   0.00000   0.02017   0.01999  -0.84556
   D34        1.30937   0.00195   0.00000   0.00000  -0.00001   1.30936
   D35       -0.90432  -0.00156   0.00000  -0.01951  -0.01934  -0.92367
   D36        1.13382   0.00152   0.00000   0.01210   0.01183   1.14564
   D37       -2.97445   0.00088   0.00000  -0.00808  -0.00817  -2.98262
   D38        1.10218   0.00118   0.00000   0.01239   0.01251   1.11469
   D39        3.14032   0.00426   0.00000   0.04399   0.04368  -3.09919
   D40       -0.96794   0.00362   0.00000   0.02382   0.02368  -0.94426
   D41        0.95665   0.00092   0.00000   0.00000  -0.00000   0.95665
   D42        3.08237   0.00078   0.00000   0.00804   0.00800   3.09037
   D43       -1.13742  -0.00101   0.00000  -0.01600  -0.01597  -1.15340
   D44       -1.15860   0.00186   0.00000   0.01680   0.01686  -1.14174
   D45        0.96712   0.00172   0.00000   0.02484   0.02486   0.99198
   D46        3.03051  -0.00007   0.00000   0.00081   0.00089   3.03140
   D47        3.06083   0.00074   0.00000   0.00411   0.00406   3.06490
   D48       -1.09663   0.00061   0.00000   0.01215   0.01206  -1.08457
   D49        0.96676  -0.00119   0.00000  -0.01189  -0.01191   0.95485
   D50       -0.92192  -0.00065   0.00000   0.00000  -0.00000  -0.92192
   D51        1.18335  -0.00137   0.00000  -0.01064  -0.01066   1.17269
   D52       -3.04860  -0.00086   0.00000  -0.00684  -0.00687  -3.05547
   D53       -3.04928   0.00024   0.00000   0.00017   0.00018  -3.04910
   D54       -0.94401  -0.00048   0.00000  -0.01047  -0.01048  -0.95449
   D55        1.10723   0.00004   0.00000  -0.00667  -0.00670   1.10054
   D56        1.17603   0.00031   0.00000   0.00741   0.00745   1.18348
   D57       -3.00188  -0.00041   0.00000  -0.00323  -0.00321  -3.00509
   D58       -0.95064   0.00011   0.00000   0.00057   0.00058  -0.95007
   D59        0.98615  -0.00085   0.00000  -0.01086  -0.01090   0.97525
   D60        3.09567  -0.00089   0.00000  -0.01502  -0.01516   3.08051
   D61       -1.13263   0.00039   0.00000  -0.00199  -0.00195  -1.13458
   D62       -1.11667  -0.00122   0.00000  -0.01225  -0.01224  -1.12891
   D63        0.99285  -0.00126   0.00000  -0.01641  -0.01651   0.97634
   D64        3.04773   0.00002   0.00000  -0.00338  -0.00330   3.04444
   D65        3.11409  -0.00020   0.00000  -0.00125  -0.00125   3.11284
   D66       -1.05958  -0.00024   0.00000  -0.00540  -0.00552  -1.06509
   D67        0.99531   0.00104   0.00000   0.00762   0.00769   1.00300
   D68       -1.04927  -0.00079   0.00000  -0.00300  -0.00295  -1.05222
   D69       -3.12869   0.00160   0.00000   0.01033   0.00998  -3.11871
   D70        1.07536   0.00163   0.00000   0.01300   0.01299   1.08834
   D71        3.12450  -0.00196   0.00000  -0.01006  -0.00996   3.11455
   D72        1.04509   0.00043   0.00000   0.00326   0.00297   1.04805
   D73       -1.03405   0.00046   0.00000   0.00594   0.00598  -1.02808
   D74        1.06923  -0.00101   0.00000  -0.00163  -0.00148   1.06775
   D75       -1.01019   0.00139   0.00000   0.01169   0.01144  -0.99875
   D76       -3.08933   0.00141   0.00000   0.01437   0.01445  -3.07488
   D77       -1.17216   0.00496   0.00000   0.00000  -0.00001  -1.17217
   D78        3.06777   0.00081   0.00000  -0.02065  -0.02046   3.04731
   D79        1.01427   0.00051   0.00000  -0.03787  -0.03807   0.97621
   D80        0.11665   0.00339   0.00000   0.03385   0.03299   0.14964
   D81       -3.01688   0.00002   0.00000  -0.01455  -0.01439  -3.03127
         Item               Value     Threshold  Converged?
 Maximum Force            0.037494     0.000450     NO 
 RMS     Force            0.006785     0.000300     NO 
 Maximum Displacement     0.284181     0.001800     NO 
 RMS     Displacement     0.055399     0.001200     NO 
 Predicted change in Energy=-1.319905D-02
 GradGradGradGradGradGradGradGradGradGradGradGradGradGradGradGradGradGrad

                          Input orientation:                          
 ---------------------------------------------------------------------
 Center     Atomic      Atomic             Coordinates (Angstroms)
 Number     Number       Type             X           Y           Z
 ---------------------------------------------------------------------
      1          8           0       -3.475533   -1.430378   -0.223078
      2          7           0       -3.119487   -0.256818   -0.041978
      3          8           0       -3.868618    0.709343    0.169597
      4          6           0       -1.668903   -0.015560   -0.042187
      5          6           0       -1.315541    1.265777    0.256405
      6          7           0       -0.069327    1.753271    0.390379
      7          6           0        1.194164    1.009033    0.368981
      8          1           0        1.826296    1.524569    1.110842
      9          6           0        1.928291    1.053018   -0.967178
     10          6           0        3.326409    0.448383   -0.793133
     11          6           0        3.258985   -0.964341   -0.201339
     12          6           0        2.435958   -0.999925    1.086181
     13          6           0        1.029357   -0.439246    0.841171
     14          1           0        0.459643   -0.451059    1.783969
     15          7           0        0.392258   -1.314817   -0.135648
     16          6           0       -0.850339   -1.104853   -0.426171
     17          1           0       -2.113471    1.982930    0.432327
     18          1           0        0.052508    2.752593    0.256630
     19          1           0        1.359869    0.487296   -1.713641
     20          1           0        1.998733    2.091755   -1.317963
     21          1           0        3.840290    0.428862   -1.760867
     22          1           0        3.915139    1.095585   -0.127725
     23          1           0        2.794441   -1.640191   -0.927637
     24          1           0        4.270395   -1.340251   -0.004971
     25          1           0        2.352518   -2.029184    1.452703
     26          1           0        2.930043   -0.409113    1.869311
     27          1           0       -1.323066   -1.843678   -1.078971
 ---------------------------------------------------------------------
                    Distance matrix (angstroms):
                    1          2          3          4          5
     1  O    0.000000
     2  N    1.239681   0.000000
     3  O    2.210681   1.240736   0.000000
     4  C    2.301812   1.470510   2.325743   0.000000
     5  C    3.487796   2.379401   2.614451   1.362295   0.000000
     6  N    4.702573   3.678433   3.946282   2.423742   1.344860
     7  C    5.301635   4.514295   5.075562   3.068551   2.525314
     8  H    6.214535   5.381739   5.829459   3.989724   3.266218
     9  C    5.993518   5.296389   5.917308   3.864877   3.473453
    10  C    7.079627   6.527719   7.263839   5.072702   4.828806
    11  C    6.750659   6.419572   7.330862   5.020916   5.109721
    12  C    6.070022   5.717335   6.596166   4.369448   4.460458
    13  C    4.733814   4.245720   5.075473   2.870616   2.957635
    14  H    4.524700   4.022684   4.763042   2.838170   2.903835
    15  N    3.870504   3.668854   4.727098   2.438275   3.119255
    16  C    2.653084   2.452713   3.571590   1.415645   2.510421
    17  H    3.733019   2.500700   2.184397   2.101610   1.087175
    18  H    5.493126   4.382610   4.422406   3.273411   2.020440
    19  H    5.411133   4.838677   5.561741   3.495724   3.412467
    20  H    6.600892   5.774090   6.208841   4.418137   3.761022
    21  H    7.703430   7.201614   7.951894   5.788142   5.599322
    22  H    7.810993   7.163959   7.799003   5.694162   5.247526
    23  H    6.312923   6.137806   7.149866   4.831655   5.170934
    24  H    7.749522   7.468973   8.394930   6.085348   6.169472
    25  H    6.093684   5.942911   6.917255   4.739325   5.073712
    26  H    6.815605   6.346104   7.096602   4.995899   4.840631
    27  H    2.352973   2.611629   3.815320   2.129915   3.384080
                    6          7          8          9         10
     6  N    0.000000
     7  C    1.466547   0.000000
     8  H    2.040774   1.102600   0.000000
     9  C    2.514716   1.525188   2.133292   0.000000
    10  C    3.825501   2.492249   2.652100   1.533169   0.000000
    11  C    4.337420   2.912551   3.157387   2.535152   1.533153
    12  C    3.786910   2.468266   2.597185   2.947641   2.534230
    13  C    2.493482   1.532200   2.136447   2.510989   2.955552
    14  H    2.661010   2.161847   2.494784   3.462367   3.958383
    15  N    3.146892   2.509578   3.416478   2.942361   3.485743
    16  C    3.073371   3.046436   4.054707   3.559478   4.471289
    17  H    2.057432   3.448614   4.023959   4.377122   5.783501
    18  H    1.015567   2.087104   2.320355   2.811552   4.138818
    19  H    2.841161   2.153365   3.044863   1.095605   2.171664
    20  H    2.703678   2.159954   2.500106   1.098630   2.176888
    21  H    4.654786   3.445988   3.674705   2.162233   1.095885
    22  H    4.071480   2.767293   2.466037   2.157326   1.099201
    23  H    4.631838   3.355665   3.886954   2.829338   2.159450
    24  H    5.344097   3.888723   3.927576   3.484111   2.170604
    25  H    4.615283   3.427389   3.608731   3.941543   3.482899
    26  H    3.982382   2.697295   2.352160   3.344698   2.825069
    27  H    4.082756   4.070746   5.104787   4.355993   5.191615
                   11         12         13         14         15
    11  C    0.000000
    12  C    1.528511   0.000000
    13  C    2.516703   1.533922   0.000000
    14  H    3.470046   2.166560   1.101626   0.000000
    15  N    2.888819   2.401819   1.458319   2.106074   0.000000
    16  C    4.117868   3.619111   2.362720   2.651079   1.293265
    17  H    6.160457   5.479257   3.988917   3.791062   4.180479
    18  H    4.930196   4.522210   3.388770   3.572382   4.100382
    19  H    2.828595   3.347954   2.737660   3.731513   2.583398
    20  H    3.489243   3.940757   3.465187   4.296125   3.947577
    21  H    2.170497   3.481273   3.927539   4.976836   4.191740
    22  H    2.163158   2.837729   3.409135   4.241124   4.268582
    23  H    1.095483   2.143341   2.772449   3.770692   2.550216
    24  H    1.096731   2.161387   3.468731   4.302650   3.880422
    25  H    2.165970   1.095753   2.156995   2.486602   2.622174
    26  H    2.168887   1.098395   2.161154   2.472229   3.358648
    27  H    4.747491   4.419283   3.345634   3.648817   2.027779
                   16         17         18         19         20
    16  C    0.000000
    17  H    3.444840   0.000000
    18  H    4.020105   2.305367   0.000000
    19  H    3.012895   4.348125   3.274558   0.000000
    20  H    4.373878   4.470524   2.589178   1.771721   0.000000
    21  H    5.112308   6.532419   4.880299   2.481559   2.520459
    22  H    5.257449   6.119246   4.220583   3.068313   2.466097
    23  H    3.717859   6.250129   5.311990   2.683655   3.835744
    24  H    5.143417   7.210306   5.883059   3.838052   4.320078
    25  H    3.826597   6.089604   5.439304   4.164583   4.978343
    26  H    4.477117   5.764011   4.569172   4.013295   4.156970
    27  H    1.093380   4.189473   4.980134   3.610317   5.155492
                   21         22         23         24         25
    21  H    0.000000
    22  H    1.765581   0.000000
    23  H    2.463545   3.062727   0.000000
    24  H    2.529412   2.464665   1.766272   0.000000
    25  H    4.310741   3.834543   2.452066   2.505533   0.000000
    26  H    3.835224   2.687505   3.058898   2.485255   1.769669
    27  H    5.682400   6.081359   4.125309   5.717843   4.466957
                   26         27
    26  H    0.000000
    27  H    5.370222   0.000000
 Symmetry turned off by external request.
 Stoichiometry    C9H13N3O2
 Framework group  C1[X(C9H13N3O2)]
 Deg. of freedom    75
 Full point group                 C1      NOp   1
 Rotational constants (GHZ):           1.6915008           0.4231442           0.3736173
 Standard basis: 6-31G(d) (6D, 7F)
   236 basis functions,   444 primitive gaussians,   236 cartesian basis functions
    52 alpha electrons       52 beta electrons
       nuclear repulsion energy       933.4447692473 Hartrees.
 NAtoms=   27 NActive=   27 NUniq=   27 SFac= 1.00D+00 NAtFMM=   60 NAOKFM=F Big=F
 Integral buffers will be    131072 words long.
 Raffenetti 1 integral format.
 Two-electron integral symmetry is turned off.
 One-electron integrals computed using PRISM.
 NBasis=   236 RedAO= T EigKep=  9.55D-04  NBF=   236
 NBsUse=   236 1.00D-06 EigRej= -1.00D+00 NBFU=   236
 Initial guess from the checkpoint file:  "/home/alexey/tmp/Gau-1313681.chk"
 B after Tr=     0.052729    0.009940   -0.000107
         Rot=    0.999996   -0.001510    0.000458    0.002150 Ang=  -0.31 deg.
 ExpMin= 1.61D-01 ExpMax= 5.48D+03 ExpMxC= 8.25D+02 IAcc=3 IRadAn=         5 AccDes= 0.00D+00
 Harris functional with IExCor=  205 and IRadAn=       5 diagonalized for initial guess.
 HarFok:  IExCor=  205 AccDes= 0.00D+00 IRadAn=         5 IDoV= 1 UseB2=F ITyADJ=14
 ICtDFT=  3500011 ScaDFX=  1.000000  1.000000  1.000000  1.000000
 FoFCou: FMM=F IPFlag=           0 FMFlag=      100000 FMFlg1=           0
         NFxFlg=           0 DoJE=T BraDBF=F KetDBF=T FulRan=T
         wScrn=  0.000000 ICntrl=       500 IOpCl=  0 I1Cent=   200000004 NGrid=           0
         NMat0=    1 NMatS0=      1 NMatT0=    0 NMatD0=    1 NMtDS0=    0 NMtDT0=    0
 Symmetry not used in FoFCou.
 Keep R1 ints in memory in canonical form, NReq=397720213.
 Requested convergence on RMS density matrix=1.00D-08 within 128 cycles.
 Requested convergence on MAX density matrix=1.00D-06.
 Requested convergence on             energy=1.00D-06.
 No special actions if energy rises.
 SCF Done:  E(RHF) =  -661.296058647     A.U. after   15 cycles
            NFock= 15  Conv=0.54D-08     -V/T= 2.0023
 ExpMin= 1.61D-01 ExpMax= 5.48D+03 ExpMxC= 8.25D+02 IAcc=3 IRadAn=         5 AccDes= 0.00D+00
 HarFok:  IExCor=  205 AccDes= 0.00D+00 IRadAn=         5 IDoV=-2 UseB2=F ITyADJ=14
 ICtDFT= 12500011 ScaDFX=  1.000000  1.000000  1.000000  1.000000
 Range of M.O.s used for correlation:    15   236
 NBasis=   236 NAE=    52 NBE=    52 NFC=    14 NFV=     0
 NROrb=    222 NOA=    38 NOB=    38 NVA=   184 NVB=   184
 Fully direct method using O(ONN) memory.
 JobTyp=1 Pass  1:  I=  15 to  52 NPSUse=  4 ParTrn=T ParDer=T DoDerP=T.
 Spin components of T(2) and E(2):
     alpha-alpha T2 =       0.9138655129D-01 E2=     -0.2726771046D+00
     alpha-beta  T2 =       0.4913630440D+00 E2=     -0.1488476304D+01
     beta-beta   T2 =       0.9138655129D-01 E2=     -0.2726771046D+00
 ANorm=    0.1293884132D+01
 E2 =    -0.2033830513D+01 EUMP2 =    -0.66332988916008D+03
          IDoAtm=111111111111111111111111111
          Differentiating once with respect to electric field.
                with respect to dipole field.
          Differentiating once with respect to nuclear coordinates.
 Keep R1 ints in memory in canonical form, NReq=397723379.
          There are     1 degrees of freedom in the 1st order CPHF.  IDoFFX=0 NUNeed=     1.
 LinEq1:  Iter=  0 NonCon=     1 RMS=4.59D-03 Max=9.86D-02 NDo=     1
 AX will form     1 AO Fock derivatives at one time.
[...]
    27  H    4.718167   4.413661   3.352457   3.653229   2.025155
                   16         17         18         19         20
    16  C    0.000000
    17  H    3.435705   0.000000
    18  H    4.075177   2.235884   0.000000
    19  H    2.985808   4.294141   3.517233   0.000000
    20  H    4.370498   4.450837   2.895259   1.768918   0.000000
    21  H    5.094534   6.506276   5.095780   2.499197   2.520989
    22  H    5.247157   6.100072   4.322130   3.070161   2.461898
    23  H    3.696590   6.222028   5.422789   2.703712   3.843172
    24  H    5.135716   7.192503   5.939983   3.849213   4.317360
    25  H    3.825702   6.076500   5.366082   4.170931   4.986048
    26  H    4.496910   5.776591   4.484588   4.035984   4.183854
    27  H    1.090108   4.193173   5.071335   3.578542   5.144618
                   21         22         23         24         25
    21  H    0.000000
    22  H    1.758851   0.000000
    23  H    2.469359   3.062285   0.000000
    24  H    2.517057   2.459689   1.764710   0.000000
    25  H    4.312009   3.840074   2.443625   2.519942   0.000000
    26  H    3.847255   2.705308   3.060303   2.491826   1.768102
    27  H    5.647256   6.055525   4.084079   5.688893   4.449281
                   26         27
    26  H    0.000000
    27  H    5.373997   0.000000
 Symmetry turned off by external request.
 Stoichiometry    C9H13N3O2
 Framework group  C1[X(C9H13N3O2)]
 Deg. of freedom    75
 Full point group                 C1      NOp   1
 Rotational constants (GHZ):           1.6824108           0.4206917           0.3735134

 **********************************************************************

            Population analysis using the SCF Density.

 **********************************************************************

 Alpha  occ. eigenvalues --  -20.59331 -20.58991 -15.84772 -15.64278 -15.55868
 Alpha  occ. eigenvalues --  -11.35126 -11.29588 -11.29175 -11.28492 -11.27025
 Alpha  occ. eigenvalues --  -11.23710 -11.23178 -11.22622 -11.22033  -1.57208
 Alpha  occ. eigenvalues --   -1.36808  -1.31129  -1.22983  -1.14890  -1.09787
 Alpha  occ. eigenvalues --   -1.02807  -1.01222  -0.94547  -0.90026  -0.85546
 Alpha  occ. eigenvalues --   -0.82605  -0.78768  -0.77404  -0.75245  -0.72232
 Alpha  occ. eigenvalues --   -0.69843  -0.69471  -0.67844  -0.64814  -0.63760
 Alpha  occ. eigenvalues --   -0.62375  -0.60373  -0.57709  -0.56943  -0.55092
 Alpha  occ. eigenvalues --   -0.54514  -0.50730  -0.50190  -0.48703  -0.48098
 Alpha  occ. eigenvalues --   -0.47412  -0.46149  -0.46002  -0.43742  -0.41725
 Alpha  occ. eigenvalues --   -0.39754  -0.33653
 Alpha virt. eigenvalues --    0.07425   0.11594   0.17269   0.21880   0.24147
 Alpha virt. eigenvalues --    0.25771   0.27190   0.28761   0.29077   0.29705
 Alpha virt. eigenvalues --    0.30699   0.31858   0.32064   0.32817   0.33990
 Alpha virt. eigenvalues --    0.34439   0.35961   0.37346   0.38635   0.40557
 Alpha virt. eigenvalues --    0.41479   0.42557   0.45007   0.46158   0.46952
 Alpha virt. eigenvalues --    0.47247   0.49028   0.54171   0.57768   0.59708
 Alpha virt. eigenvalues --    0.64006   0.69678   0.70051   0.72929   0.74287
 Alpha virt. eigenvalues --    0.74847   0.75831   0.76563   0.78766   0.79492
 Alpha virt. eigenvalues --    0.81480   0.84533   0.85821   0.85922   0.88590
 Alpha virt. eigenvalues --    0.89448   0.91178   0.92267   0.92851   0.94549
 Alpha virt. eigenvalues --    0.95680   0.98081   0.99918   1.01739   1.02504
 Alpha virt. eigenvalues --    1.03163   1.05956   1.07009   1.07926   1.09039
 Alpha virt. eigenvalues --    1.10226   1.11468   1.11873   1.12483   1.13961
 Alpha virt. eigenvalues --    1.14696   1.15023   1.15821   1.16954   1.18809
 Alpha virt. eigenvalues --    1.19193   1.21431   1.22795   1.23970   1.24899
 Alpha virt. eigenvalues --    1.24962   1.26100   1.26991   1.27694   1.29935
 Alpha virt. eigenvalues --    1.30062   1.33169   1.36027   1.37294   1.40953
 Alpha virt. eigenvalues --    1.41918   1.46787   1.48750   1.51587   1.54412
 Alpha virt. eigenvalues --    1.56497   1.58983   1.59590   1.63614   1.65542
 Alpha virt. eigenvalues --    1.67997   1.68702   1.72987   1.75375   1.77490
 Alpha virt. eigenvalues --    1.81822   1.84787   1.87982   1.90837   1.93550
 Alpha virt. eigenvalues --    1.95918   1.97543   1.99703   2.01393   2.02582
 Alpha virt. eigenvalues --    2.05332   2.05438   2.08972   2.09630   2.12381
 Alpha virt. eigenvalues --    2.13663   2.15662   2.19080   2.20080   2.22642
 Alpha virt. eigenvalues --    2.22702   2.24389   2.25524   2.28363   2.29646
 Alpha virt. eigenvalues --    2.31978   2.33908   2.34983   2.36513   2.38673
 Alpha virt. eigenvalues --    2.40650   2.42349   2.44319   2.44945   2.47390
 Alpha virt. eigenvalues --    2.50772   2.52351   2.53289   2.55846   2.61745
 Alpha virt. eigenvalues --    2.62392   2.65389   2.67741   2.70413   2.70679
 Alpha virt. eigenvalues --    2.72384   2.72676   2.77309   2.78442   2.83864
 Alpha virt. eigenvalues --    2.88792   2.89337   2.93073   2.93771   2.96183
 Alpha virt. eigenvalues --    2.99666   3.01509   3.04485   3.06585   3.07941
 Alpha virt. eigenvalues --    3.09561   3.15224   3.21259   3.25298   3.27499
 Alpha virt. eigenvalues --    3.33460   3.37947   3.39007   3.53274   3.67577
 Alpha virt. eigenvalues --    4.13798   4.27887   4.34957   4.39264   4.46546
 Alpha virt. eigenvalues --    4.56980   4.62253   4.62574   4.73562   4.79871
 Alpha virt. eigenvalues --    4.99785   5.01051   5.05515   5.11246
          Condensed to atoms (all electrons):
               1          2          3          4          5          6
     1  O    8.314468   0.307881  -0.082931  -0.085780   0.004673  -0.000015
     2  N    0.307881   5.725324   0.300020   0.264845  -0.053845   0.000981
     3  O   -0.082931   0.300020   8.354406  -0.092182   0.002936   0.000801
     4  C   -0.085780   0.264845  -0.092182   5.218502   0.557587  -0.047383
     5  C    0.004673  -0.053845   0.002936   0.557587   4.716551   0.319375
     6  N   -0.000015   0.000981   0.000801  -0.047383   0.319375   7.193126
     7  C    0.000004  -0.000143   0.000002   0.004661  -0.030721   0.168465
     8  H   -0.000000   0.000002  -0.000000  -0.000268   0.003156  -0.050722
     9  C   -0.000000  -0.000004  -0.000000   0.000918   0.000616  -0.061239
    10  C    0.000000   0.000000   0.000000  -0.000041  -0.000052   0.003721
    11  C   -0.000000  -0.000000  -0.000000  -0.000029   0.000026  -0.000191
    12  C   -0.000000   0.000002  -0.000000  -0.000149  -0.000182   0.003928
    13  C   -0.000025  -0.000045  -0.000004  -0.011378  -0.000717  -0.048663
    14  H   -0.000004  -0.000101   0.000001   0.002687   0.006434  -0.007305
    15  N    0.000382   0.002468  -0.000018  -0.064135  -0.007261   0.001645
    16  C    0.000538  -0.028470   0.002778   0.326648  -0.054408  -0.001962
    17  H    0.000224  -0.007422   0.017725  -0.022585   0.373775  -0.034075
    18  H    0.000001  -0.000051   0.000012   0.001529  -0.031502   0.338555
    19  H    0.000001  -0.000004   0.000000  -0.001329   0.001274  -0.000361
    20  H    0.000000  -0.000000   0.000000  -0.000084   0.000154  -0.000382
    21  H   -0.000000   0.000000   0.000000   0.000001   0.000001  -0.000077
    22  H   -0.000000   0.000000  -0.000000  -0.000000  -0.000003  -0.000117
    23  H    0.000000  -0.000000   0.000000   0.000045   0.000000  -0.000031
    24  H    0.000000   0.000000   0.000000   0.000000  -0.000000   0.000006
    25  H    0.000000  -0.000000   0.000000   0.000025  -0.000000  -0.000091
    26  H    0.000000  -0.000000   0.000000   0.000007  -0.000002  -0.000060
    27  H    0.006448  -0.001475   0.000028  -0.065683   0.002427   0.000011
               7          8          9         10         11         12
     1  O    0.000004  -0.000000  -0.000000   0.000000  -0.000000  -0.000000
     2  N   -0.000143   0.000002  -0.000004   0.000000  -0.000000   0.000002
     3  O    0.000002  -0.000000  -0.000000   0.000000  -0.000000  -0.000000
     4  C    0.004661  -0.000268   0.000918  -0.000041  -0.000029  -0.000149
     5  C   -0.030721   0.003156   0.000616  -0.000052   0.000026  -0.000182
     6  N    0.168465  -0.050722  -0.061239   0.003721  -0.000191   0.003928
     7  C    5.023315   0.417723   0.350711  -0.054733  -0.009117  -0.061158
     8  H    0.417723   0.538106  -0.054765   0.000745  -0.000304  -0.002218
     9  C    0.350711  -0.054765   5.157279   0.325117  -0.050394  -0.005299
    10  C   -0.054733   0.000745   0.325117   5.118864   0.337139  -0.060964
    11  C   -0.009117  -0.000304  -0.050394   0.337139   5.119601   0.336218
    12  C   -0.061158  -0.002218  -0.005299  -0.060964   0.336218   5.117777
    13  C    0.337436  -0.037497  -0.060479  -0.000246  -0.050638   0.372184
    14  H   -0.047385  -0.000658   0.004419  -0.000403   0.004211  -0.036226
    15  N   -0.058508   0.003915  -0.014941   0.001551  -0.013179  -0.082229
    16  C   -0.001778   0.000003  -0.001289  -0.000031   0.000030   0.002640
    17  H    0.001598  -0.000044  -0.000070   0.000001   0.000000   0.000000
    18  H   -0.021082  -0.004497   0.001358  -0.000083   0.000004  -0.000114
    19  H   -0.036983   0.004366   0.390177  -0.031996  -0.002200   0.000678
    20  H   -0.042476  -0.002072   0.399271  -0.035266   0.003926  -0.000420
    21  H    0.004612  -0.000077  -0.036403   0.402463  -0.034880   0.004348
    22  H   -0.004864   0.003557  -0.046979   0.397706  -0.045403  -0.000999
    23  H    0.000590   0.000034  -0.001968  -0.038954   0.399119  -0.037754
    24  H   -0.000132  -0.000101   0.004395  -0.038516   0.402282  -0.038748
    25  H    0.005170  -0.000029  -0.000420   0.004188  -0.033362   0.398139
    26  H   -0.003882   0.001677   0.000967  -0.002222  -0.041589   0.396705
    27  H   -0.000414   0.000009  -0.000061   0.000007   0.000012  -0.000035
              13         14         15         16         17         18
     1  O   -0.000025  -0.000004   0.000382   0.000538   0.000224   0.000001
     2  N   -0.000045  -0.000101   0.002468  -0.028470  -0.007422  -0.000051
     3  O   -0.000004   0.000001  -0.000018   0.002778   0.017725   0.000012
     4  C   -0.011378   0.002687  -0.064135   0.326648  -0.022585   0.001529
     5  C   -0.000717   0.006434  -0.007261  -0.054408   0.373775  -0.031502
     6  N   -0.048663  -0.007305   0.001645  -0.001962  -0.034075   0.338555
     7  C    0.337436  -0.047385  -0.058508  -0.001778   0.001598  -0.021082
     8  H   -0.037497  -0.000658   0.003915   0.000003  -0.000044  -0.004497
     9  C   -0.060479   0.004419  -0.014941  -0.001289  -0.000070   0.001358
    10  C   -0.000246  -0.000403   0.001551  -0.000031   0.000001  -0.000083
    11  C   -0.050638   0.004211  -0.013179   0.000030   0.000000   0.000004
    12  C    0.372184  -0.036226  -0.082229   0.002640   0.000000  -0.000114
    13  C    5.041863   0.402968   0.246257  -0.072015  -0.000005   0.002979
    14  H    0.402968   0.529377  -0.037552  -0.004638   0.000093  -0.000114
    15  N    0.246257  -0.037552   6.971228   0.585698  -0.000072  -0.000135
    16  C   -0.072015  -0.004638   0.585698   4.726669   0.002100  -0.000210
    17  H   -0.000005   0.000093  -0.000072   0.002100   0.374723  -0.002816
    18  H    0.002979  -0.000114  -0.000135  -0.000210  -0.002816   0.310005
    19  H   -0.007502   0.000112   0.007891   0.003027   0.000016  -0.000149
    20  H    0.004346  -0.000065   0.000139  -0.000037   0.000002   0.000775
    21  H   -0.000433   0.000010  -0.000044   0.000004  -0.000000   0.000001
    22  H    0.000029  -0.000055   0.000020  -0.000002   0.000000   0.000001
    23  H   -0.007597   0.000004   0.008707   0.000112   0.000000   0.000000
    24  H    0.004711  -0.000056   0.000143   0.000007   0.000000  -0.000000
    25  H   -0.035469  -0.002823   0.000466  -0.000021  -0.000000   0.000002
    26  H   -0.047521  -0.001045   0.004908  -0.000063   0.000000  -0.000000
    27  H    0.005158  -0.000167  -0.040319   0.405221  -0.000082   0.000001
              19         20         21         22         23         24
     1  O    0.000001   0.000000  -0.000000  -0.000000   0.000000   0.000000
     2  N   -0.000004  -0.000000   0.000000   0.000000  -0.000000   0.000000
     3  O    0.000000   0.000000   0.000000  -0.000000   0.000000   0.000000
     4  C   -0.001329  -0.000084   0.000001  -0.000000   0.000045   0.000000
     5  C    0.001274   0.000154   0.000001  -0.000003   0.000000  -0.000000
     6  N   -0.000361  -0.000382  -0.000077  -0.000117  -0.000031   0.000006
     7  C   -0.036983  -0.042476   0.004612  -0.004864   0.000590  -0.000132
     8  H    0.004366  -0.002072  -0.000077   0.003557   0.000034  -0.000101
     9  C    0.390177   0.399271  -0.036403  -0.046979  -0.001968   0.004395
    10  C   -0.031996  -0.035266   0.402463   0.397706  -0.038954  -0.038516
    11  C   -0.002200   0.003926  -0.034880  -0.045403   0.399119   0.402282
    12  C    0.000678  -0.000420   0.004348  -0.000999  -0.037754  -0.038748
    13  C   -0.007502   0.004346  -0.000433   0.000029  -0.007597   0.004711
    14  H    0.000112  -0.000065   0.000010  -0.000055   0.000004  -0.000056
    15  N    0.007891   0.000139  -0.000044   0.000020   0.008707   0.000143
    16  C    0.003027  -0.000037   0.000004  -0.000002   0.000112   0.000007
    17  H    0.000016   0.000002  -0.000000   0.000000   0.000000   0.000000
    18  H   -0.000149   0.000775   0.000001   0.000001   0.000000  -0.000000
    19  H    0.504566  -0.024741  -0.002795   0.003959   0.001510  -0.000066
    20  H   -0.024741   0.541549  -0.002691  -0.002993  -0.000045  -0.000083
    21  H   -0.002795  -0.002691   0.524138  -0.027426  -0.002893  -0.002246
    22  H    0.003959  -0.002993  -0.027426   0.571608   0.004134  -0.003663
    23  H    0.001510  -0.000045  -0.002893   0.004134   0.498439  -0.025462
    24  H   -0.000066  -0.000083  -0.002246  -0.003663  -0.025462   0.538686
    25  H   -0.000029   0.000012  -0.000086  -0.000081  -0.002318  -0.002288
    26  H    0.000019  -0.000030  -0.000081   0.002383   0.004070  -0.003039
    27  H    0.000091   0.000000  -0.000000   0.000000  -0.000037  -0.000000
              25         26         27
     1  O    0.000000   0.000000   0.006448
     2  N   -0.000000  -0.000000  -0.001475
     3  O    0.000000   0.000000   0.000028
     4  C    0.000025   0.000007  -0.065683
     5  C   -0.000000  -0.000002   0.002427
     6  N   -0.000091  -0.000060   0.000011
     7  C    0.005170  -0.003882  -0.000414
     8  H   -0.000029   0.001677   0.000009
     9  C   -0.000420   0.000967  -0.000061
    10  C    0.004188  -0.002222   0.000007
    11  C   -0.033362  -0.041589   0.000012
    12  C    0.398139   0.396705  -0.000035
    13  C   -0.035469  -0.047521   0.005158
    14  H   -0.002823  -0.001045  -0.000167
    15  N    0.000466   0.004908  -0.040319
    16  C   -0.000021  -0.000063   0.405221
    17  H   -0.000000   0.000000  -0.000082
    18  H    0.000002  -0.000000   0.000001
    19  H   -0.000029   0.000019   0.000091
    20  H    0.000012  -0.000030   0.000000
    21  H   -0.000086  -0.000081  -0.000000
    22  H   -0.000081   0.002383   0.000000
    23  H   -0.002318   0.004070  -0.000037
    24  H   -0.002288  -0.003039  -0.000000
    25  H    0.506333  -0.024145  -0.000013
    26  H   -0.024145   0.563237   0.000001
    27  H   -0.000013   0.000001   0.439426
 Mulliken charges:
               1
     1  O   -0.465862
     2  N    0.490035
     3  O   -0.503576
     4  C    0.013573
     5  C    0.189711
     6  N   -0.777943
     7  C    0.059087
     8  H    0.179959
     9  C   -0.300917
    10  C   -0.327995
    11  C   -0.321281
    12  C   -0.306125
    13  C   -0.037696
    14  H    0.188283
    15  N   -0.517025
    16  C    0.109448
    17  H    0.296912
    18  H    0.405530
    19  H    0.190467
    20  H    0.161210
    21  H    0.174555
    22  H    0.149188
    23  H    0.200297
    24  H    0.164171
    25  H    0.186841
    26  H    0.149705
    27  H    0.249448
 Sum of Mulliken charges =  -0.00000
 Mulliken charges with hydrogens summed into heavy atoms:
               1
     1  O   -0.465862
     2  N    0.490035
     3  O   -0.503576
     4  C    0.013573
     5  C    0.486623
     6  N   -0.372413
     7  C    0.239045
     9  C    0.050760
    10  C   -0.004251
    11  C    0.043186
    12  C    0.030421
    13  C    0.150587
    15  N   -0.517025
    16  C    0.358896
 Electronic spatial extent (au):  <R**2>=           2996.4261
 Charge=             -0.0000 electrons
 Dipole moment (field-independent basis, Debye):
    X=              5.3186    Y=              4.8610    Z=              1.3353  Tot=              7.3280
 Quadrupole moment (field-independent basis, Debye-Ang):
   XX=           -105.8883   YY=            -79.2607   ZZ=            -81.4801
   XY=             -1.7759   XZ=             -0.3128   YZ=              1.9030
 Traceless Quadrupole moment (field-independent basis, Debye-Ang):
   XX=            -17.0119   YY=              9.6156   ZZ=              7.3963
   XY=             -1.7759   XZ=             -0.3128   YZ=              1.9030
 Octapole moment (field-independent basis, Debye-Ang**2):
  XXX=             90.3528  YYY=             36.2798  ZZZ=             -1.0413  XYY=             -4.7628
  XXY=              9.5038  XXZ=              5.6200  XZZ=             -9.9856  YZZ=             -0.2251
  YYZ=              8.4259  XYZ=              0.2875
 Hexadecapole moment (field-independent basis, Debye-Ang**3):
 XXXX=          -3366.1135 YYYY=           -599.3327 ZZZZ=           -304.8056 XXXY=            -21.7734
 XXXZ=            -18.8321 YYYX=            -10.0664 YYYZ=             25.0389 ZZZX=             -1.1956
 ZZZY=              6.7979 XXYY=           -625.4494 XXZZ=           -522.4054 YYZZ=           -156.9948
 XXYZ=             -4.2739 YYXZ=              0.3109 ZZXY=              4.1970
 N-N= 9.324793778312D+02 E-N=-3.411725781613D+03  KE= 6.596952592367D+02
 Unable to Open any file for archive entry.
 1\1\GINC-LOTUS\FOpt\RMP2-FC\6-31G(d)\C9H13N3O2\ALEXEY\01-Jul-2023\0\\#
 MP2/6-31G* SCF=Tight Opt=(ModRedun, MaxCycle=20 ) NoSymm\\MolName:\\0,
 1\O,-3.5014304597,-1.3926442512,-0.385917865\N,-3.1119819134,-0.236338
 7867,-0.1326981614\O,-3.8833247413,0.7274583574,0.0376947724\C,-1.6732
 661887,-0.0327377918,-0.018308455\C,-1.2962842186,1.2538727949,0.27783
 82458\N,-0.0559510301,1.7500807521,0.3935990958\C,1.2081962653,1.02766
 75875,0.3623117152\H,1.8573611068,1.5578098192,1.0755705644\C,1.907873
 3324,1.0367669334,-0.9952054751\C,3.3048938832,0.4260708488,-0.8337500
 283\C,3.2546400523,-0.9697704024,-0.2065838855\C,2.4625337194,-0.97840
 11521,1.1026520385\C,1.0539900592,-0.4208758701,0.8682435599\H,0.47856
 50869,-0.3968955009,1.8075205226\N,0.4043451413,-1.3099691866,-0.08857
 20584\C,-0.845949848,-1.1224854882,-0.3816922181\H,-2.0955872017,1.975
 2446265,0.4223873622\H,-0.0026570511,2.7336769965,0.6311909573\H,1.310
 3247198,0.4598270816,-1.7090255568\H,1.9756884998,2.064218532,-1.37392
 68959\H,3.8064994206,0.386244874,-1.8074277755\H,3.9079703152,1.091014
 5844,-0.1991493252\H,2.7734745048,-1.6653875209,-0.901117357\H,4.27340
 02394,-1.3356156353,-0.0318225566\H,2.3751736217,-2.0001641382,1.48647
 20676\H,2.97571484,-0.381927577,1.8696742028\H,-1.3032021554,-1.883740
 4867,-1.0139474904\\Version=ES64L-G16RevC.02\HF=-661.2988047\MP2=-663.
 3338925\RMSD=4.363e-09\RMSF=3.801e-03\Dipole=1.9484039,1.7158069,0.490
 3644\PG=C01 [X(C9H13N3O2)]\\@
 The archive entry for this job was punched.


 THE POLHOLDE ROLLS WITHOUT SLIPPING ON THE HERPOLHOLDE LYING IN
 THE INVARIABLE PLANE.
 H.GOLDSTEIN, "CLASSICAL MECHANICS", PG 161
 Job cpu time:       0 days  1 hours 17 minutes 19.0 seconds.
 Elapsed time:       0 days  0 hours 22 minutes 59.0 seconds.
 File lengths (MBytes):  RWF=     36 Int=      0 D2E=      0 Chk=      7 Scr=      1
 Normal termination of Gaussian 16 at Sat Jul  1 11:28:57 2023.
