 Entering Gaussian System, Link 0=g16
 Initial command:
 /home/alexey/programs//g16/l1.exe "/home/alexey/tmp/Gau-1304802.inp" -scrdir="/home/alexey/tmp/"
 Entering Link 1 = /home/alexey/programs//g16/l1.exe PID=   1304804.
  
 Copyright (c) 1988-2021, Gaussian, Inc.  All Rights Reserved.
  
 This is part of the Gaussian(R) 16 program.  It is based on
 the Gaussian(R) 09 system (copyright 2009, Gaussian, Inc.),
 the Gaussian(R) 03 system (copyright 2003, Gaussian, Inc.),
 the Gaussian(R) 98 system (copyright 1998, Gaussian, Inc.),
 the Gaussian(R) 94 system (copyright 1995, Gaussian, Inc.),
 the Gaussian 92(TM) system (copyright 1992, Gaussian, Inc.),
 the Gaussian 90(TM) system (copyright 1990, Gaussian, Inc.),
 the Gaussian 88(TM) system (copyright 1988, Gaussian, Inc.),
 the Gaussian 86(TM) system (copyright 1986, Carnegie Mellon
 University), and the Gaussian 82(TM) system (copyright 1983,
 Carnegie Mellon University). Gaussian is a federally registered
 trademark of Gaussian, Inc.
  
 This software contains proprietary and confidential information,
 including trade secrets, belonging to Gaussian, Inc.
  
 This software is provided under written license and may be
 used, copied, transmitted, or stored only in accord with that
 written license.
  
 The following legend is applicable only to US Government
 contracts under FAR:
  
                    RESTRICTED RIGHTS LEGEND
  
 Use, reproduction and disclosure by the US Government is
 subject to restrictions as set forth in subparagraphs (a)
 and (c) of the Commercial Computer Software - Restricted
 Rights clause in FAR 52.227-19.
  
 Gaussian, Inc.
 340 Quinnipiac St., Bldg. 40, Wallingford CT 06492
  
  
 ---------------------------------------------------------------
 Warning -- This program may not be used in any manner that
 competes with the business of Gaussian, Inc. or will provide
 assistance to any competitor of Gaussian, Inc.  The licensee
 of this program is prohibited from giving any competitor of
 Gaussian, Inc. access to this program.  By using this program,
 the user acknowledges that Gaussian, Inc. is engaged in the
 business of creating and licensing software in the field of
 computational chemistry and represents and warrants to the
 licensee that it is not a competitor of Gaussian, Inc. and that
 it will not use this program in any manner prohibited above.
 ---------------------------------------------------------------
  

 Cite this work as:
 Gaussian 16, Revision C.02,
 M. J. Frisch, G. W. Trucks, H. B. Schlegel, G. E. Scuseria, 
 M. A. Robb, J. R. Cheeseman, G. Scalmani, V. Barone, 
 G. A. Petersson, H. Nakatsuji, X. Li, M. Caricato, A. V. Marenich, 
 J. Bloino, B. G. Janesko, R. Gomperts, B. Mennucci, H. P. Hratchian, 
 J. V. Ortiz, A. F. Izmaylov, J. L. Sonnenberg, D. Williams-Young, 
 F. Ding, F. Lipparini, F. Egidi, J. Goings, B. Peng, A. Petrone, 
 T. Henderson, D. Ranasinghe, V. G. Zakrzewski, J. Gao, N. Rega, 
 G. Zheng, W. Liang, M. Hada, M. Ehara, K. Toyota, R. Fukuda, 
 J. Hasegawa, M. Ishida, T. Nakajima, Y. Honda, O. Kitao, H. Nakai, 
 T. Vreven, K. Throssell, J. A. Montgomery, Jr., J. E. Peralta, 
 F. Ogliaro, M. J. Bearpark, J. J. Heyd, E. N. Brothers, K. N. Kudin, 
 V. N. Staroverov, T. A. Keith, R. Kobayashi, J. Normand, 
 K. Raghavachari, A. P. Rendell, J. C. Burant, S. S. Iyengar, 
 J. Tomasi, M. Cossi, J. M. Millam, M. Klene, C. Adamo, R. Cammi, 
 J. W. Ochterski, R. L. Martin, K. Morokuma, O. Farkas, 
 J. B. Foresman, and D. J. Fox, Gaussian, Inc., Wallingford CT, 2019.
 
 ******************************************
 Gaussian 16:  ES64L-G16RevC.02  7-Dec-2021
                 1-Jul-2023 
 ******************************************
 %mem=8GB
 %NPROCS=4
 Will use up to    4 processors via shared memory.
 %NoSave
 ---------------------------------------------------------
 #MP2/6-31G* SCF=Tight Opt=(ModRedun, MaxCycle=20 ) NoSymm
 ---------------------------------------------------------
 1/6=20,18=120,19=15,38=1/1,3;
 2/9=110,12=2,15=1,17=6,18=5,40=1/2;
 3/5=1,6=6,7=1,11=9,25=1,30=1,71=1/1,2,3;
 4//1;
 5/5=2,32=2,38=5/2;
 8/6=4,10=2/1;
 9/15=2,16=-3/6;
 10/5=1,31=1/2;
 6/7=2,8=2,9=2,10=2/1;
 7/12=2,30=1/1,2,3,16;
 1/6=20,18=20,19=15/3(2);
 2/9=110,15=1/2;
 99//99;
 2/9=110,15=1/2;
 3/5=1,6=6,7=1,11=9,25=1,30=1,71=1/1,2,3;
 4/5=5,16=3,69=1/1;
 5/5=2,32=2,38=5/2;
 8/6=4,10=2/1;
 9/15=2,16=-3/6;
 10/5=1,31=1/2;
 7/12=2,30=1/1,2,3,16;
 1/6=20,18=20,19=15/3(-8);
 2/9=110,15=1/2;
 6/7=2,8=2,9=2,10=2/1;
 99/9=10/99;
 --------
 MolName:
 --------
 Symbolic Z-matrix:
 Charge =  0 Multiplicity = 1
 8                    0    -3.60905  -1.46131  -0.18042 
 7                    0    -3.24729  -0.29655  -0.01921 
 8                    0    -4.02804   0.64226   0.14216 
 6                    0    -1.74508  -0.00366  -0.04573 
 6                    0    -1.36437   1.30694   0.2727 
 7                    0    -0.07928   1.77116   0.3899 
 6                    0     1.20057   1.00118   0.35978 
 1                    0     1.86443   1.49783   1.11421 
 6                    0     1.9662    1.04999  -0.98594 
 6                    0     3.37529   0.45705  -0.79523 
 6                    0     3.30594  -0.95899  -0.20177 
 6                    0     2.45585  -0.98975   1.08689 
 6                    0     1.0219   -0.44599   0.84022 
 1                    0     0.47224  -0.48397   1.80993 
 7                    0     0.36279  -1.30828  -0.1433 
 6                    0    -0.87769  -1.09556  -0.44278 
 1                    0    -2.15617   2.04026   0.49873 
 1                    0     0.1482    2.75403   0.22116 
 1                    0     1.41523   0.47677  -1.76159 
 1                    0     2.05752   2.1      -1.33638 
 1                    0     3.91113   0.43124  -1.76927 
 1                    0     3.95448   1.10775  -0.10257 
 1                    0     2.85635  -1.64564  -0.9542 
 1                    0     4.33189  -1.32789   0.01626 
 1                    0     2.39157  -2.03623   1.45766 
 1                    0     2.95249  -0.38227   1.87228 
 1                    0    -1.37612  -1.83739  -1.08551 
 
 The following ModRedundant input section has been read:
 B       4      16 F                                                           
 D       1       2       4      16 F                                           
 D       7      13      15      16 F                                           
 D       7       9      10      11 F                                           
 D       9      10      11      12 F                                           
 D       6       7      13      15 F                                           
 

 GradGradGradGradGradGradGradGradGradGradGradGradGradGradGradGradGradGrad
 Berny optimization.
 Initialization pass.
                           ----------------------------
                           !    Initial Parameters    !
                           ! (Angstroms and Degrees)  !
 --------------------------                            --------------------------
 ! Name  Definition              Value          Derivative Info.                !
 --------------------------------------------------------------------------------
 ! R1    R(1,2)                  1.2303         estimate D2E/DX2                !
 ! R2    R(2,3)                  1.2317         estimate D2E/DX2                !
 ! R3    R(2,4)                  1.5307         estimate D2E/DX2                !
 ! R4    R(4,5)                  1.4014         estimate D2E/DX2                !
 ! R5    R(4,16)                 1.4499         Frozen                          !
 ! R6    R(5,6)                  1.3714         estimate D2E/DX2                !
 ! R7    R(5,17)                 1.1026         estimate D2E/DX2                !
 ! R8    R(6,7)                  1.4939         estimate D2E/DX2                !
 ! R9    R(6,18)                 1.0229         estimate D2E/DX2                !
 ! R10   R(7,8)                  1.121          estimate D2E/DX2                !
 ! R11   R(7,9)                  1.549          estimate D2E/DX2                !
 ! R12   R(7,13)                 1.5353         estimate D2E/DX2                !
 ! R13   R(9,10)                 1.5406         estimate D2E/DX2                !
 ! R14   R(9,19)                 1.1108         estimate D2E/DX2                !
 ! R15   R(9,20)                 1.1107         estimate D2E/DX2                !
 ! R16   R(10,11)                1.5369         estimate D2E/DX2                !
 ! R17   R(10,21)                1.112          estimate D2E/DX2                !
 ! R18   R(10,22)                1.1129         estimate D2E/DX2                !
 ! R19   R(11,12)                1.5441         estimate D2E/DX2                !
 ! R20   R(11,23)                1.1134         estimate D2E/DX2                !
 ! R21   R(11,24)                1.1118         estimate D2E/DX2                !
 ! R22   R(12,13)                1.5533         estimate D2E/DX2                !
 ! R23   R(12,25)                1.1121         estimate D2E/DX2                !
 ! R24   R(12,26)                1.1102         estimate D2E/DX2                !
 ! R25   R(13,14)                1.1153         estimate D2E/DX2                !
 ! R26   R(13,15)                1.4647         estimate D2E/DX2                !
 ! R27   R(15,16)                1.2937         estimate D2E/DX2                !
 ! R28   R(16,27)                1.1008         estimate D2E/DX2                !
 ! A1    A(1,2,3)              123.5334         estimate D2E/DX2                !
 ! A2    A(1,2,4)              117.8695         estimate D2E/DX2                !
 ! A3    A(3,2,4)              118.5886         estimate D2E/DX2                !
 ! A4    A(2,4,5)              116.206          estimate D2E/DX2                !
 ! A5    A(2,4,16)             116.5988         estimate D2E/DX2                !
 ! A6    A(5,4,16)             127.1551         estimate D2E/DX2                !
 ! A7    A(4,5,6)              126.1959         estimate D2E/DX2                !
 ! A8    A(4,5,17)             118.259          estimate D2E/DX2                !
 ! A9    A(6,5,17)             115.4846         estimate D2E/DX2                !
 ! A10   A(5,6,7)              128.8003         estimate D2E/DX2                !
 ! A11   A(5,6,18)             121.3035         estimate D2E/DX2                !
 ! A12   A(7,6,18)             107.5419         estimate D2E/DX2                !
 ! A13   A(6,7,8)              105.393          estimate D2E/DX2                !
 ! A14   A(6,7,9)              115.1324         estimate D2E/DX2                !
 ! A15   A(6,7,13)             112.3228         estimate D2E/DX2                !
 ! A16   A(8,7,9)              106.1415         estimate D2E/DX2                !
 ! A17   A(8,7,13)             106.0183         estimate D2E/DX2                !
 ! A18   A(9,7,13)             111.0439         estimate D2E/DX2                !
 ! A19   A(7,9,10)             109.4144         estimate D2E/DX2                !
 ! A20   A(7,9,19)             110.1952         estimate D2E/DX2                !
 ! A21   A(7,9,20)             110.1527         estimate D2E/DX2                !
 ! A22   A(10,9,19)            109.9688         estimate D2E/DX2                !
 ! A23   A(10,9,20)            109.1292         estimate D2E/DX2                !
 ! A24   A(19,9,20)            107.958          estimate D2E/DX2                !
 ! A25   A(9,10,11)            111.1694         estimate D2E/DX2                !
 ! A26   A(9,10,21)            109.9522         estimate D2E/DX2                !
 ! A27   A(9,10,22)            109.1477         estimate D2E/DX2                !
 ! A28   A(11,10,21)           109.7907         estimate D2E/DX2                !
 ! A29   A(11,10,22)           108.7743         estimate D2E/DX2                !
 ! A30   A(21,10,22)           107.9358         estimate D2E/DX2                !
 ! A31   A(10,11,12)           111.4353         estimate D2E/DX2                !
 ! A32   A(10,11,23)           108.9936         estimate D2E/DX2                !
 ! A33   A(10,11,24)           109.8632         estimate D2E/DX2                !
 ! A34   A(12,11,23)           109.2318         estimate D2E/DX2                !
 ! A35   A(12,11,24)           109.7394         estimate D2E/DX2                !
 ! A36   A(23,11,24)           107.4872         estimate D2E/DX2                !
 ! A37   A(11,12,13)           111.6375         estimate D2E/DX2                !
 ! A38   A(11,12,25)           109.1969         estimate D2E/DX2                !
 ! A39   A(11,12,26)           109.4645         estimate D2E/DX2                !
 ! A40   A(13,12,25)           109.2083         estimate D2E/DX2                !
 ! A41   A(13,12,26)           109.4976         estimate D2E/DX2                !
 ! A42   A(25,12,26)           107.7524         estimate D2E/DX2                !
 ! A43   A(7,13,12)            105.7976         estimate D2E/DX2                !
 ! A44   A(7,13,14)            111.1947         estimate D2E/DX2                !
 ! A45   A(7,13,15)            113.4018         estimate D2E/DX2                !
 ! A46   A(12,13,14)           107.7565         estimate D2E/DX2                !
 ! A47   A(12,13,15)           108.4194         estimate D2E/DX2                !
 ! A48   A(14,13,15)           109.9993         estimate D2E/DX2                !
 ! A49   A(13,15,16)           119.3487         estimate D2E/DX2                !
 ! A50   A(4,16,15)            129.3492         estimate D2E/DX2                !
 ! A51   A(4,16,27)            113.3597         estimate D2E/DX2                !
 ! A52   A(15,16,27)           117.2897         estimate D2E/DX2                !
 ! D1    D(1,2,4,5)           -173.8791         estimate D2E/DX2                !
 ! D2    D(1,2,4,16)             8.2581         Frozen                          !
 ! D3    D(3,2,4,5)              7.1421         estimate D2E/DX2                !
 ! D4    D(3,2,4,16)          -170.7207         estimate D2E/DX2                !
 ! D5    D(2,4,5,6)            175.815          estimate D2E/DX2                !
 ! D6    D(2,4,5,17)            -1.2185         estimate D2E/DX2                !
 ! D7    D(16,4,5,6)            -6.583          estimate D2E/DX2                !
 ! D8    D(16,4,5,17)          176.3836         estimate D2E/DX2                !
 ! D9    D(2,4,16,15)         -154.0278         estimate D2E/DX2                !
 ! D10   D(2,4,16,27)           25.5349         estimate D2E/DX2                !
 ! D11   D(5,4,16,15)           28.3783         estimate D2E/DX2                !
 ! D12   D(5,4,16,27)         -152.059          estimate D2E/DX2                !
 ! D13   D(4,5,6,7)             -7.2513         estimate D2E/DX2                !
 ! D14   D(4,5,6,18)           153.0638         estimate D2E/DX2                !
 ! D15   D(17,5,6,7)           169.8542         estimate D2E/DX2                !
 ! D16   D(17,5,6,18)          -29.8307         estimate D2E/DX2                !
 ! D17   D(5,6,7,8)           -142.503          estimate D2E/DX2                !
 ! D18   D(5,6,7,9)            100.9031         estimate D2E/DX2                !
 ! D19   D(5,6,7,13)           -27.5142         estimate D2E/DX2                !
 ! D20   D(18,6,7,8)            55.0657         estimate D2E/DX2                !
 ! D21   D(18,6,7,9)           -61.5283         estimate D2E/DX2                !
 ! D22   D(18,6,7,13)          170.0545         estimate D2E/DX2                !
 ! D23   D(6,7,9,10)           169.037          estimate D2E/DX2                !
 ! D24   D(6,7,9,19)           -69.9351         estimate D2E/DX2                !
 ! D25   D(6,7,9,20)            49.073          estimate D2E/DX2                !
 ! D26   D(8,7,9,10)            52.8691         estimate D2E/DX2                !
 ! D27   D(8,7,9,19)           173.8971         estimate D2E/DX2                !
 ! D28   D(8,7,9,20)           -67.0949         estimate D2E/DX2                !
 ! D29   D(13,7,9,10)          -61.9118         estimate D2E/DX2                !
 ! D30   D(13,7,9,19)           59.1161         estimate D2E/DX2                !
 ! D31   D(13,7,9,20)          178.1242         estimate D2E/DX2                !
 ! D32   D(6,7,13,12)         -166.2758         estimate D2E/DX2                !
 ! D33   D(6,7,13,14)          -49.5547         estimate D2E/DX2                !
 ! D34   D(6,7,13,15)           75.0225         Frozen                          !
 ! D35   D(8,7,13,12)          -51.6676         estimate D2E/DX2                !
 ! D36   D(8,7,13,14)           65.0535         estimate D2E/DX2                !
 ! D37   D(8,7,13,15)         -170.3692         estimate D2E/DX2                !
 ! D38   D(9,7,13,12)           63.1902         estimate D2E/DX2                !
 ! D39   D(9,7,13,14)          179.9113         estimate D2E/DX2                !
 ! D40   D(9,7,13,15)          -55.5115         estimate D2E/DX2                !
 ! D41   D(7,9,10,11)           54.8118         Frozen                          !
 ! D42   D(7,9,10,21)          176.6052         estimate D2E/DX2                !
 ! D43   D(7,9,10,22)          -65.1754         estimate D2E/DX2                !
 ! D44   D(19,9,10,11)         -66.3534         estimate D2E/DX2                !
 ! D45   D(19,9,10,21)          55.44           estimate D2E/DX2                !
 ! D46   D(19,9,10,22)         173.6594         estimate D2E/DX2                !
 ! D47   D(20,9,10,11)         175.4015         estimate D2E/DX2                !
 ! D48   D(20,9,10,21)         -62.8051         estimate D2E/DX2                !
 ! D49   D(20,9,10,22)          55.4143         estimate D2E/DX2                !
 ! D50   D(9,10,11,12)         -52.8218         Frozen                          !
 ! D51   D(9,10,11,23)          67.8007         estimate D2E/DX2                !
 ! D52   D(9,10,11,24)        -174.6671         estimate D2E/DX2                !
 ! D53   D(21,10,11,12)       -174.7092         estimate D2E/DX2                !
 ! D54   D(21,10,11,23)        -54.0867         estimate D2E/DX2                !
 ! D55   D(21,10,11,24)         63.4455         estimate D2E/DX2                !
 ! D56   D(22,10,11,12)         67.3867         estimate D2E/DX2                !
 ! D57   D(22,10,11,23)       -171.9908         estimate D2E/DX2                !
 ! D58   D(22,10,11,24)        -54.4586         estimate D2E/DX2                !
 ! D59   D(10,11,12,13)         56.5484         estimate D2E/DX2                !
 ! D60   D(10,11,12,25)        177.4056         estimate D2E/DX2                !
 ! D61   D(10,11,12,26)        -64.8531         estimate D2E/DX2                !
 ! D62   D(23,11,12,13)        -63.9343         estimate D2E/DX2                !
 ! D63   D(23,11,12,25)         56.9229         estimate D2E/DX2                !
 ! D64   D(23,11,12,26)        174.6642         estimate D2E/DX2                !
 ! D65   D(24,11,12,13)        178.4653         estimate D2E/DX2                !
 ! D66   D(24,11,12,25)        -60.6774         estimate D2E/DX2                !
 ! D67   D(24,11,12,26)         57.0639         estimate D2E/DX2                !
 ! D68   D(11,12,13,7)         -60.2079         estimate D2E/DX2                !
 ! D69   D(11,12,13,14)       -179.2286         estimate D2E/DX2                !
 ! D70   D(11,12,13,15)         61.7489         estimate D2E/DX2                !
 ! D71   D(25,12,13,7)         178.9415         estimate D2E/DX2                !
 ! D72   D(25,12,13,14)         59.9208         estimate D2E/DX2                !
 ! D73   D(25,12,13,15)        -59.1017         estimate D2E/DX2                !
 ! D74   D(26,12,13,7)          61.1744         estimate D2E/DX2                !
 ! D75   D(26,12,13,14)        -57.8463         estimate D2E/DX2                !
 ! D76   D(26,12,13,15)       -176.8688         estimate D2E/DX2                !
 ! D77   D(7,13,15,16)         -67.1601         Frozen                          !
 ! D78   D(12,13,15,16)        175.6599         estimate D2E/DX2                !
 ! D79   D(14,13,15,16)         58.0612         estimate D2E/DX2                !
 ! D80   D(13,15,16,4)           7.159          estimate D2E/DX2                !
 ! D81   D(13,15,16,27)       -172.3893         estimate D2E/DX2                !
 --------------------------------------------------------------------------------
 Trust Radius=3.00D-01 FncErr=1.00D-07 GrdErr=1.00D-07 EigMax=2.50D+02 EigMin=1.00D-04
 Number of steps in this run=     20 maximum allowed number of steps=    162.
 GradGradGradGradGradGradGradGradGradGradGradGradGradGradGradGradGradGrad

                          Input orientation:                          
 ---------------------------------------------------------------------
 Center     Atomic      Atomic             Coordinates (Angstroms)
 Number     Number       Type             X           Y           Z
 ---------------------------------------------------------------------
      1          8           0       -3.609050   -1.461310   -0.180420
      2          7           0       -3.247290   -0.296550   -0.019210
      3          8           0       -4.028040    0.642260    0.142160
      4          6           0       -1.745080   -0.003660   -0.045730
      5          6           0       -1.364370    1.306940    0.272700
      6          7           0       -0.079280    1.771160    0.389900
      7          6           0        1.200570    1.001180    0.359780
      8          1           0        1.864430    1.497830    1.114210
      9          6           0        1.966200    1.049990   -0.985940
     10          6           0        3.375290    0.457050   -0.795230
     11          6           0        3.305940   -0.958990   -0.201770
     12          6           0        2.455850   -0.989750    1.086890
     13          6           0        1.021900   -0.445990    0.840220
     14          1           0        0.472240   -0.483970    1.809930
     15          7           0        0.362790   -1.308280   -0.143300
     16          6           0       -0.877690   -1.095560   -0.442780
     17          1           0       -2.156170    2.040260    0.498730
     18          1           0        0.148200    2.754030    0.221160
     19          1           0        1.415230    0.476770   -1.761590
     20          1           0        2.057520    2.100000   -1.336380
     21          1           0        3.911130    0.431240   -1.769270
     22          1           0        3.954480    1.107750   -0.102570
     23          1           0        2.856350   -1.645640   -0.954200
     24          1           0        4.331890   -1.327890    0.016260
     25          1           0        2.391570   -2.036230    1.457660
     26          1           0        2.952490   -0.382270    1.872280
     27          1           0       -1.376120   -1.837390   -1.085510
 ---------------------------------------------------------------------
                    Distance matrix (angstroms):
                    1          2          3          4          5
     1  O    0.000000
     2  N    1.230254   0.000000
     3  O    2.169013   1.231655   0.000000
     4  C    2.370078   1.530726   2.380005   0.000000
     5  C    3.592647   2.490337   2.748450   1.401431   0.000000
     6  N    4.820104   3.805139   4.114425   2.472782   1.371383
     7  C    5.430296   4.648784   5.245431   3.138630   2.584568
     8  H    6.355435   5.534810   6.033082   4.077805   3.342114
     9  C    6.167569   5.470669   6.113082   3.970865   3.569719
    10  C    7.269051   6.710342   7.464737   5.195401   4.932258
    11  C    6.933244   6.589156   7.514623   5.142938   5.212615
    12  C    6.213812   5.850623   6.752540   4.461279   4.531200
    13  C    4.849565   4.357400   5.212818   2.938833   3.014818
    14  H    4.644741   4.149191   4.929743   2.930986   2.990580
    15  N    3.974960   3.751223   4.813053   2.480861   3.161568
    16  C    2.768200   2.536303   3.645117   1.449917   2.553581
    17  H    3.851376   2.630492   2.363354   2.154772   1.102631
    18  H    5.661032   4.570905   4.680469   3.355681   2.093942
    19  H    5.612454   5.037162   5.768955   3.628023   3.543119
    20  H    6.791847   5.968199   6.430018   4.533313   3.863601
    21  H    7.915763   7.405090   8.168752   5.928949   5.724281
    22  H    7.988311   7.337881   7.999825   5.807189   5.335791
    23  H    6.514147   6.320496   7.336983   4.969364   5.295044
    24  H    7.944496   7.649110   8.589864   6.219887   6.281359
    25  H    6.246701   6.083122   7.079283   4.848030   5.166043
    26  H    6.959290   6.482465   7.264350   5.088150   4.903811
    27  H    2.438565   2.648105   3.832560   2.140056   3.425155
                    6          7          8          9         10
     6  N    0.000000
     7  C    1.493918   0.000000
     8  H    2.092210   1.120953   0.000000
     9  C    2.568465   1.549043   2.149779   0.000000
    10  C    3.881427   2.521811   2.647996   1.540611   0.000000
    11  C    4.389021   2.930902   3.137789   2.538863   1.536936
    12  C    3.812519   2.463376   2.557064   2.949054   2.545776
    13  C    2.516176   1.535268   2.136203   2.542542   3.004767
    14  H    2.721446   2.199789   2.519871   3.521624   4.012490
    15  N    3.156371   2.507702   3.422062   2.973618   3.551980
    16  C    3.090129   3.059344   4.082782   3.603626   4.541218
    17  H    2.097077   3.516632   4.103446   4.492083   5.897282
    18  H    1.022865   2.049190   2.306734   2.768748   4.089410
    19  H    2.921971   2.195745   3.084570   1.110757   2.185423
    20  H    2.766603   2.195160   2.530866   1.110706   2.174545
    21  H    4.730832   3.493540   3.693379   2.186140   1.112000
    22  H    4.117506   2.794485   2.449699   2.176450   1.112946
    23  H    4.700963   3.387301   3.891482   2.838978   2.171607
    24  H    5.403900   3.917619   3.908778   3.500744   2.181653
    25  H    4.662771   3.442337   3.589626   3.959403   3.501380
    26  H    4.003291   2.696445   2.300722   3.345678   2.828220
    27  H    4.108560   4.097032   5.144281   4.417916   5.284375
                   11         12         13         14         15
    11  C    0.000000
    12  C    1.544100   0.000000
    13  C    2.562372   1.553298   0.000000
    14  H    3.507483   2.171016   1.115305   0.000000
    15  N    2.964381   2.448618   1.464678   2.122869   0.000000
    16  C    4.192791   3.669274   2.382535   2.696490   1.293727
    17  H    6.270634   5.549560   4.049467   3.872922   4.239113
    18  H    4.892516   4.482257   3.374421   3.621303   4.084268
    19  H    2.840639   3.368592   2.788478   3.816806   2.629239
    20  H    3.493324   3.946829   3.506018   4.369128   3.988975
    21  H    2.180837   3.506380   3.990817   5.047202   4.273222
    22  H    2.168377   2.839051   3.450070   4.279863   4.328868
    23  H    1.113450   2.180972   2.832721   3.830649   2.643712
    24  H    1.111844   2.186347   3.523165   4.338934   3.972354
    25  H    2.179501   1.112080   2.187714   2.493478   2.684946
    26  H    2.181563   1.110189   2.190065   2.483117   3.409781
    27  H    4.845025   4.485734   3.375638   3.692120   2.047321
                   16         17         18         19         20
    16  C    0.000000
    17  H    3.514871   0.000000
    18  H    4.038887   2.428299   0.000000
    19  H    3.077168   4.506489   3.274534   0.000000
    20  H    4.430077   4.596344   2.549351   1.796724   0.000000
    21  H    5.198412   6.674196   4.849413   2.496327   2.531407
    22  H    5.321671   6.210570   4.159664   3.098108   2.470891
    23  H    3.808831   6.389227   5.298362   2.689485   3.848897
    24  H    5.234923   7.326127   5.848702   3.863218   4.330453
    25  H    3.896741   6.182172   5.432148   4.199045   5.002664
    26  H    4.531949   5.818393   4.519582   4.038085   4.154291
    27  H    1.100839   4.260806   5.011195   3.688368   5.230283
                   21         22         23         24         25
    21  H    0.000000
    22  H    1.799287   0.000000
    23  H    2.467859   3.084205   0.000000
    24  H    2.541593   2.467570   1.794429   0.000000
    25  H    4.337113   3.842085   2.487097   2.518774   0.000000
    26  H    3.852490   2.669115   3.097472   2.498350   1.795028
    27  H    5.793895   6.168899   4.238846   5.835655   4.550026
                   26         27
    26  H    0.000000
    27  H    5.440842   0.000000
 Symmetry turned off by external request.
 Stoichiometry    C9H13N3O2
 Framework group  C1[X(C9H13N3O2)]
 Deg. of freedom    75
 Full point group                 C1      NOp   1
 Rotational constants (GHZ):           1.6797795           0.4014763           0.3564335
 Standard basis: 6-31G(d) (6D, 7F)
   236 basis functions,   444 primitive gaussians,   236 cartesian basis functions
    52 alpha electrons       52 beta electrons
       nuclear repulsion energy       918.7735902611 Hartrees.
 NAtoms=   27 NActive=   27 NUniq=   27 SFac= 1.00D+00 NAtFMM=   60 NAOKFM=F Big=F
 Integral buffers will be    131072 words long.
 Raffenetti 1 integral format.
 Two-electron integral symmetry is turned off.
 One-electron integrals computed using PRISM.
 NBasis=   236 RedAO= T EigKep=  1.22D-03  NBF=   236
 NBsUse=   236 1.00D-06 EigRej= -1.00D+00 NBFU=   236
 ExpMin= 1.61D-01 ExpMax= 5.48D+03 ExpMxC= 8.25D+02 IAcc=3 IRadAn=         5 AccDes= 0.00D+00
 Harris functional with IExCor=  205 and IRadAn=       5 diagonalized for initial guess.
 HarFok:  IExCor=  205 AccDes= 0.00D+00 IRadAn=         5 IDoV= 1 UseB2=F ITyADJ=14
 ICtDFT=  3500011 ScaDFX=  1.000000  1.000000  1.000000  1.000000
 FoFCou: FMM=F IPFlag=           0 FMFlag=      100000 FMFlg1=           0
         NFxFlg=           0 DoJE=T BraDBF=F KetDBF=T FulRan=T
         wScrn=  0.000000 ICntrl=       500 IOpCl=  0 I1Cent=   200000004 NGrid=           0
         NMat0=    1 NMatS0=      1 NMatT0=    0 NMatD0=    1 NMtDS0=    0 NMtDT0=    0
 Symmetry not used in FoFCou.
 Keep R1 ints in memory in canonical form, NReq=397720213.
 Requested convergence on RMS density matrix=1.00D-08 within 128 cycles.
 Requested convergence on MAX density matrix=1.00D-06.
 Requested convergence on             energy=1.00D-06.
 No special actions if energy rises.
 SCF Done:  E(RHF) =  -661.280892878     A.U. after   16 cycles
            NFock= 16  Conv=0.84D-08     -V/T= 2.0036
 ExpMin= 1.61D-01 ExpMax= 5.48D+03 ExpMxC= 8.25D+02 IAcc=3 IRadAn=         5 AccDes= 0.00D+00
 HarFok:  IExCor=  205 AccDes= 0.00D+00 IRadAn=         5 IDoV=-2 UseB2=F ITyADJ=14
 ICtDFT= 12500011 ScaDFX=  1.000000  1.000000  1.000000  1.000000
 Range of M.O.s used for correlation:    15   236
 NBasis=   236 NAE=    52 NBE=    52 NFC=    14 NFV=     0
 NROrb=    222 NOA=    38 NOB=    38 NVA=   184 NVB=   184
 Fully direct method using O(ONN) memory.
 JobTyp=1 Pass  1:  I=  15 to  52 NPSUse=  4 ParTrn=T ParDer=T DoDerP=T.
 Spin components of T(2) and E(2):
     alpha-alpha T2 =       0.9203911642D-01 E2=     -0.2720118332D+00
     alpha-beta  T2 =       0.4994498061D+00 E2=     -0.1493825739D+01
     beta-beta   T2 =       0.9203911642D-01 E2=     -0.2720118332D+00
 ANorm=    0.1297508396D+01
 E2 =    -0.2037849405D+01 EUMP2 =    -0.66331874228335D+03
          IDoAtm=111111111111111111111111111
          Differentiating once with respect to electric field.
                with respect to dipole field.
          Differentiating once with respect to nuclear coordinates.
 Keep R1 ints in memory in canonical form, NReq=397723379.
          There are     1 degrees of freedom in the 1st order CPHF.  IDoFFX=0 NUNeed=     1.
 LinEq1:  Iter=  0 NonCon=     1 RMS=4.62D-03 Max=1.09D-01 NDo=     1
 AX will form     1 AO Fock derivatives at one time.
 LinEq1:  Iter=  1 NonCon=     1 RMS=1.57D-03 Max=2.91D-02 NDo=     1
 LinEq1:  Iter=  2 NonCon=     1 RMS=6.44D-04 Max=1.73D-02 NDo=     1
 LinEq1:  Iter=  3 NonCon=     1 RMS=2.96D-04 Max=9.21D-03 NDo=     1
 LinEq1:  Iter=  4 NonCon=     1 RMS=9.14D-05 Max=2.25D-03 NDo=     1
 LinEq1:  Iter=  5 NonCon=     1 RMS=3.78D-05 Max=1.85D-03 NDo=     1
 LinEq1:  Iter=  6 NonCon=     1 RMS=1.55D-05 Max=5.94D-04 NDo=     1
 LinEq1:  Iter=  7 NonCon=     1 RMS=5.93D-06 Max=9.26D-05 NDo=     1
 LinEq1:  Iter=  8 NonCon=     1 RMS=2.34D-06 Max=5.31D-05 NDo=     1
 LinEq1:  Iter=  9 NonCon=     1 RMS=8.46D-07 Max=2.48D-05 NDo=     1
 LinEq1:  Iter= 10 NonCon=     1 RMS=4.20D-07 Max=1.51D-05 NDo=     1
 LinEq1:  Iter= 11 NonCon=     1 RMS=1.54D-07 Max=5.68D-06 NDo=     1
 LinEq1:  Iter= 12 NonCon=     1 RMS=5.44D-08 Max=7.86D-07 NDo=     1
 LinEq1:  Iter= 13 NonCon=     1 RMS=1.73D-08 Max=3.43D-07 NDo=     1
 LinEq1:  Iter= 14 NonCon=     1 RMS=5.47D-09 Max=1.45D-07 NDo=     1
 LinEq1:  Iter= 15 NonCon=     1 RMS=2.00D-09 Max=5.19D-08 NDo=     1
 LinEq1:  Iter= 16 NonCon=     1 RMS=7.58D-10 Max=1.35D-08 NDo=     1
 LinEq1:  Iter= 17 NonCon=     1 RMS=2.57D-10 Max=4.03D-09 NDo=     1
 LinEq1:  Iter= 18 NonCon=     1 RMS=8.82D-11 Max=1.04D-09 NDo=     1
 LinEq1:  Iter= 19 NonCon=     0 RMS=2.94D-11 Max=3.86D-10 NDo=     1
 Linear equations converged to 1.000D-10 1.000D-09 after    19 iterations.
 End of Minotr F.D. properties file   721 does not exist.
 End of Minotr F.D. properties file   722 does not exist.
 End of Minotr F.D. properties file   788 does not exist.

 **********************************************************************

            Population analysis using the SCF Density.

 **********************************************************************

 Alpha  occ. eigenvalues --  -20.59902 -20.59453 -15.85312 -15.63469 -15.56636
 Alpha  occ. eigenvalues --  -11.36006 -11.30054 -11.30052 -11.29930 -11.27601
 Alpha  occ. eigenvalues --  -11.24623 -11.23861 -11.23350 -11.22814  -1.58518
 Alpha  occ. eigenvalues --   -1.38006  -1.28720  -1.22692  -1.13457  -1.08461
 Alpha  occ. eigenvalues --   -1.01805  -1.00629  -0.93695  -0.89319  -0.84935
 Alpha  occ. eigenvalues --   -0.81698  -0.78036  -0.77096  -0.74407  -0.71264
 Alpha  occ. eigenvalues --   -0.70368  -0.69794  -0.67435  -0.64387  -0.63225
 Alpha  occ. eigenvalues --   -0.61639  -0.60496  -0.57434  -0.56450  -0.54849
 Alpha  occ. eigenvalues --   -0.53596  -0.50714  -0.49493  -0.48515  -0.47796
 Alpha  occ. eigenvalues --   -0.47664  -0.46126  -0.45698  -0.44038  -0.42143
 Alpha  occ. eigenvalues --   -0.39902  -0.33672
 Alpha virt. eigenvalues --    0.07242   0.11655   0.18154   0.21383   0.23373
 Alpha virt. eigenvalues --    0.24273   0.26388   0.27882   0.28564   0.28882
 Alpha virt. eigenvalues --    0.29967   0.31152   0.31848   0.32309   0.33378
 Alpha virt. eigenvalues --    0.33805   0.34246   0.35572   0.37696   0.38919
 Alpha virt. eigenvalues --    0.40654   0.41960   0.44455   0.45294   0.45726
 Alpha virt. eigenvalues --    0.46403   0.49796   0.53322   0.57797   0.59171
 Alpha virt. eigenvalues --    0.63277   0.69224   0.69414   0.72226   0.74089
 Alpha virt. eigenvalues --    0.74847   0.75664   0.75916   0.77884   0.79279
 Alpha virt. eigenvalues --    0.80618   0.83595   0.85138   0.85469   0.88013
 Alpha virt. eigenvalues --    0.89141   0.90169   0.90919   0.91829   0.93965
 Alpha virt. eigenvalues --    0.95231   0.97220   0.99093   1.00424   1.02043
 Alpha virt. eigenvalues --    1.02644   1.05150   1.06498   1.06984   1.08673
 Alpha virt. eigenvalues --    1.09543   1.10496   1.11298   1.12005   1.13276
 Alpha virt. eigenvalues --    1.13837   1.14196   1.15438   1.16389   1.17326
 Alpha virt. eigenvalues --    1.17975   1.20008   1.21384   1.22289   1.23230
 Alpha virt. eigenvalues --    1.23928   1.24340   1.25752   1.27347   1.27717
 Alpha virt. eigenvalues --    1.29544   1.31203   1.32959   1.36024   1.39843
 Alpha virt. eigenvalues --    1.42822   1.46000   1.47366   1.49109   1.52790
 Alpha virt. eigenvalues --    1.54714   1.55382   1.60568   1.61658   1.65823
 Alpha virt. eigenvalues --    1.68661   1.70241   1.72888   1.73612   1.77316
 Alpha virt. eigenvalues --    1.77850   1.80388   1.84452   1.89262   1.92547
 Alpha virt. eigenvalues --    1.94216   1.96325   1.97412   1.98929   2.01217
 Alpha virt. eigenvalues --    2.03113   2.03741   2.06415   2.08952   2.11959
 Alpha virt. eigenvalues --    2.13225   2.14059   2.18084   2.19015   2.19487
 Alpha virt. eigenvalues --    2.20780   2.22078   2.24157   2.25035   2.26629
 Alpha virt. eigenvalues --    2.29080   2.32492   2.33731   2.35637   2.36444
 Alpha virt. eigenvalues --    2.38518   2.40001   2.41762   2.43290   2.46482
 Alpha virt. eigenvalues --    2.49011   2.50671   2.50949   2.57024   2.57498
 Alpha virt. eigenvalues --    2.60854   2.62985   2.66135   2.68690   2.68850
 Alpha virt. eigenvalues --    2.69839   2.70348   2.74831   2.77549   2.80908
 Alpha virt. eigenvalues --    2.85147   2.87184   2.90199   2.91810   2.95841
 Alpha virt. eigenvalues --    2.97718   2.98521   3.02180   3.04060   3.05929
 Alpha virt. eigenvalues --    3.07098   3.12899   3.19271   3.22770   3.27223
 Alpha virt. eigenvalues --    3.30743   3.34117   3.37448   3.44354   3.61373
 Alpha virt. eigenvalues --    4.10043   4.23302   4.32075   4.36500   4.43425
 Alpha virt. eigenvalues --    4.53385   4.59865   4.60549   4.70891   4.77763
 Alpha virt. eigenvalues --    4.96995   4.99286   5.02967   5.10107
          Condensed to atoms (all electrons):
               1          2          3          4          5          6
     1  O    8.298113   0.314606  -0.090288  -0.079425   0.003479  -0.000012
     2  N    0.314606   5.686375   0.307548   0.266467  -0.045479   0.000854
     3  O   -0.090288   0.307548   8.331454  -0.087139   0.007634   0.000466
     4  C   -0.079425   0.266467  -0.087139   5.240625   0.564553  -0.047878
     5  C    0.003479  -0.045479   0.007634   0.564553   4.674215   0.309334
     6  N   -0.000012   0.000854   0.000466  -0.047878   0.309334   7.187970
     7  C    0.000003  -0.000093   0.000002   0.004127  -0.029868   0.198200
     8  H   -0.000000   0.000002  -0.000000  -0.000189   0.002391  -0.049955
     9  C   -0.000000  -0.000003   0.000000   0.000505   0.001647  -0.055954
    10  C   -0.000000   0.000000  -0.000000  -0.000020  -0.000062   0.003313
    11  C   -0.000000  -0.000000  -0.000000  -0.000014   0.000015  -0.000154
    12  C   -0.000000   0.000002  -0.000000  -0.000119  -0.000127   0.003645
    13  C   -0.000019  -0.000036  -0.000003  -0.010519   0.000400  -0.045368
    14  H   -0.000003  -0.000051   0.000000   0.003101   0.005049  -0.005787
    15  N    0.000158   0.001732  -0.000015  -0.062450  -0.004271   0.001906
    16  C    0.003447  -0.028932   0.002120   0.316682  -0.044205  -0.001557
    17  H    0.000125  -0.004179   0.012119  -0.026960   0.376887  -0.034008
    18  H    0.000000  -0.000035   0.000008   0.000948  -0.024248   0.328067
    19  H    0.000000   0.000000   0.000000  -0.000826   0.000688   0.000661
    20  H    0.000000  -0.000000   0.000000  -0.000027   0.000024  -0.001672
    21  H   -0.000000  -0.000000   0.000000   0.000000   0.000001  -0.000059
    22  H   -0.000000   0.000000  -0.000000  -0.000000  -0.000002  -0.000097
    23  H    0.000000  -0.000000   0.000000   0.000027  -0.000000  -0.000024
    24  H    0.000000   0.000000   0.000000   0.000000  -0.000000   0.000004
    25  H    0.000000  -0.000000   0.000000   0.000020  -0.000001  -0.000072
    26  H    0.000000  -0.000000   0.000000   0.000007  -0.000001  -0.000069
    27  H    0.005624  -0.000874   0.000008  -0.069609   0.002395   0.000045
               7          8          9         10         11         12
     1  O    0.000003  -0.000000  -0.000000  -0.000000  -0.000000  -0.000000
     2  N   -0.000093   0.000002  -0.000003   0.000000  -0.000000   0.000002
     3  O    0.000002  -0.000000   0.000000  -0.000000  -0.000000  -0.000000
     4  C    0.004127  -0.000189   0.000505  -0.000020  -0.000014  -0.000119
     5  C   -0.029868   0.002391   0.001647  -0.000062   0.000015  -0.000127
     6  N    0.198200  -0.049955  -0.055954   0.003313  -0.000154   0.003645
     7  C    5.007041   0.416127   0.341174  -0.049360  -0.007746  -0.064393
     8  H    0.416127   0.547462  -0.060345   0.001474  -0.000316  -0.002815
     9  C    0.341174  -0.060345   5.180512   0.318107  -0.053108  -0.006204
    10  C   -0.049360   0.001474   0.318107   5.126337   0.332853  -0.060103
    11  C   -0.007746  -0.000316  -0.053108   0.332853   5.123481   0.330877
    12  C   -0.064393  -0.002815  -0.006204  -0.060103   0.330877   5.136195
    13  C    0.331853  -0.040255  -0.050512  -0.001699  -0.047761   0.368632
    14  H   -0.040522  -0.000881   0.003848  -0.000390   0.003957  -0.040656
    15  N   -0.058552   0.004083  -0.013170   0.001450  -0.007773  -0.074224
    16  C   -0.002363   0.000027  -0.000929  -0.000026   0.000004   0.002500
    17  H    0.001430  -0.000016  -0.000067   0.000001   0.000000   0.000001
    18  H   -0.028380  -0.002643   0.000864  -0.000120   0.000012  -0.000138
    19  H   -0.035023   0.004093   0.385859  -0.032429  -0.002261   0.000623
    20  H   -0.041771  -0.001865   0.397080  -0.037343   0.004144  -0.000365
    21  H    0.004049  -0.000081  -0.035844   0.400153  -0.035816   0.004209
    22  H   -0.004221   0.003504  -0.045718   0.395983  -0.045644  -0.001211
    23  H    0.000432   0.000033  -0.002014  -0.040031   0.396636  -0.036526
    24  H   -0.000142  -0.000098   0.004404  -0.038534   0.400268  -0.037915
    25  H    0.004999  -0.000009  -0.000366   0.004093  -0.033883   0.395333
    26  H   -0.004449   0.001612   0.001042  -0.002392  -0.042423   0.394667
    27  H   -0.000417   0.000009  -0.000063   0.000005   0.000005  -0.000016
              13         14         15         16         17         18
     1  O   -0.000019  -0.000003   0.000158   0.003447   0.000125   0.000000
     2  N   -0.000036  -0.000051   0.001732  -0.028932  -0.004179  -0.000035
     3  O   -0.000003   0.000000  -0.000015   0.002120   0.012119   0.000008
     4  C   -0.010519   0.003101  -0.062450   0.316682  -0.026960   0.000948
     5  C    0.000400   0.005049  -0.004271  -0.044205   0.376887  -0.024248
     6  N   -0.045368  -0.005787   0.001906  -0.001557  -0.034008   0.328067
     7  C    0.331853  -0.040522  -0.058552  -0.002363   0.001430  -0.028380
     8  H   -0.040255  -0.000881   0.004083   0.000027  -0.000016  -0.002643
     9  C   -0.050512   0.003848  -0.013170  -0.000929  -0.000067   0.000864
    10  C   -0.001699  -0.000390   0.001450  -0.000026   0.000001  -0.000120
    11  C   -0.047761   0.003957  -0.007773   0.000004   0.000000   0.000012
    12  C    0.368632  -0.040656  -0.074224   0.002500   0.000001  -0.000138
    13  C    5.026050   0.401953   0.240827  -0.070842  -0.000040   0.003738
    14  H    0.401953   0.520852  -0.036050  -0.004711   0.000067   0.000013
    15  N    0.240827  -0.036050   6.939689   0.589369  -0.000053  -0.000119
    16  C   -0.070842  -0.004711   0.589369   4.711601   0.001765  -0.000229
    17  H   -0.000040   0.000067  -0.000053   0.001765   0.385492  -0.001878
    18  H    0.003738   0.000013  -0.000119  -0.000229  -0.001878   0.323750
    19  H   -0.006190   0.000067   0.007062   0.002574   0.000011  -0.000126
    20  H    0.003870  -0.000048   0.000088  -0.000032  -0.000001   0.002850
    21  H   -0.000376   0.000009  -0.000031   0.000002  -0.000000  -0.000000
    22  H    0.000310  -0.000044   0.000002  -0.000001   0.000000   0.000002
    23  H   -0.005878   0.000009   0.006841   0.000066   0.000000   0.000000
    24  H    0.004142  -0.000057   0.000049   0.000005   0.000000  -0.000000
    25  H   -0.034418  -0.002654   0.000775  -0.000061  -0.000000   0.000002
    26  H   -0.044947  -0.000903   0.004197  -0.000057   0.000000  -0.000001
    27  H    0.005000  -0.000173  -0.039561   0.404431  -0.000062   0.000002
              19         20         21         22         23         24
     1  O    0.000000   0.000000  -0.000000  -0.000000   0.000000   0.000000
     2  N    0.000000  -0.000000  -0.000000   0.000000  -0.000000   0.000000
     3  O    0.000000   0.000000   0.000000  -0.000000   0.000000   0.000000
     4  C   -0.000826  -0.000027   0.000000  -0.000000   0.000027   0.000000
     5  C    0.000688   0.000024   0.000001  -0.000002  -0.000000  -0.000000
     6  N    0.000661  -0.001672  -0.000059  -0.000097  -0.000024   0.000004
     7  C   -0.035023  -0.041771   0.004049  -0.004221   0.000432  -0.000142
     8  H    0.004093  -0.001865  -0.000081   0.003504   0.000033  -0.000098
     9  C    0.385859   0.397080  -0.035844  -0.045718  -0.002014   0.004404
    10  C   -0.032429  -0.037343   0.400153   0.395983  -0.040031  -0.038534
    11  C   -0.002261   0.004144  -0.035816  -0.045644   0.396636   0.400268
    12  C    0.000623  -0.000365   0.004209  -0.001211  -0.036526  -0.037915
    13  C   -0.006190   0.003870  -0.000376   0.000310  -0.005878   0.004142
    14  H    0.000067  -0.000048   0.000009  -0.000044   0.000009  -0.000057
    15  N    0.007062   0.000088  -0.000031   0.000002   0.006841   0.000049
    16  C    0.002574  -0.000032   0.000002  -0.000001   0.000066   0.000005
    17  H    0.000011  -0.000001  -0.000000   0.000000   0.000000   0.000000
    18  H   -0.000126   0.002850  -0.000000   0.000002   0.000000  -0.000000
    19  H    0.506443  -0.024097  -0.002602   0.003755   0.001637  -0.000069
    20  H   -0.024097   0.550740  -0.002609  -0.002982  -0.000049  -0.000090
    21  H   -0.002602  -0.002609   0.526107  -0.024703  -0.002807  -0.002058
    22  H    0.003755  -0.002982  -0.024703   0.569004   0.004059  -0.003603
    23  H    0.001637  -0.000049  -0.002807   0.004059   0.509246  -0.025025
    24  H   -0.000069  -0.000090  -0.002058  -0.003603  -0.025025   0.541463
    25  H   -0.000028   0.000011  -0.000086  -0.000083  -0.002095  -0.002377
    26  H    0.000023  -0.000035  -0.000074   0.002467   0.003823  -0.002774
    27  H    0.000083  -0.000000  -0.000000   0.000000  -0.000022  -0.000000
              25         26         27
     1  O    0.000000   0.000000   0.005624
     2  N   -0.000000  -0.000000  -0.000874
     3  O    0.000000   0.000000   0.000008
     4  C    0.000020   0.000007  -0.069609
     5  C   -0.000001  -0.000001   0.002395
     6  N   -0.000072  -0.000069   0.000045
     7  C    0.004999  -0.004449  -0.000417
     8  H   -0.000009   0.001612   0.000009
     9  C   -0.000366   0.001042  -0.000063
    10  C    0.004093  -0.002392   0.000005
    11  C   -0.033883  -0.042423   0.000005
    12  C    0.395333   0.394667  -0.000016
    13  C   -0.034418  -0.044947   0.005000
    14  H   -0.002654  -0.000903  -0.000173
    15  N    0.000775   0.004197  -0.039561
    16  C   -0.000061  -0.000057   0.404431
    17  H   -0.000000   0.000000  -0.000062
    18  H    0.000002  -0.000001   0.000002
    19  H   -0.000028   0.000023   0.000083
    20  H    0.000011  -0.000035  -0.000000
    21  H   -0.000086  -0.000074  -0.000000
    22  H   -0.000083   0.002467   0.000000
    23  H   -0.002095   0.003823  -0.000022
    24  H   -0.002377  -0.002774  -0.000000
    25  H    0.510613  -0.023133  -0.000010
    26  H   -0.023133   0.561725   0.000001
    27  H   -0.000010   0.000001   0.454521
 Mulliken charges:
               1
     1  O   -0.455807
     2  N    0.502098
     3  O   -0.483913
     4  C   -0.011889
     5  C    0.199554
     6  N   -0.791801
     7  C    0.057864
     8  H    0.178649
     9  C   -0.310746
    10  C   -0.321261
    11  C   -0.315351
    12  C   -0.311874
    13  C   -0.027912
    14  H    0.194008
    15  N   -0.501960
    16  C    0.119354
    17  H    0.289368
    18  H    0.397661
    19  H    0.190071
    20  H    0.154182
    21  H    0.172617
    22  H    0.149222
    23  H    0.191662
    24  H    0.162406
    25  H    0.183428
    26  H    0.151693
    27  H    0.238680
 Sum of Mulliken charges =  -0.00000
 Mulliken charges with hydrogens summed into heavy atoms:
               1
     1  O   -0.455807
     2  N    0.502098
     3  O   -0.483913
     4  C   -0.011889
     5  C    0.488921
     6  N   -0.394141
     7  C    0.236513
     9  C    0.033507
    10  C    0.000577
    11  C    0.038717
    12  C    0.023247
    13  C    0.166095
    15  N   -0.501960
    16  C    0.358034
 Electronic spatial extent (au):  <R**2>=           3116.4787
 Charge=             -0.0000 electrons
 Dipole moment (field-independent basis, Debye):
    X=              5.2925    Y=              4.5912    Z=              0.4970  Tot=              7.0240
 Quadrupole moment (field-independent basis, Debye-Ang):
   XX=           -105.2583   YY=            -80.3086   ZZ=            -82.2349
   XY=             -2.0066   XZ=              0.9359   YZ=              0.0099
 Traceless Quadrupole moment (field-independent basis, Debye-Ang):
   XX=            -15.9910   YY=              8.9587   ZZ=              7.0323
   XY=             -2.0066   XZ=              0.9359   YZ=              0.0099
 Octapole moment (field-independent basis, Debye-Ang**2):
  XXX=             99.7339  YYY=             37.4131  ZZZ=             -5.4643  XYY=             -1.3572
  XXY=             12.2338  XXZ=             -0.7410  XZZ=             -8.5384  YZZ=             -2.7713
  YYZ=              0.7892  XYZ=             -1.3591
 Hexadecapole moment (field-independent basis, Debye-Ang**3):
 XXXX=          -3545.1325 YYYY=           -617.9285 ZZZZ=           -299.4797 XXXY=            -46.3151
 XXXZ=             28.1368 YYYX=            -25.2402 YYYZ=             11.1240 ZZZX=             22.0491
 ZZZY=              8.8412 XXYY=           -654.7912 XXZZ=           -541.8913 YYZZ=           -164.3408
 XXYZ=              2.4512 YYXZ=             10.3447 ZZXY=              1.2232
 N-N= 9.187735902611D+02 E-N=-3.383607750427D+03  KE= 6.589234501477D+02
 Calling FoFJK, ICntrl=  10002127 FMM=F ISym2X=0 I1Cent= 0 IOpClX= 0 NMat=1 NMatS=1 NMatT=0.
 -------------------------------------------------------------------
 Center     Atomic                   Forces (Hartrees/Bohr)
 Number     Number              X              Y              Z
 -------------------------------------------------------------------
      1        8           0.003478885   -0.018514054   -0.002851700
      2        7           0.037612364    0.013959002   -0.002842419
      3        8          -0.004975486    0.015944203    0.003914219
      4        6          -0.014471155    0.024605735    0.015648499
      5        6           0.003086839   -0.015621883   -0.004291395
      6        7           0.013977274   -0.010977964   -0.007307123
      7        6          -0.004659766    0.005291448    0.003356847
      8        1          -0.010068231   -0.001482226   -0.007678866
      9        6          -0.003995380    0.000263477   -0.002078163
     10        6           0.002840466   -0.000911517    0.001058079
     11        6          -0.001142206   -0.004666562   -0.002442776
     12        6           0.000745609   -0.008856866   -0.002824307
     13        6           0.008990669   -0.002978232    0.004158803
     14        1           0.000842361    0.004705885   -0.009721761
     15        7           0.002469525    0.000671218    0.000967117
     16        6          -0.011116874   -0.007877618   -0.002094535
     17        1           0.007144116   -0.005962480   -0.006417598
     18        1          -0.017676341   -0.001597217    0.006270016
     19        1           0.003095375    0.005801938    0.007775588
     20        1          -0.003250841   -0.007302287    0.002600650
     21        1          -0.004358691    0.002433215    0.009609562
     22        1          -0.003998077   -0.003957414   -0.007403864
     23        1           0.004001657    0.006152250    0.009322735
     24        1          -0.009353272    0.002679552   -0.002113119
     25        1          -0.000691236    0.010585054   -0.002406122
     26        1          -0.004779432   -0.004777248   -0.004338705
     27        1           0.006251848    0.002390590    0.002130339
 -------------------------------------------------------------------
 Cartesian Forces:  Max     0.037612364 RMS     0.008678000

 GradGradGradGradGradGradGradGradGradGradGradGradGradGradGradGradGradGrad
 Berny optimization.
 FormGI is forming the generalized inverse of G from B-inverse, IUseBI=4.
 Internal  Forces:  Max     0.037652998 RMS     0.006683823
 Search for a local minimum.
 Step number   1 out of a maximum of   20
 All quantities printed in internal units (Hartrees-Bohrs-Radians)
 Mixed Optimization -- RFO/linear search
 Second derivative matrix not updated -- first step.
 ITU=  0
     Eigenvalues ---    0.00231   0.00771   0.01102   0.01177   0.01288
     Eigenvalues ---    0.01533   0.01624   0.01816   0.02010   0.02073
     Eigenvalues ---    0.02160   0.02697   0.03678   0.04503   0.04694
     Eigenvalues ---    0.04839   0.05087   0.05138   0.05306   0.05903
     Eigenvalues ---    0.06252   0.07243   0.07697   0.07728   0.07871
     Eigenvalues ---    0.07991   0.08052   0.08061   0.10455   0.11736
     Eigenvalues ---    0.12260   0.13500   0.15246   0.15734   0.15990
     Eigenvalues ---    0.16000   0.20067   0.21965   0.23135   0.24983
     Eigenvalues ---    0.25000   0.25000   0.25384   0.26210   0.26651
     Eigenvalues ---    0.27975   0.28085   0.28482   0.29356   0.31467
     Eigenvalues ---    0.32045   0.32149   0.32237   0.32290   0.32381
     Eigenvalues ---    0.32389   0.32406   0.32520   0.32525   0.32580
     Eigenvalues ---    0.33393   0.33590   0.35270   0.43884   0.43906
     Eigenvalues ---    0.49015   0.66590   0.90400   0.909811000.00000
     Eigenvalues --- 1000.000001000.000001000.000001000.000001000.00000
     Eigenvalues --- 1000.000001000.000001000.000001000.000001000.00000
     Eigenvalues --- 1000.000001000.000001000.000001000.000001000.00000
     Eigenvalues --- 1000.000001000.000001000.000001000.000001000.00000
     Eigenvalues --- 1000.000001000.000001000.000001000.000001000.00000
     Eigenvalues --- 1000.000001000.000001000.000001000.000001000.00000
     Eigenvalues --- 1000.000001000.000001000.000001000.000001000.00000
     Eigenvalues --- 1000.000001000.000001000.000001000.000001000.00000
     Eigenvalues --- 1000.000001000.000001000.000001000.000001000.00000
     Eigenvalues --- 1000.000001000.000001000.000001000.000001000.00000
     Eigenvalues --- 1000.000001000.000001000.000001000.000001000.00000
     Eigenvalues --- 1000.000001000.000001000.000001000.000001000.00000
     Eigenvalues --- 1000.000001000.000001000.000001000.000001000.00000
     Eigenvalues --- 1000.000001000.000001000.000001000.000001000.00000
     Eigenvalues --- 1000.000001000.000001000.000001000.000001000.00000
     Eigenvalues --- 1000.000001000.000001000.000001000.000001000.00000
     Eigenvalues --- 1000.000001000.000001000.000001000.000001000.00000
     Eigenvalues --- 1000.000001000.000001000.000001000.000001000.00000
     Eigenvalues --- 1000.00000
 RFO step:  Lambda=-2.29817441D-02 EMin= 2.31137210D-03
 Linear search not attempted -- first point.
 Iteration  1 RMS(Cart)=  0.05432829 RMS(Int)=  0.00105141
 Iteration  2 RMS(Cart)=  0.00112207 RMS(Int)=  0.00025287
 Iteration  3 RMS(Cart)=  0.00000091 RMS(Int)=  0.00025287
 Iteration  1 RMS(Cart)=  0.00003440 RMS(Int)=  0.00003024
 Iteration  2 RMS(Cart)=  0.00001658 RMS(Int)=  0.00003270
 Iteration  3 RMS(Cart)=  0.00001264 RMS(Int)=  0.00003657
 Iteration  4 RMS(Cart)=  0.00001060 RMS(Int)=  0.00004031
 Iteration  5 RMS(Cart)=  0.00000905 RMS(Int)=  0.00004374
 Iteration  6 RMS(Cart)=  0.00000772 RMS(Int)=  0.00004682
 Iteration  7 RMS(Cart)=  0.00000657 RMS(Int)=  0.00004956
 Iteration  8 RMS(Cart)=  0.00000558 RMS(Int)=  0.00005196
 Iteration  9 RMS(Cart)=  0.00000474 RMS(Int)=  0.00005405
 Iteration 10 RMS(Cart)=  0.00000402 RMS(Int)=  0.00005587
 Iteration 11 RMS(Cart)=  0.00000340 RMS(Int)=  0.00005743
 Iteration 12 RMS(Cart)=  0.00000288 RMS(Int)=  0.00005877
 Iteration 13 RMS(Cart)=  0.00000244 RMS(Int)=  0.00005992
 Iteration 14 RMS(Cart)=  0.00000207 RMS(Int)=  0.00006091
 Iteration 15 RMS(Cart)=  0.00000175 RMS(Int)=  0.00006175
 Iteration 16 RMS(Cart)=  0.00000149 RMS(Int)=  0.00006247
 Iteration 17 RMS(Cart)=  0.00000126 RMS(Int)=  0.00006308
 Iteration 18 RMS(Cart)=  0.00000107 RMS(Int)=  0.00006360
 Iteration 19 RMS(Cart)=  0.00000091 RMS(Int)=  0.00006404
 Variable       Old X    -DE/DX   Delta X   Delta X   Delta X     New X
                                 (Linear)    (Quad)   (Total)
    R1        2.32484   0.01688   0.00000   0.01810   0.01810   2.34294
    R2        2.32749   0.01582   0.00000   0.01707   0.01707   2.34456
    R3        2.89265  -0.03765   0.00000  -0.11895  -0.11895   2.77370
    R4        2.64832  -0.03566   0.00000  -0.07693  -0.07680   2.57152
    R5        2.73995  -0.00126   0.00000   0.00000   0.00000   2.73995
    R6        2.59154  -0.02513   0.00000  -0.04914  -0.04921   2.54233
    R7        2.08367  -0.01041   0.00000  -0.02917  -0.02917   2.05450
    R8        2.82310  -0.01796   0.00000  -0.05109  -0.05127   2.77183
    R9        1.93294  -0.00650   0.00000  -0.01408  -0.01408   1.91886
   R10        2.11829  -0.01179   0.00000  -0.03491  -0.03491   2.08338
   R11        2.92727  -0.01302   0.00000  -0.04454  -0.04459   2.88268
   R12        2.90124  -0.00322   0.00000  -0.00570  -0.00558   2.89565
   R13        2.91133  -0.00455   0.00000  -0.01418  -0.01418   2.89716
   R14        2.09903  -0.00996   0.00000  -0.02860  -0.02860   2.07042
   R15        2.09893  -0.00799   0.00000  -0.02295  -0.02295   2.07598
   R16        2.90439  -0.00193   0.00000  -0.00730  -0.00734   2.89705
   R17        2.10138  -0.01057   0.00000  -0.03048  -0.03048   2.07089
   R18        2.10316  -0.00900   0.00000  -0.02603  -0.02603   2.07714
   R19        2.91793  -0.00929   0.00000  -0.02945  -0.02941   2.88852
   R20        2.10412  -0.01171   0.00000  -0.03391  -0.03391   2.07021
   R21        2.10108  -0.00993   0.00000  -0.02863  -0.02863   2.07246
   R22        2.93531  -0.01063   0.00000  -0.03661  -0.03661   2.89870
   R23        2.10153  -0.01072   0.00000  -0.03092  -0.03092   2.07061
   R24        2.09795  -0.00782   0.00000  -0.02243  -0.02243   2.07553
   R25        2.10762  -0.00903   0.00000  -0.02629  -0.02629   2.08133
   R26        2.76784  -0.00495   0.00000  -0.01083  -0.01111   2.75673
   R27        2.44479  -0.00449   0.00000  -0.00568  -0.00562   2.43917
   R28        2.08028  -0.00569   0.00000  -0.01584  -0.01584   2.06444
    A1        2.15606   0.01187   0.00000   0.04367   0.04339   2.19946
    A2        2.05721  -0.00868   0.00000  -0.03159  -0.03187   2.02534
    A3        2.06976  -0.00317   0.00000  -0.01139  -0.01167   2.05809
    A4        2.02818  -0.00752   0.00000  -0.02648  -0.02683   2.00134
    A5        2.03503  -0.00184   0.00000  -0.00564  -0.00603   2.02901
    A6        2.21928   0.00931   0.00000   0.03092   0.03115   2.25042
    A7        2.20253   0.00541   0.00000   0.01620   0.01628   2.21881
    A8        2.06401  -0.00303   0.00000  -0.00953  -0.00968   2.05433
    A9        2.01559  -0.00234   0.00000  -0.00570  -0.00585   2.00974
   A10        2.24799  -0.00330   0.00000  -0.01291  -0.01317   2.23482
   A11        2.11715  -0.01352   0.00000  -0.07481  -0.07524   2.04190
   A12        1.87696   0.01718   0.00000   0.09670   0.09693   1.97389
   A13        1.83946  -0.00226   0.00000  -0.01995  -0.01989   1.81957
   A14        2.00944  -0.00140   0.00000  -0.01531  -0.01534   1.99410
   A15        1.96040   0.00243   0.00000   0.00839   0.00811   1.96851
   A16        1.85252   0.00294   0.00000   0.02307   0.02296   1.87548
   A17        1.85037   0.00086   0.00000   0.01934   0.01911   1.86948
   A18        1.93808  -0.00230   0.00000  -0.01157  -0.01125   1.92683
   A19        1.90964   0.00040   0.00000  -0.00409  -0.00422   1.90542
   A20        1.92327  -0.00082   0.00000  -0.01383  -0.01382   1.90945
   A21        1.92253  -0.00175   0.00000  -0.00707  -0.00706   1.91546
   A22        1.91932  -0.00041   0.00000   0.00586   0.00584   1.92516
   A23        1.90466   0.00292   0.00000   0.02420   0.02418   1.92885
   A24        1.88422  -0.00031   0.00000  -0.00464  -0.00490   1.87932
   A25        1.94027  -0.00067   0.00000   0.00638   0.00632   1.94659
   A26        1.91903  -0.00073   0.00000  -0.00712  -0.00716   1.91187
   A27        1.90499   0.00021   0.00000  -0.00316  -0.00324   1.90174
   A28        1.91621   0.00067   0.00000   0.00700   0.00704   1.92324
   A29        1.89847   0.00172   0.00000   0.01116   0.01116   1.90963
   A30        1.88384  -0.00119   0.00000  -0.01476  -0.01484   1.86900
   A31        1.94491   0.00071   0.00000   0.00479   0.00488   1.94979
   A32        1.90230   0.00060   0.00000   0.00625   0.00621   1.90851
   A33        1.91747   0.00036   0.00000   0.00508   0.00506   1.92254
   A34        1.90645  -0.00120   0.00000  -0.01423  -0.01426   1.89220
   A35        1.91531  -0.00046   0.00000   0.00017   0.00010   1.91541
   A36        1.87600  -0.00004   0.00000  -0.00242  -0.00246   1.87355
   A37        1.94844  -0.00326   0.00000  -0.01924  -0.01925   1.92919
   A38        1.90585   0.00254   0.00000   0.01703   0.01688   1.92273
   A39        1.91052   0.00154   0.00000   0.01359   0.01355   1.92406
   A40        1.90604   0.00031   0.00000  -0.00272  -0.00256   1.90349
   A41        1.91109  -0.00013   0.00000  -0.00425  -0.00418   1.90691
   A42        1.88063  -0.00092   0.00000  -0.00389  -0.00407   1.87656
   A43        1.84652   0.00495   0.00000   0.02438   0.02441   1.87093
   A44        1.94071  -0.00489   0.00000  -0.03411  -0.03454   1.90617
   A45        1.97924   0.00143   0.00000   0.01497   0.01537   1.99461
   A46        1.88071   0.00228   0.00000   0.02984   0.03021   1.91091
   A47        1.89227  -0.00477   0.00000  -0.02948  -0.02969   1.86259
   A48        1.91985   0.00117   0.00000  -0.00344  -0.00331   1.91654
   A49        2.08303  -0.00648   0.00000  -0.01634  -0.01672   2.06631
   A50        2.25757  -0.00655   0.00000  -0.02494  -0.02494   2.23263
   A51        1.97850   0.00737   0.00000   0.03496   0.03444   2.01294
   A52        2.04709  -0.00081   0.00000  -0.00971  -0.01022   2.03687
    D1       -3.03476  -0.00052   0.00000  -0.03116  -0.03054  -3.06530
    D2        0.14413   0.00063   0.00000   0.00000  -0.00000   0.14413
    D3        0.12465  -0.00204   0.00000  -0.07323  -0.07291   0.05174
    D4       -2.97964  -0.00088   0.00000  -0.04207  -0.04237  -3.02201
    D5        3.06855   0.00052   0.00000   0.01735   0.01746   3.08601
    D6       -0.02127  -0.00036   0.00000  -0.00630  -0.00636  -0.02762
    D7       -0.11489  -0.00111   0.00000  -0.01871  -0.01893  -0.13383
    D8        3.07847  -0.00200   0.00000  -0.04236  -0.04275   3.03573
    D9       -2.68829  -0.00268   0.00000  -0.05430  -0.05475  -2.74305
   D10        0.44567   0.00014   0.00000  -0.00349  -0.00376   0.44190
   D11        0.49529  -0.00092   0.00000  -0.01769  -0.01746   0.47783
   D12       -2.65393   0.00189   0.00000   0.03313   0.03352  -2.62041
   D13       -0.12656  -0.00007   0.00000   0.02088   0.02127  -0.10529
   D14        2.67147   0.00435   0.00000   0.07388   0.07261   2.74408
   D15        2.96451   0.00077   0.00000   0.04384   0.04444   3.00895
   D16       -0.52064   0.00519   0.00000   0.09684   0.09578  -0.42486
   D17       -2.48715  -0.00048   0.00000  -0.01609  -0.01570  -2.50284
   D18        1.76109  -0.00184   0.00000  -0.02296  -0.02273   1.73836
   D19       -0.48021   0.00043   0.00000  -0.00055  -0.00065  -0.48086
   D20        0.96108  -0.00008   0.00000  -0.03892  -0.03950   0.92157
   D21       -1.07387  -0.00144   0.00000  -0.04579  -0.04653  -1.12041
   D22        2.96801   0.00083   0.00000  -0.02337  -0.02446   2.94355
   D23        2.95025   0.00164   0.00000   0.02146   0.02119   2.97144
   D24       -1.22060   0.00087   0.00000   0.01735   0.01712  -1.20348
   D25        0.85649  -0.00112   0.00000  -0.00141  -0.00156   0.85492
   D26        0.92274   0.00325   0.00000   0.03923   0.03919   0.96193
   D27        3.03508   0.00248   0.00000   0.03512   0.03512   3.07020
   D28       -1.17103   0.00049   0.00000   0.01636   0.01644  -1.15459
   D29       -1.08056   0.00174   0.00000   0.00928   0.00935  -1.07122
   D30        1.03177   0.00097   0.00000   0.00517   0.00528   1.03705
   D31        3.10885  -0.00102   0.00000  -0.01360  -0.01341   3.09545
   D32       -2.90206  -0.00078   0.00000  -0.01193  -0.01169  -2.91375
   D33       -0.86489   0.00228   0.00000   0.02012   0.01995  -0.84494
   D34        1.30939   0.00106   0.00000   0.00000  -0.00001   1.30938
   D35       -0.90177  -0.00175   0.00000  -0.02022  -0.02007  -0.92184
   D36        1.13540   0.00131   0.00000   0.01183   0.01157   1.14696
   D37       -2.97350   0.00008   0.00000  -0.00829  -0.00839  -2.98190
   D38        1.10288   0.00106   0.00000   0.01206   0.01217   1.11504
   D39        3.14004   0.00412   0.00000   0.04411   0.04380  -3.09934
   D40       -0.96886   0.00290   0.00000   0.02398   0.02384  -0.94502
   D41        0.95665   0.00078   0.00000   0.00000  -0.00000   0.95664
   D42        3.08234   0.00068   0.00000   0.00825   0.00821   3.09055
   D43       -1.13753  -0.00107   0.00000  -0.01578  -0.01576  -1.15328
   D44       -1.15809   0.00180   0.00000   0.01603   0.01608  -1.14200
   D45        0.96761   0.00170   0.00000   0.02427   0.02429   0.99190
   D46        3.03093  -0.00006   0.00000   0.00024   0.00033   3.03126
   D47        3.06133   0.00067   0.00000   0.00372   0.00368   3.06501
   D48       -1.09616   0.00057   0.00000   0.01197   0.01189  -1.08427
   D49        0.96716  -0.00118   0.00000  -0.01206  -0.01208   0.95509
   D50       -0.92191  -0.00073   0.00000   0.00000  -0.00000  -0.92192
   D51        1.18334  -0.00139   0.00000  -0.01058  -0.01060   1.17275
   D52       -3.04852  -0.00088   0.00000  -0.00691  -0.00695  -3.05546
   D53       -3.04925   0.00018   0.00000  -0.00002  -0.00001  -3.04926
   D54       -0.94399  -0.00048   0.00000  -0.01060  -0.01061  -0.95460
   D55        1.10733   0.00003   0.00000  -0.00693  -0.00696   1.10038
   D56        1.17612   0.00022   0.00000   0.00724   0.00727   1.18339
   D57       -3.00181  -0.00043   0.00000  -0.00334  -0.00332  -3.00513
   D58       -0.95048   0.00008   0.00000   0.00033   0.00033  -0.95015
   D59        0.98695  -0.00084   0.00000  -0.01088  -0.01091   0.97604
   D60        3.09631  -0.00084   0.00000  -0.01523  -0.01538   3.08093
   D61       -1.13190   0.00042   0.00000  -0.00214  -0.00211  -1.13401
   D62       -1.11586  -0.00124   0.00000  -0.01232  -0.01231  -1.12817
   D63        0.99349  -0.00124   0.00000  -0.01668  -0.01677   0.97672
   D64        3.04847   0.00001   0.00000  -0.00359  -0.00350   3.04497
   D65        3.11481  -0.00022   0.00000  -0.00114  -0.00114   3.11367
   D66       -1.05902  -0.00023   0.00000  -0.00549  -0.00560  -1.06463
   D67        0.99595   0.00103   0.00000   0.00760   0.00767   1.00362
   D68       -1.05083  -0.00035   0.00000  -0.00252  -0.00246  -1.05329
   D69       -3.12813   0.00160   0.00000   0.00946   0.00911  -3.11902
   D70        1.07772   0.00157   0.00000   0.01314   0.01312   1.09084
   D71        3.12312  -0.00165   0.00000  -0.00967  -0.00956   3.11356
   D72        1.04582   0.00031   0.00000   0.00231   0.00202   1.04783
   D73       -1.03152   0.00028   0.00000   0.00599   0.00602  -1.02550
   D74        1.06769  -0.00064   0.00000  -0.00092  -0.00076   1.06693
   D75       -1.00961   0.00132   0.00000   0.01106   0.01081  -0.99880
   D76       -3.08694   0.00129   0.00000   0.01474   0.01482  -3.07213
   D77       -1.17216   0.00435   0.00000   0.00000  -0.00001  -1.17217
   D78        3.06584   0.00048   0.00000  -0.01983  -0.01964   3.04620
   D79        1.01336  -0.00014   0.00000  -0.03661  -0.03681   0.97655
   D80        0.12495   0.00260   0.00000   0.02967   0.02891   0.15386
   D81       -3.00876  -0.00034   0.00000  -0.02298  -0.02284  -3.03160
         Item               Value     Threshold  Converged?
 Maximum Force            0.037653     0.000450     NO 
 RMS     Force            0.006757     0.000300     NO 
 Maximum Displacement     0.279889     0.001800     NO 
 RMS     Displacement     0.054525     0.001200     NO 
 Predicted change in Energy=-1.288176D-02
 GradGradGradGradGradGradGradGradGradGradGradGradGradGradGradGradGradGrad

                          Input orientation:                          
 ---------------------------------------------------------------------
 Center     Atomic      Atomic             Coordinates (Angstroms)
 Number     Number       Type             X           Y           Z
 ---------------------------------------------------------------------
      1          8           0       -3.485120   -1.422200   -0.219565
      2          7           0       -3.129312   -0.248371   -0.038724
      3          8           0       -3.879929    0.718761    0.162604
      4          6           0       -1.681487   -0.007198   -0.034580
      5          6           0       -1.319533    1.271410    0.258513
      6          7           0       -0.069728    1.752017    0.388712
      7          6           0        1.192600    1.005299    0.368477
      8          1           0        1.824549    1.520291    1.110694
      9          6           0        1.926489    1.051285   -0.968041
     10          6           0        3.326571    0.451202   -0.794566
     11          6           0        3.263817   -0.961555   -0.202599
     12          6           0        2.441343   -0.999090    1.085248
     13          6           0        1.032607   -0.443737    0.840365
     14          1           0        0.463347   -0.457189    1.783143
     15          7           0        0.397476   -1.325070   -0.133268
     16          6           0       -0.844004   -1.124804   -0.424248
     17          1           0       -2.112925    1.993780    0.433736
     18          1           0        0.056137    2.750801    0.255819
     19          1           0        1.359483    0.483912   -1.714351
     20          1           0        1.993650    2.090084   -1.319079
     21          1           0        3.840231    0.433337   -1.762431
     22          1           0        3.913463    1.100301   -0.129427
     23          1           0        2.801143   -1.639076   -0.928570
     24          1           0        4.276384   -1.334402   -0.006545
     25          1           0        2.361403   -2.028332    1.452492
     26          1           0        2.933509   -0.406106    1.867844
     27          1           0       -1.321184   -1.862371   -1.073673
 ---------------------------------------------------------------------
                    Distance matrix (angstroms):
                    1          2          3          4          5
     1  O    0.000000
     2  N    1.239830   0.000000
     3  O    2.210349   1.240686   0.000000
     4  C    2.299901   1.467781   2.323585   0.000000
     5  C    3.489106   2.381887   2.621115   1.360791   0.000000
     6  N    4.702187   3.680396   3.954286   2.423176   1.345343
     7  C    5.302793   4.518454   5.084785   3.073757   2.528581
     8  H    6.214534   5.384243   5.838013   3.992138   3.267018
     9  C    5.996987   5.302251   5.924814   3.874174   3.477003
    10  C    7.087975   6.537517   7.274710   5.086094   4.834046
    11  C    6.764661   6.434873   7.347785   5.039351   5.119166
    12  C    6.083135   5.732286   6.615192   4.385840   4.470219
    13  C    4.742436   4.258232   5.093503   2.884857   2.968644
    14  H    4.531278   4.033610   4.782578   2.847266   2.913969
    15  N    3.884769   3.688693   4.749840   2.463455   3.137407
    16  C    2.665676   2.477781   3.599995   1.449917   2.536559
    17  H    3.738802   2.506691   2.195788   2.099851   1.087195
    18  H    5.493672   4.385075   4.430631   3.272649   2.020167
    19  H    5.416441   4.846984   5.570418   3.508606   3.418987
    20  H    6.600150   5.775156   6.210864   4.422121   3.759814
    21  H    7.712601   7.211825   7.961664   5.802491   5.604440
    22  H    7.817300   7.171320   7.808189   5.704298   5.250146
    23  H    6.329836   6.155988   7.168457   4.853474   5.182670
    24  H    7.764923   7.484974   8.412463   6.103972   6.178576
    25  H    6.111055   5.961538   6.940068   4.758290   5.085585
    26  H    6.825578   6.357490   7.113094   5.007647   4.846893
    27  H    2.367671   2.635421   3.838984   2.156664   3.405188
                    6          7          8          9         10
     6  N    0.000000
     7  C    1.466789   0.000000
     8  H    2.040402   1.102480   0.000000
     9  C    2.513302   1.525447   2.133424   0.000000
    10  C    3.824540   2.492694   2.651232   1.533109   0.000000
    11  C    4.338853   2.912831   3.155280   2.534931   1.533051
    12  C    3.789358   2.467933   2.593908   2.947051   2.533905
    13  C    2.498093   1.532313   2.134867   2.510866   2.955704
    14  H    2.666308   2.161472   2.493087   3.461979   3.958258
    15  N    3.155821   2.512885   3.417610   2.946488   3.488847
    16  C    3.088124   3.051805   4.058787   3.564647   4.473771
    17  H    2.057944   3.450776   4.023204   4.378372   5.785879
    18  H    1.015417   2.085909   2.317811   2.807918   4.133667
    19  H    2.841409   2.153571   3.044872   1.095621   2.171752
    20  H    2.699697   2.160158   2.501411   1.098563   2.176632
    21  H    4.653397   3.446427   3.674137   2.162249   1.095869
    22  H    4.069276   2.767676   2.465330   2.157254   1.099173
    23  H    4.634290   3.355959   3.885091   2.829244   2.159467
    24  H    5.345175   3.889031   3.925428   3.483961   2.170600
    25  H    4.618773   3.426967   3.605240   3.941088   3.482658
    26  H    3.983059   2.696466   2.348206   3.343699   2.824518
    27  H    4.094938   4.077063   5.109745   4.364394   5.199245
                   11         12         13         14         15
    11  C    0.000000
    12  C    1.528536   0.000000
    13  C    2.516786   1.533924   0.000000
    14  H    3.469898   2.166376   1.101394   0.000000
    15  N    2.890132   2.401758   1.458801   2.104802   0.000000
    16  C    4.117035   3.617719   2.363211   2.650935   1.290755
    17  H    6.168330   5.488452   4.000151   3.803331   4.199806
    18  H    4.927570   4.520934   3.391204   3.576275   4.108604
    19  H    2.828649   3.347756   2.737509   3.731112   2.587991
    20  H    3.488890   3.940078   3.465119   4.295836   3.951859
    21  H    2.170495   3.481093   3.927665   4.976693   4.195083
    22  H    2.163018   2.837255   3.409382   4.241108   4.271371
    23  H    1.095507   2.143479   2.772307   3.770350   2.551219
    24  H    1.096696   2.161439   3.468808   4.302527   3.880989
    25  H    2.166032   1.095718   2.156696   2.486048   2.620348
    26  H    2.168954   1.098323   2.161147   2.472141   3.358632
    27  H    4.753155   4.422987   3.349089   3.649725   2.031464
                   16         17         18         19         20
    16  C    0.000000
    17  H    3.474459   0.000000
    18  H    4.036467   2.304250   0.000000
    19  H    3.017895   4.353343   3.273998   0.000000
    20  H    4.380469   4.466049   2.582790   1.771495   0.000000
    21  H    5.114743   6.534386   4.874766   2.481729   2.520166
    22  H    5.260372   6.118236   4.213256   3.068344   2.465893
    23  H    3.715631   6.261117   5.311201   2.683825   3.835516
    24  H    5.141671   7.217611   5.879473   3.838121   4.319806
    25  H    3.822715   6.102037   5.439337   4.164626   4.977770
    26  H    4.476585   5.769109   4.565518   4.012706   4.155812
    27  H    1.092455   4.215333   4.994589   3.619598   5.164325
                   21         22         23         24         25
    21  H    0.000000
    22  H    1.765477   0.000000
    23  H    2.463721   3.062691   0.000000
    24  H    2.529479   2.464669   1.766152   0.000000
    25  H    4.310739   3.834019   2.452417   2.505490   0.000000
    26  H    3.834801   2.686757   3.059030   2.485634   1.769587
    27  H    5.690770   6.088560   4.130920   5.722786   4.468836
                   26         27
    26  H    0.000000
    27  H    5.373606   0.000000
 Symmetry turned off by external request.
 Stoichiometry    C9H13N3O2
 Framework group  C1[X(C9H13N3O2)]
 Deg. of freedom    75
 Full point group                 C1      NOp   1
 Rotational constants (GHZ):           1.6877726           0.4215804           0.3721545
 Standard basis: 6-31G(d) (6D, 7F)
   236 basis functions,   444 primitive gaussians,   236 cartesian basis functions
    52 alpha electrons       52 beta electrons
       nuclear repulsion energy       932.0720915372 Hartrees.
 NAtoms=   27 NActive=   27 NUniq=   27 SFac= 1.00D+00 NAtFMM=   60 NAOKFM=F Big=F
 Integral buffers will be    131072 words long.
 Raffenetti 1 integral format.
 Two-electron integral symmetry is turned off.
 One-electron integrals computed using PRISM.
 NBasis=   236 RedAO= T EigKep=  1.00D-03  NBF=   236
 NBsUse=   236 1.00D-06 EigRej= -1.00D+00 NBFU=   236
 Initial guess from the checkpoint file:  "/home/alexey/tmp/Gau-1304804.chk"
 B after Tr=     0.052354    0.008785    0.000218
         Rot=    0.999997   -0.001241    0.000483    0.001960 Ang=  -0.27 deg.
 ExpMin= 1.61D-01 ExpMax= 5.48D+03 ExpMxC= 8.25D+02 IAcc=3 IRadAn=         5 AccDes= 0.00D+00
 Harris functional with IExCor=  205 and IRadAn=       5 diagonalized for initial guess.
 HarFok:  IExCor=  205 AccDes= 0.00D+00 IRadAn=         5 IDoV= 1 UseB2=F ITyADJ=14
 ICtDFT=  3500011 ScaDFX=  1.000000  1.000000  1.000000  1.000000
 FoFCou: FMM=F IPFlag=           0 FMFlag=      100000 FMFlg1=           0
         NFxFlg=           0 DoJE=T BraDBF=F KetDBF=T FulRan=T
         wScrn=  0.000000 ICntrl=       500 IOpCl=  0 I1Cent=   200000004 NGrid=           0
         NMat0=    1 NMatS0=      1 NMatT0=    0 NMatD0=    1 NMtDS0=    0 NMtDT0=    0
 Symmetry not used in FoFCou.
 Keep R1 ints in memory in canonical form, NReq=397720213.
 Requested convergence on RMS density matrix=1.00D-08 within 128 cycles.
 Requested convergence on MAX density matrix=1.00D-06.
 Requested convergence on             energy=1.00D-06.
 No special actions if energy rises.
 SCF Done:  E(RHF) =  -661.297818916     A.U. after   15 cycles
            NFock= 15  Conv=0.49D-08     -V/T= 2.0025
 ExpMin= 1.61D-01 ExpMax= 5.48D+03 ExpMxC= 8.25D+02 IAcc=3 IRadAn=         5 AccDes= 0.00D+00
 HarFok:  IExCor=  205 AccDes= 0.00D+00 IRadAn=         5 IDoV=-2 UseB2=F ITyADJ=14
 ICtDFT= 12500011 ScaDFX=  1.000000  1.000000  1.000000  1.000000
 Range of M.O.s used for correlation:    15   236
 NBasis=   236 NAE=    52 NBE=    52 NFC=    14 NFV=     0
 NROrb=    222 NOA=    38 NOB=    38 NVA=   184 NVB=   184
 Fully direct method using O(ONN) memory.
 JobTyp=1 Pass  1:  I=  15 to  52 NPSUse=  4 ParTrn=T ParDer=T DoDerP=T.
 Spin components of T(2) and E(2):
     alpha-alpha T2 =       0.9129308585D-01 E2=     -0.2723858592D+00
     alpha-beta  T2 =       0.4914833448D+00 E2=     -0.1488266904D+01
     beta-beta   T2 =       0.9129308585D-01 E2=     -0.2723858592D+00
 ANorm=    0.1293858383D+01
 E2 =    -0.2033038623D+01 EUMP2 =    -0.66333085753856D+03
          IDoAtm=111111111111111111111111111
          Differentiating once with respect to electric field.
                with respect to dipole field.
          Differentiating once with respect to nuclear coordinates.
 Keep R1 ints in memory in canonical form, NReq=397723379.
          There are     1 degrees of freedom in the 1st order CPHF.  IDoFFX=0 NUNeed=     1.
 LinEq1:  Iter=  0 NonCon=     1 RMS=4.58D-03 Max=1.06D-01 NDo=     1
 AX will form     1 AO Fock derivatives at one time.
 LinEq1:  Iter=  1 NonCon=     1 RMS=1.54D-03 Max=2.70D-02 NDo=     1
[...]
    27  H    4.724267   4.418709   3.356702   3.656501   2.029408
                   16         17         18         19         20
    16  C    0.000000
    17  H    3.464028   0.000000
    18  H    4.088464   2.235824   0.000000
    19  H    2.990842   4.303445   3.511870   0.000000
    20  H    4.375294   4.449289   2.881949   1.768533   0.000000
    21  H    5.096718   6.511314   5.086516   2.499213   2.521053
    22  H    5.248878   6.100600   4.313275   3.070235   2.461450
    23  H    3.695085   6.235095   5.421212   2.704215   3.842911
    24  H    5.133909   7.200936   5.936699   3.849630   4.317102
    25  H    3.821527   6.088359   5.369733   4.171513   4.985034
    26  H    4.495299   5.781311   4.485299   4.036015   4.182284
    27  H    1.089674   4.215517   5.079620   3.583875   5.148423
                   21         22         23         24         25
    21  H    0.000000
    22  H    1.758862   0.000000
    23  H    2.469435   3.062274   0.000000
    24  H    2.517330   2.459884   1.764577   0.000000
    25  H    4.311997   3.839519   2.444098   2.519677   0.000000
    26  H    3.846729   2.704397   3.060434   2.491724   1.767981
    27  H    5.653431   6.060818   4.090705   5.694951   4.454361
                   26         27
    26  H    0.000000
    27  H    5.378570   0.000000
 Symmetry turned off by external request.
 Stoichiometry    C9H13N3O2
 Framework group  C1[X(C9H13N3O2)]
 Deg. of freedom    75
 Full point group                 C1      NOp   1
 Rotational constants (GHZ):           1.6800369           0.4193439           0.3721376

 **********************************************************************

            Population analysis using the SCF Density.

 **********************************************************************

 Alpha  occ. eigenvalues --  -20.59237 -20.58904 -15.84722 -15.64136 -15.56112
 Alpha  occ. eigenvalues --  -11.35017 -11.29622 -11.29560 -11.28627 -11.27134
 Alpha  occ. eigenvalues --  -11.23728 -11.23208 -11.22692 -11.22089  -1.57117
 Alpha  occ. eigenvalues --   -1.36710  -1.30977  -1.23064  -1.14702  -1.09818
 Alpha  occ. eigenvalues --   -1.02805  -1.01308  -0.94481  -0.89683  -0.85566
 Alpha  occ. eigenvalues --   -0.82447  -0.78609  -0.77411  -0.75203  -0.72019
 Alpha  occ. eigenvalues --   -0.69771  -0.69439  -0.67820  -0.64892  -0.63777
 Alpha  occ. eigenvalues --   -0.62367  -0.60281  -0.57700  -0.57001  -0.55077
 Alpha  occ. eigenvalues --   -0.54582  -0.50761  -0.50108  -0.48656  -0.48102
 Alpha  occ. eigenvalues --   -0.47372  -0.46146  -0.46044  -0.43678  -0.41696
 Alpha  occ. eigenvalues --   -0.39846  -0.33829
 Alpha virt. eigenvalues --    0.07465   0.11800   0.17308   0.21848   0.24113
 Alpha virt. eigenvalues --    0.25665   0.27134   0.28694   0.29044   0.29635
 Alpha virt. eigenvalues --    0.30683   0.31797   0.32036   0.32767   0.33950
 Alpha virt. eigenvalues --    0.34386   0.35850   0.37313   0.38581   0.40292
 Alpha virt. eigenvalues --    0.41387   0.42443   0.45025   0.46117   0.46730
 Alpha virt. eigenvalues --    0.47077   0.49000   0.53996   0.57579   0.59405
 Alpha virt. eigenvalues --    0.63914   0.69543   0.69908   0.72861   0.74243
 Alpha virt. eigenvalues --    0.74867   0.75781   0.76677   0.78659   0.79442
 Alpha virt. eigenvalues --    0.81387   0.84692   0.85717   0.85806   0.88530
 Alpha virt. eigenvalues --    0.89423   0.91052   0.92112   0.92853   0.94527
 Alpha virt. eigenvalues --    0.95643   0.98040   0.99638   1.01676   1.02471
 Alpha virt. eigenvalues --    1.03152   1.05873   1.06969   1.07902   1.09014
 Alpha virt. eigenvalues --    1.10284   1.11423   1.11855   1.12444   1.13916
 Alpha virt. eigenvalues --    1.14766   1.14990   1.15832   1.16903   1.18726
 Alpha virt. eigenvalues --    1.19137   1.21338   1.22576   1.23915   1.24538
 Alpha virt. eigenvalues --    1.24826   1.26041   1.26910   1.27484   1.29556
 Alpha virt. eigenvalues --    1.30007   1.33128   1.36071   1.37182   1.40861
 Alpha virt. eigenvalues --    1.41856   1.46496   1.48742   1.51696   1.54292
 Alpha virt. eigenvalues --    1.56372   1.58780   1.59556   1.63465   1.65627
 Alpha virt. eigenvalues --    1.68031   1.68629   1.72991   1.75226   1.77367
 Alpha virt. eigenvalues --    1.81579   1.84599   1.87682   1.90654   1.93493
 Alpha virt. eigenvalues --    1.95814   1.96954   1.99718   2.01572   2.02522
 Alpha virt. eigenvalues --    2.05103   2.05606   2.08495   2.09560   2.12394
 Alpha virt. eigenvalues --    2.13263   2.15296   2.18822   2.20013   2.22451
 Alpha virt. eigenvalues --    2.22636   2.24492   2.25493   2.28214   2.29548
 Alpha virt. eigenvalues --    2.31997   2.33724   2.34701   2.36399   2.38466
 Alpha virt. eigenvalues --    2.40482   2.41927   2.43864   2.45138   2.47364
 Alpha virt. eigenvalues --    2.50720   2.51947   2.53114   2.55573   2.61504
 Alpha virt. eigenvalues --    2.62310   2.65193   2.67626   2.70318   2.70495
 Alpha virt. eigenvalues --    2.72272   2.72648   2.76985   2.78441   2.83804
 Alpha virt. eigenvalues --    2.88567   2.88948   2.92943   2.93134   2.96057
 Alpha virt. eigenvalues --    2.99439   3.01342   3.04315   3.05724   3.07677
 Alpha virt. eigenvalues --    3.09415   3.15048   3.21213   3.25217   3.27459
 Alpha virt. eigenvalues --    3.33446   3.37785   3.38784   3.52164   3.65797
 Alpha virt. eigenvalues --    4.13678   4.28073   4.34720   4.38922   4.46294
 Alpha virt. eigenvalues --    4.56305   4.61871   4.62353   4.73463   4.79739
 Alpha virt. eigenvalues --    4.99415   5.00898   5.05023   5.11166
          Condensed to atoms (all electrons):
               1          2          3          4          5          6
     1  O    8.316133   0.306958  -0.082539  -0.085468   0.004640  -0.000016
     2  N    0.306958   5.722315   0.301254   0.264172  -0.053644   0.000970
     3  O   -0.082539   0.301254   8.353636  -0.092664   0.003642   0.000785
     4  C   -0.085468   0.264172  -0.092664   5.225622   0.560352  -0.047277
     5  C    0.004640  -0.053644   0.003642   0.560352   4.709977   0.317411
     6  N   -0.000016   0.000970   0.000785  -0.047277   0.317411   7.195589
     7  C    0.000004  -0.000140   0.000002   0.004628  -0.030204   0.169271
     8  H   -0.000000   0.000002  -0.000000  -0.000261   0.003095  -0.050670
     9  C   -0.000000  -0.000004  -0.000000   0.000855   0.000626  -0.061655
    10  C    0.000000   0.000000   0.000000  -0.000038  -0.000052   0.003748
    11  C   -0.000000  -0.000000  -0.000000  -0.000028   0.000025  -0.000190
    12  C   -0.000000   0.000002  -0.000000  -0.000127  -0.000176   0.003873
    13  C   -0.000025  -0.000039  -0.000004  -0.011555  -0.000585  -0.047694
    14  H   -0.000004  -0.000105   0.000001   0.002645   0.006076  -0.006959
    15  N    0.000382   0.002363  -0.000016  -0.063527  -0.006396   0.001598
    16  C    0.000830  -0.027271   0.002547   0.328504  -0.050318  -0.001855
    17  H    0.000220  -0.007231   0.017389  -0.023147   0.374516  -0.034184
    18  H    0.000001  -0.000050   0.000012   0.001506  -0.031446   0.338681
    19  H    0.000001  -0.000004   0.000000  -0.001226   0.001233  -0.000352
    20  H    0.000000  -0.000000   0.000000  -0.000079   0.000153  -0.000429
    21  H   -0.000000   0.000000   0.000000   0.000001   0.000001  -0.000077
    22  H   -0.000000   0.000000  -0.000000  -0.000000  -0.000003  -0.000117
    23  H    0.000000  -0.000000   0.000000   0.000040  -0.000000  -0.000031
    24  H    0.000000   0.000000   0.000000   0.000000  -0.000000   0.000006
    25  H    0.000000  -0.000000   0.000000   0.000024   0.000000  -0.000090
    26  H    0.000000  -0.000000   0.000000   0.000006  -0.000002  -0.000060
    27  H    0.006130  -0.000880   0.000018  -0.063383   0.002214   0.000017
               7          8          9         10         11         12
     1  O    0.000004  -0.000000  -0.000000   0.000000  -0.000000  -0.000000
     2  N   -0.000140   0.000002  -0.000004   0.000000  -0.000000   0.000002
     3  O    0.000002  -0.000000  -0.000000   0.000000  -0.000000  -0.000000
     4  C    0.004628  -0.000261   0.000855  -0.000038  -0.000028  -0.000127
     5  C   -0.030204   0.003095   0.000626  -0.000052   0.000025  -0.000176
     6  N    0.169271  -0.050670  -0.061655   0.003748  -0.000190   0.003873
     7  C    5.017561   0.418413   0.350533  -0.054668  -0.009029  -0.061072
     8  H    0.418413   0.538085  -0.055043   0.000776  -0.000325  -0.002230
     9  C    0.350533  -0.055043   5.158236   0.324775  -0.050417  -0.005343
    10  C   -0.054668   0.000776   0.324775   5.119306   0.337001  -0.060991
    11  C   -0.009029  -0.000325  -0.050417   0.337001   5.119925   0.335973
    12  C   -0.061072  -0.002230  -0.005343  -0.060991   0.335973   5.118631
    13  C    0.338594  -0.037937  -0.060243  -0.000286  -0.050690   0.371989
    14  H   -0.046594  -0.000746   0.004423  -0.000405   0.004195  -0.036323
    15  N   -0.057957   0.003900  -0.014615   0.001561  -0.013052  -0.082050
    16  C   -0.001773   0.000009  -0.001270  -0.000029   0.000029   0.002608
    17  H    0.001616  -0.000045  -0.000070   0.000001   0.000000   0.000000
    18  H   -0.021214  -0.004472   0.001327  -0.000083   0.000004  -0.000114
    19  H   -0.036857   0.004362   0.390223  -0.032069  -0.002212   0.000689
    20  H   -0.042415  -0.002077   0.399486  -0.035301   0.003931  -0.000415
    21  H    0.004598  -0.000076  -0.036354   0.402432  -0.034896   0.004349
    22  H   -0.004848   0.003559  -0.046955   0.397752  -0.045403  -0.001021
    23  H    0.000577   0.000035  -0.001958  -0.039020   0.399178  -0.037865
    24  H   -0.000130  -0.000102   0.004388  -0.038438   0.402340  -0.038690
    25  H    0.005152  -0.000025  -0.000423   0.004190  -0.033399   0.398272
    26  H   -0.003907   0.001685   0.000969  -0.002232  -0.041481   0.396728
    27  H   -0.000407   0.000009  -0.000058   0.000007   0.000012  -0.000036
              13         14         15         16         17         18
     1  O   -0.000025  -0.000004   0.000382   0.000830   0.000220   0.000001
     2  N   -0.000039  -0.000105   0.002363  -0.027271  -0.007231  -0.000050
     3  O   -0.000004   0.000001  -0.000016   0.002547   0.017389   0.000012
     4  C   -0.011555   0.002645  -0.063527   0.328504  -0.023147   0.001506
     5  C   -0.000585   0.006076  -0.006396  -0.050318   0.374516  -0.031446
     6  N   -0.047694  -0.006959   0.001598  -0.001855  -0.034184   0.338681
     7  C    0.338594  -0.046594  -0.057957  -0.001773   0.001616  -0.021214
     8  H   -0.037937  -0.000746   0.003900   0.000009  -0.000045  -0.004472
     9  C   -0.060243   0.004423  -0.014615  -0.001270  -0.000070   0.001327
    10  C   -0.000286  -0.000405   0.001561  -0.000029   0.000001  -0.000083
    11  C   -0.050690   0.004195  -0.013052   0.000029   0.000000   0.000004
    12  C    0.371989  -0.036323  -0.082050   0.002608   0.000000  -0.000114
    13  C    5.040217   0.403083   0.244792  -0.071080  -0.000008   0.002971
    14  H    0.403083   0.526769  -0.037366  -0.004542   0.000093  -0.000108
    15  N    0.244792  -0.037366   6.965107   0.585181  -0.000080  -0.000132
    16  C   -0.071080  -0.004542   0.585181   4.709929   0.002012  -0.000197
    17  H   -0.000008   0.000093  -0.000080   0.002012   0.376498  -0.002818
    18  H    0.002971  -0.000108  -0.000132  -0.000197  -0.002818   0.310600
    19  H   -0.007548   0.000106   0.007696   0.003002   0.000016  -0.000149
    20  H    0.004340  -0.000066   0.000126  -0.000036   0.000002   0.000807
    21  H   -0.000433   0.000010  -0.000041   0.000004  -0.000000   0.000001
    22  H    0.000045  -0.000055   0.000019  -0.000002   0.000000   0.000001
    23  H   -0.007522   0.000003   0.008589   0.000106   0.000000   0.000000
    24  H    0.004699  -0.000057   0.000135   0.000007   0.000000  -0.000000
    25  H   -0.035562  -0.002817   0.000410  -0.000022  -0.000000   0.000002
    26  H   -0.047406  -0.001046   0.004898  -0.000061   0.000000  -0.000000
    27  H    0.005058  -0.000174  -0.040311   0.403658  -0.000079   0.000001
              19         20         21         22         23         24
     1  O    0.000001   0.000000  -0.000000  -0.000000   0.000000   0.000000
     2  N   -0.000004  -0.000000   0.000000   0.000000  -0.000000   0.000000
     3  O    0.000000   0.000000   0.000000  -0.000000   0.000000   0.000000
     4  C   -0.001226  -0.000079   0.000001  -0.000000   0.000040   0.000000
     5  C    0.001233   0.000153   0.000001  -0.000003  -0.000000  -0.000000
     6  N   -0.000352  -0.000429  -0.000077  -0.000117  -0.000031   0.000006
     7  C   -0.036857  -0.042415   0.004598  -0.004848   0.000577  -0.000130
     8  H    0.004362  -0.002077  -0.000076   0.003559   0.000035  -0.000102
     9  C    0.390223   0.399486  -0.036354  -0.046955  -0.001958   0.004388
    10  C   -0.032069  -0.035301   0.402432   0.397752  -0.039020  -0.038438
    11  C   -0.002212   0.003931  -0.034896  -0.045403   0.399178   0.402340
    12  C    0.000689  -0.000415   0.004349  -0.001021  -0.037865  -0.038690
    13  C   -0.007548   0.004340  -0.000433   0.000045  -0.007522   0.004699
    14  H    0.000106  -0.000066   0.000010  -0.000055   0.000003  -0.000057
    15  N    0.007696   0.000126  -0.000041   0.000019   0.008589   0.000135
    16  C    0.003002  -0.000036   0.000004  -0.000002   0.000106   0.000007
    17  H    0.000016   0.000002  -0.000000   0.000000   0.000000   0.000000
    18  H   -0.000149   0.000807   0.000001   0.000001   0.000000  -0.000000
    19  H    0.504949  -0.024737  -0.002787   0.003959   0.001514  -0.000066
    20  H   -0.024737   0.541157  -0.002692  -0.002990  -0.000045  -0.000083
    21  H   -0.002787  -0.002692   0.524024  -0.027403  -0.002898  -0.002242
    22  H    0.003959  -0.002990  -0.027403   0.571319   0.004137  -0.003656
    23  H    0.001514  -0.000045  -0.002898   0.004137   0.498962  -0.025450
    24  H   -0.000066  -0.000083  -0.002242  -0.003656  -0.025450   0.538125
    25  H   -0.000029   0.000012  -0.000087  -0.000080  -0.002318  -0.002292
    26  H    0.000019  -0.000030  -0.000081   0.002380   0.004067  -0.003035
    27  H    0.000083   0.000000  -0.000000   0.000000  -0.000035  -0.000000
              25         26         27
     1  O    0.000000   0.000000   0.006130
     2  N   -0.000000  -0.000000  -0.000880
     3  O    0.000000   0.000000   0.000018
     4  C    0.000024   0.000006  -0.063383
     5  C    0.000000  -0.000002   0.002214
     6  N   -0.000090  -0.000060   0.000017
     7  C    0.005152  -0.003907  -0.000407
     8  H   -0.000025   0.001685   0.000009
     9  C   -0.000423   0.000969  -0.000058
    10  C    0.004190  -0.002232   0.000007
    11  C   -0.033399  -0.041481   0.000012
    12  C    0.398272   0.396728  -0.000036
    13  C   -0.035562  -0.047406   0.005058
    14  H   -0.002817  -0.001046  -0.000174
    15  N    0.000410   0.004898  -0.040311
    16  C   -0.000022  -0.000061   0.403658
    17  H   -0.000000   0.000000  -0.000079
    18  H    0.000002  -0.000000   0.000001
    19  H   -0.000029   0.000019   0.000083
    20  H    0.000012  -0.000030   0.000000
    21  H   -0.000087  -0.000081  -0.000000
    22  H   -0.000080   0.002380   0.000000
    23  H   -0.002318   0.004067  -0.000035
    24  H   -0.002292  -0.003035  -0.000000
    25  H    0.506111  -0.024081  -0.000013
    26  H   -0.024081   0.562319   0.000001
    27  H   -0.000013   0.000001   0.439239
 Mulliken charges:
               1
     1  O   -0.467248
     2  N    0.491332
     3  O   -0.504064
     4  C    0.000424
     5  C    0.188866
     6  N   -0.780294
     7  C    0.060265
     8  H    0.180078
     9  C   -0.301433
    10  C   -0.327938
    11  C   -0.321490
    12  C   -0.306660
    13  C   -0.037172
    14  H    0.189961
    15  N   -0.511215
    16  C    0.120028
    17  H    0.295297
    18  H    0.404870
    19  H    0.190186
    20  H    0.161382
    21  H    0.174647
    22  H    0.149361
    23  H    0.199935
    24  H    0.164540
    25  H    0.187063
    26  H    0.150349
    27  H    0.248930
 Sum of Mulliken charges =  -0.00000
 Mulliken charges with hydrogens summed into heavy atoms:
               1
     1  O   -0.467248
     2  N    0.491332
     3  O   -0.504064
     4  C    0.000424
     5  C    0.484163
     6  N   -0.375424
     7  C    0.240343
     9  C    0.050134
    10  C   -0.003929
    11  C    0.042985
    12  C    0.030752
    13  C    0.152790
    15  N   -0.511215
    16  C    0.368958
 Electronic spatial extent (au):  <R**2>=           3005.3564
 Charge=             -0.0000 electrons
 Dipole moment (field-independent basis, Debye):
    X=              5.4157    Y=              4.7953    Z=              1.2826  Tot=              7.3464
 Quadrupole moment (field-independent basis, Debye-Ang):
   XX=           -106.1386   YY=            -79.2254   ZZ=            -81.5005
   XY=             -1.7650   XZ=             -0.1326   YZ=              1.8565
 Traceless Quadrupole moment (field-independent basis, Debye-Ang):
   XX=            -17.1838   YY=              9.7295   ZZ=              7.4543
   XY=             -1.7650   XZ=             -0.1326   YZ=              1.8565
 Octapole moment (field-independent basis, Debye-Ang**2):
  XXX=             92.3953  YYY=             36.2666  ZZZ=             -1.4684  XYY=             -4.5808
  XXY=              9.5249  XXZ=              4.9363  XZZ=             -9.7593  YZZ=             -0.3892
  YYZ=              8.0125  XYZ=              0.2538
 Hexadecapole moment (field-independent basis, Debye-Ang**3):
 XXXX=          -3382.0463 YYYY=           -601.0895 ZZZZ=           -303.7880 XXXY=            -20.8676
 XXXZ=            -13.5442 YYYX=             -8.9404 YYYZ=             24.9666 ZZZX=              1.8331
 ZZZY=              7.0334 XXYY=           -627.7654 XXZZ=           -523.8032 YYZZ=           -157.3167
 XXYZ=             -4.3178 YYXZ=              1.6660 ZZXY=              4.6982
 N-N= 9.312327463017D+02 E-N=-3.409181921009D+03  KE= 6.596288163663D+02
 Unable to Open any file for archive entry.
 1\1\GINC-LOTUS\FOpt\RMP2-FC\6-31G(d)\C9H13N3O2\ALEXEY\01-Jul-2023\0\\#
 MP2/6-31G* SCF=Tight Opt=(ModRedun, MaxCycle=20 ) NoSymm\\MolName:\\0,
 1\O,-3.506752692,-1.3902296439,-0.3715223242\N,-3.1211031586,-0.232173
 634,-0.1186872589\O,-3.8953965469,0.7287671682,0.0557843436\C,-1.68665
 89432,-0.0236867986,-0.0098882627\C,-1.3014004104,1.2606768724,0.27548
 96845\N,-0.0571540888,1.7501228797,0.3867779929\C,1.2056346057,1.02388
 94113,0.359581449\H,1.8533814257,1.5525438202,1.0751940638\C,1.9091904
 698,1.0353615842,-0.9962174048\C,3.3075596275,0.428632824,-0.832290607
 4\C,3.2594980477,-0.9676485361,-0.2061167137\C,2.4644460048,-0.9786122
 166,1.1013095169\C,1.0547216414,-0.4248561735,0.8649378802\H,0.4781467
 649,-0.4037924287,1.8033373633\N,0.4081995565,-1.3179242077,-0.0915706
 899\C,-0.8391266703,-1.1380340104,-0.3869552992\H,-2.0961486277,1.9875
 687955,0.4192649175\H,0.0017381445,2.7352109521,0.6162701381\H,1.31495
 74298,0.4581323222,-1.7125921914\H,1.9752064283,2.0634017923,-1.373635
 9076\H,3.8115603859,0.3907993392,-1.8048105546\H,3.9073380354,1.094733
 654,-0.1958048868\H,2.7818292603,-1.6642078204,-0.9021983824\H,4.27864
 55039,-1.3312407612,-0.029039958\H,2.3789805458,-2.0006383338,1.484879
 5521\H,2.974380289,-0.3809784782,1.869534218\H,-1.3006930291,-1.892838
 3719,-1.023050678\\Version=ES64L-G16RevC.02\HF=-661.3003664\MP2=-663.3
 346494\RMSD=8.774e-09\RMSF=1.554e-05\Dipole=1.9791736,1.6915984,0.4717
 486\PG=C01 [X(C9H13N3O2)]\\@
 The archive entry for this job was punched.


 THERE ARE PEOPLE SO ADDICTED TO EXAGERATING THEY
 CAN'T TELL THE TRUTH WITHOUT LYING. -- FORTUNE COOKIE
 Job cpu time:       0 days  1 hours 19 minutes 37.3 seconds.
 Elapsed time:       0 days  0 hours 23 minutes 47.9 seconds.
 File lengths (MBytes):  RWF=     36 Int=      0 D2E=      0 Chk=      7 Scr=      1
 Normal termination of Gaussian 16 at Sat Jul  1 10:22:01 2023.
