 Entering Gaussian System, Link 0=g16
 Initial command:
 /home/alexey/programs//g16/l1.exe "/home/alexey/tmp/Gau-1310646.inp" -scrdir="/home/alexey/tmp/"
 Entering Link 1 = /home/alexey/programs//g16/l1.exe PID=   1310648.
  
 Copyright (c) 1988-2021, Gaussian, Inc.  All Rights Reserved.
  
 This is part of the Gaussian(R) 16 program.  It is based on
 the Gaussian(R) 09 system (copyright 2009, Gaussian, Inc.),
 the Gaussian(R) 03 system (copyright 2003, Gaussian, Inc.),
 the Gaussian(R) 98 system (copyright 1998, Gaussian, Inc.),
 the Gaussian(R) 94 system (copyright 1995, Gaussian, Inc.),
 the Gaussian 92(TM) system (copyright 1992, Gaussian, Inc.),
 the Gaussian 90(TM) system (copyright 1990, Gaussian, Inc.),
 the Gaussian 88(TM) system (copyright 1988, Gaussian, Inc.),
 the Gaussian 86(TM) system (copyright 1986, Carnegie Mellon
 University), and the Gaussian 82(TM) system (copyright 1983,
 Carnegie Mellon University). Gaussian is a federally registered
 trademark of Gaussian, Inc.
  
 This software contains proprietary and confidential information,
 including trade secrets, belonging to Gaussian, Inc.
  
 This software is provided under written license and may be
 used, copied, transmitted, or stored only in accord with that
 written license.
  
 The following legend is applicable only to US Government
 contracts under FAR:
  
                    RESTRICTED RIGHTS LEGEND
  
 Use, reproduction and disclosure by the US Government is
 subject to restrictions as set forth in subparagraphs (a)
 and (c) of the Commercial Computer Software - Restricted
 Rights clause in FAR 52.227-19.
  
 Gaussian, Inc.
 340 Quinnipiac St., Bldg. 40, Wallingford CT 06492
  
  
 ---------------------------------------------------------------
 Warning -- This program may not be used in any manner that
 competes with the business of Gaussian, Inc. or will provide
 assistance to any competitor of Gaussian, Inc.  The licensee
 of this program is prohibited from giving any competitor of
 Gaussian, Inc. access to this program.  By using this program,
 the user acknowledges that Gaussian, Inc. is engaged in the
 business of creating and licensing software in the field of
 computational chemistry and represents and warrants to the
 licensee that it is not a competitor of Gaussian, Inc. and that
 it will not use this program in any manner prohibited above.
 ---------------------------------------------------------------
  

 Cite this work as:
 Gaussian 16, Revision C.02,
 M. J. Frisch, G. W. Trucks, H. B. Schlegel, G. E. Scuseria, 
 M. A. Robb, J. R. Cheeseman, G. Scalmani, V. Barone, 
 G. A. Petersson, H. Nakatsuji, X. Li, M. Caricato, A. V. Marenich, 
 J. Bloino, B. G. Janesko, R. Gomperts, B. Mennucci, H. P. Hratchian, 
 J. V. Ortiz, A. F. Izmaylov, J. L. Sonnenberg, D. Williams-Young, 
 F. Ding, F. Lipparini, F. Egidi, J. Goings, B. Peng, A. Petrone, 
 T. Henderson, D. Ranasinghe, V. G. Zakrzewski, J. Gao, N. Rega, 
 G. Zheng, W. Liang, M. Hada, M. Ehara, K. Toyota, R. Fukuda, 
 J. Hasegawa, M. Ishida, T. Nakajima, Y. Honda, O. Kitao, H. Nakai, 
 T. Vreven, K. Throssell, J. A. Montgomery, Jr., J. E. Peralta, 
 F. Ogliaro, M. J. Bearpark, J. J. Heyd, E. N. Brothers, K. N. Kudin, 
 V. N. Staroverov, T. A. Keith, R. Kobayashi, J. Normand, 
 K. Raghavachari, A. P. Rendell, J. C. Burant, S. S. Iyengar, 
 J. Tomasi, M. Cossi, J. M. Millam, M. Klene, C. Adamo, R. Cammi, 
 J. W. Ochterski, R. L. Martin, K. Morokuma, O. Farkas, 
 J. B. Foresman, and D. J. Fox, Gaussian, Inc., Wallingford CT, 2019.
 
 ******************************************
 Gaussian 16:  ES64L-G16RevC.02  7-Dec-2021
                 1-Jul-2023 
 ******************************************
 %mem=8GB
 %NPROCS=4
 Will use up to    4 processors via shared memory.
 %NoSave
 ---------------------------------------------------------
 #MP2/6-31G* SCF=Tight Opt=(ModRedun, MaxCycle=20 ) NoSymm
 ---------------------------------------------------------
 1/6=20,18=120,19=15,38=1/1,3;
 2/9=110,12=2,15=1,17=6,18=5,40=1/2;
 3/5=1,6=6,7=1,11=9,25=1,30=1,71=1/1,2,3;
 4//1;
 5/5=2,32=2,38=5/2;
 8/6=4,10=2/1;
 9/15=2,16=-3/6;
 10/5=1,31=1/2;
 6/7=2,8=2,9=2,10=2/1;
 7/12=2,30=1/1,2,3,16;
 1/6=20,18=20,19=15/3(2);
 2/9=110,15=1/2;
 99//99;
 2/9=110,15=1/2;
 3/5=1,6=6,7=1,11=9,25=1,30=1,71=1/1,2,3;
 4/5=5,16=3,69=1/1;
 5/5=2,32=2,38=5/2;
 8/6=4,10=2/1;
 9/15=2,16=-3/6;
 10/5=1,31=1/2;
 7/12=2,30=1/1,2,3,16;
 1/6=20,18=20,19=15/3(-8);
 2/9=110,15=1/2;
 6/7=2,8=2,9=2,10=2/1;
 99/9=10/99;
 --------
 MolName:
 --------
 Symbolic Z-matrix:
 Charge =  0 Multiplicity = 1
 8                    0    -3.62519  -1.43274  -0.19075 
 7                    0    -3.26687  -0.26819  -0.02645 
 8                    0    -4.04594   0.67214   0.13328 
 6                    0    -1.76854   0.01622  -0.04004 
 6                    0    -1.37411   1.3203    0.27444 
 7                    0    -0.08306   1.76697   0.38492 
 6                    0     1.19483   0.99082   0.36015 
 1                    0     1.85547   1.48667   1.11813 
 6                    0     1.96503   1.0476   -0.9828 
 6                    0     3.37764   0.46376  -0.78968 
 6                    0     3.31678  -0.95414  -0.19999 
 6                    0     2.46358  -0.99353   1.08611 
 6                    0     1.02623  -0.46099   0.83473 
 1                    0     0.47398  -0.50325   1.80276 
 7                    0     0.37589  -1.33187  -0.14738 
 6                    0    -0.86473  -1.13383  -0.44782 
 1                    0    -2.15755   2.06323   0.49845 
 1                    0     0.15318   2.74832   0.21926 
 1                    0     1.4198    0.47181  -1.76071 
 1                    0     2.05059   2.09871  -1.33139 
 1                    0     3.91617   0.44404  -1.7624 
 1                    0     3.95056   1.11678  -0.09399 
 1                    0     2.87405  -1.64218  -0.95522 
 1                    0     4.34474  -1.31627   0.01996 
 1                    0     2.40649  -2.04098   1.45535 
 1                    0     2.95289  -0.38323   1.87388 
 1                    0    -1.36789  -1.88315  -1.07781 
 
 The following ModRedundant input section has been read:
 B       4      16 F                                                           
 D       1       2       4      16 F                                           
 D       7      13      15      16 F                                           
 D       7       9      10      11 F                                           
 D       9      10      11      12 F                                           
 D       6       7      13      15 F                                           
 

 GradGradGradGradGradGradGradGradGradGradGradGradGradGradGradGradGradGrad
 Berny optimization.
 Initialization pass.
                           ----------------------------
                           !    Initial Parameters    !
                           ! (Angstroms and Degrees)  !
 --------------------------                            --------------------------
 ! Name  Definition              Value          Derivative Info.                !
 --------------------------------------------------------------------------------
 ! R1    R(1,2)                  1.2295         estimate D2E/DX2                !
 ! R2    R(2,3)                  1.2315         estimate D2E/DX2                !
 ! R3    R(2,4)                  1.5251         estimate D2E/DX2                !
 ! R4    R(4,5)                  1.3982         estimate D2E/DX2                !
 ! R5    R(4,16)                 1.5185         Frozen                          !
 ! R6    R(5,6)                  1.3706         estimate D2E/DX2                !
 ! R7    R(5,17)                 1.1027         estimate D2E/DX2                !
 ! R8    R(6,7)                  1.4953         estimate D2E/DX2                !
 ! R9    R(6,18)                 1.0229         estimate D2E/DX2                !
 ! R10   R(7,8)                  1.1211         estimate D2E/DX2                !
 ! R11   R(7,9)                  1.5492         estimate D2E/DX2                !
 ! R12   R(7,13)                 1.5367         estimate D2E/DX2                !
 ! R13   R(9,10)                 1.5407         estimate D2E/DX2                !
 ! R14   R(9,19)                 1.1108         estimate D2E/DX2                !
 ! R15   R(9,20)                 1.1107         estimate D2E/DX2                !
 ! R16   R(10,11)                1.5368         estimate D2E/DX2                !
 ! R17   R(10,21)                1.112          estimate D2E/DX2                !
 ! R18   R(10,22)                1.1129         estimate D2E/DX2                !
 ! R19   R(11,12)                1.5439         estimate D2E/DX2                !
 ! R20   R(11,23)                1.1135         estimate D2E/DX2                !
 ! R21   R(11,24)                1.1119         estimate D2E/DX2                !
 ! R22   R(12,13)                1.5533         estimate D2E/DX2                !
 ! R23   R(12,25)                1.1121         estimate D2E/DX2                !
 ! R24   R(12,26)                1.1102         estimate D2E/DX2                !
 ! R25   R(13,14)                1.1153         estimate D2E/DX2                !
 ! R26   R(13,15)                1.4649         estimate D2E/DX2                !
 ! R27   R(15,16)                1.2918         estimate D2E/DX2                !
 ! R28   R(16,27)                1.1007         estimate D2E/DX2                !
 ! A1    A(1,2,3)              123.7931         estimate D2E/DX2                !
 ! A2    A(1,2,4)              117.5012         estimate D2E/DX2                !
 ! A3    A(3,2,4)              118.7016         estimate D2E/DX2                !
 ! A4    A(2,4,5)              116.6825         estimate D2E/DX2                !
 ! A5    A(2,4,16)             116.481          estimate D2E/DX2                !
 ! A6    A(5,4,16)             126.7884         estimate D2E/DX2                !
 ! A7    A(4,5,6)              126.0006         estimate D2E/DX2                !
 ! A8    A(4,5,17)             118.2711         estimate D2E/DX2                !
 ! A9    A(6,5,17)             115.6775         estimate D2E/DX2                !
 ! A10   A(5,6,7)              129.3827         estimate D2E/DX2                !
 ! A11   A(5,6,18)             121.1417         estimate D2E/DX2                !
 ! A12   A(7,6,18)             107.3326         estimate D2E/DX2                !
 ! A13   A(6,7,8)              105.2376         estimate D2E/DX2                !
 ! A14   A(6,7,9)              114.8477         estimate D2E/DX2                !
 ! A15   A(6,7,13)             113.0479         estimate D2E/DX2                !
 ! A16   A(8,7,9)              106.0766         estimate D2E/DX2                !
 ! A17   A(8,7,13)             105.8853         estimate D2E/DX2                !
 ! A18   A(9,7,13)             110.9097         estimate D2E/DX2                !
 ! A19   A(7,9,10)             109.4689         estimate D2E/DX2                !
 ! A20   A(7,9,19)             110.1237         estimate D2E/DX2                !
 ! A21   A(7,9,20)             110.1848         estimate D2E/DX2                !
 ! A22   A(10,9,19)            109.9615         estimate D2E/DX2                !
 ! A23   A(10,9,20)            109.1069         estimate D2E/DX2                !
 ! A24   A(19,9,20)            107.9721         estimate D2E/DX2                !
 ! A25   A(9,10,11)            111.187          estimate D2E/DX2                !
 ! A26   A(9,10,21)            109.9442         estimate D2E/DX2                !
 ! A27   A(9,10,22)            109.1471         estimate D2E/DX2                !
 ! A28   A(11,10,21)           109.7827         estimate D2E/DX2                !
 ! A29   A(11,10,22)           108.7764         estimate D2E/DX2                !
 ! A30   A(21,10,22)           107.9323         estimate D2E/DX2                !
 ! A31   A(10,11,12)           111.4113         estimate D2E/DX2                !
 ! A32   A(10,11,23)           109.0018         estimate D2E/DX2                !
 ! A33   A(10,11,24)           109.8638         estimate D2E/DX2                !
 ! A34   A(12,11,23)           109.2398         estimate D2E/DX2                !
 ! A35   A(12,11,24)           109.745          estimate D2E/DX2                !
 ! A36   A(23,11,24)           107.4897         estimate D2E/DX2                !
 ! A37   A(11,12,13)           111.5811         estimate D2E/DX2                !
 ! A38   A(11,12,25)           109.2073         estimate D2E/DX2                !
 ! A39   A(11,12,26)           109.4823         estimate D2E/DX2                !
 ! A40   A(13,12,25)           109.2168         estimate D2E/DX2                !
 ! A41   A(13,12,26)           109.5248         estimate D2E/DX2                !
 ! A42   A(25,12,26)           107.7465         estimate D2E/DX2                !
 ! A43   A(7,13,12)            105.8048         estimate D2E/DX2                !
 ! A44   A(7,13,14)            110.9888         estimate D2E/DX2                !
 ! A45   A(7,13,15)            113.786          estimate D2E/DX2                !
 ! A46   A(12,13,14)           107.7427         estimate D2E/DX2                !
 ! A47   A(12,13,15)           108.3903         estimate D2E/DX2                !
 ! A48   A(14,13,15)           109.8499         estimate D2E/DX2                !
 ! A49   A(13,15,16)           119.4172         estimate D2E/DX2                !
 ! A50   A(4,16,15)            128.7044         estimate D2E/DX2                !
 ! A51   A(4,16,27)            113.4039         estimate D2E/DX2                !
 ! A52   A(15,16,27)           117.8906         estimate D2E/DX2                !
 ! D1    D(1,2,4,5)           -174.0896         estimate D2E/DX2                !
 ! D2    D(1,2,4,16)             8.2588         Frozen                          !
 ! D3    D(3,2,4,5)              6.6238         estimate D2E/DX2                !
 ! D4    D(3,2,4,16)          -171.0279         estimate D2E/DX2                !
 ! D5    D(2,4,5,6)            176.5004         estimate D2E/DX2                !
 ! D6    D(2,4,5,17)            -0.7874         estimate D2E/DX2                !
 ! D7    D(16,4,5,6)            -6.1244         estimate D2E/DX2                !
 ! D8    D(16,4,5,17)          176.5878         estimate D2E/DX2                !
 ! D9    D(2,4,16,15)         -155.1917         estimate D2E/DX2                !
 ! D10   D(2,4,16,27)           24.4027         estimate D2E/DX2                !
 ! D11   D(5,4,16,15)           27.4285         estimate D2E/DX2                !
 ! D12   D(5,4,16,27)         -152.9771         estimate D2E/DX2                !
 ! D13   D(4,5,6,7)             -7.6761         estimate D2E/DX2                !
 ! D14   D(4,5,6,18)           153.4717         estimate D2E/DX2                !
 ! D15   D(17,5,6,7)           169.6735         estimate D2E/DX2                !
 ! D16   D(17,5,6,18)          -29.1787         estimate D2E/DX2                !
 ! D17   D(5,6,7,8)           -141.913          estimate D2E/DX2                !
 ! D18   D(5,6,7,9)            101.8278         estimate D2E/DX2                !
 ! D19   D(5,6,7,13)           -26.8137         estimate D2E/DX2                !
 ! D20   D(18,6,7,8)            54.928          estimate D2E/DX2                !
 ! D21   D(18,6,7,9)           -61.3312         estimate D2E/DX2                !
 ! D22   D(18,6,7,13)          170.0274         estimate D2E/DX2                !
 ! D23   D(6,7,9,10)           168.418          estimate D2E/DX2                !
 ! D24   D(6,7,9,19)           -70.5735         estimate D2E/DX2                !
 ! D25   D(6,7,9,20)            48.4273         estimate D2E/DX2                !
 ! D26   D(8,7,9,10)            52.6406         estimate D2E/DX2                !
 ! D27   D(8,7,9,19)           173.649          estimate D2E/DX2                !
 ! D28   D(8,7,9,20)           -67.3501         estimate D2E/DX2                !
 ! D29   D(13,7,9,10)          -61.8813         estimate D2E/DX2                !
 ! D30   D(13,7,9,19)           59.1272         estimate D2E/DX2                !
 ! D31   D(13,7,9,20)          178.1281         estimate D2E/DX2                !
 ! D32   D(6,7,13,12)         -166.0909         estimate D2E/DX2                !
 ! D33   D(6,7,13,14)          -49.4872         estimate D2E/DX2                !
 ! D34   D(6,7,13,15)           75.0222         Frozen                          !
 ! D35   D(8,7,13,12)          -51.3801         estimate D2E/DX2                !
 ! D36   D(8,7,13,14)           65.2237         estimate D2E/DX2                !
 ! D37   D(8,7,13,15)         -170.2669         estimate D2E/DX2                !
 ! D38   D(9,7,13,12)           63.2616         estimate D2E/DX2                !
 ! D39   D(9,7,13,14)          179.8653         estimate D2E/DX2                !
 ! D40   D(9,7,13,15)          -55.6253         estimate D2E/DX2                !
 ! D41   D(7,9,10,11)           54.8122         Frozen                          !
 ! D42   D(7,9,10,21)          176.6018         estimate D2E/DX2                !
 ! D43   D(7,9,10,22)          -65.1881         estimate D2E/DX2                !
 ! D44   D(19,9,10,11)         -66.2945         estimate D2E/DX2                !
 ! D45   D(19,9,10,21)          55.4951         estimate D2E/DX2                !
 ! D46   D(19,9,10,22)         173.7051         estimate D2E/DX2                !
 ! D47   D(20,9,10,11)         175.4609         estimate D2E/DX2                !
 ! D48   D(20,9,10,21)         -62.7495         estimate D2E/DX2                !
 ! D49   D(20,9,10,22)          55.4605         estimate D2E/DX2                !
 ! D50   D(9,10,11,12)         -52.8225         Frozen                          !
 ! D51   D(9,10,11,23)          67.8003         estimate D2E/DX2                !
 ! D52   D(9,10,11,24)        -174.6593         estimate D2E/DX2                !
 ! D53   D(21,10,11,12)       -174.7061         estimate D2E/DX2                !
 ! D54   D(21,10,11,23)        -54.0833         estimate D2E/DX2                !
 ! D55   D(21,10,11,24)         63.4572         estimate D2E/DX2                !
 ! D56   D(22,10,11,12)         67.3975         estimate D2E/DX2                !
 ! D57   D(22,10,11,23)       -171.9797         estimate D2E/DX2                !
 ! D58   D(22,10,11,24)        -54.4393         estimate D2E/DX2                !
 ! D59   D(10,11,12,13)         56.6416         estimate D2E/DX2                !
 ! D60   D(10,11,12,25)        177.4802         estimate D2E/DX2                !
 ! D61   D(10,11,12,26)        -64.7692         estimate D2E/DX2                !
 ! D62   D(23,11,12,13)        -63.8414         estimate D2E/DX2                !
 ! D63   D(23,11,12,25)         56.9972         estimate D2E/DX2                !
 ! D64   D(23,11,12,26)        174.7478         estimate D2E/DX2                !
 ! D65   D(24,11,12,13)        178.5472         estimate D2E/DX2                !
 ! D66   D(24,11,12,25)        -60.6142         estimate D2E/DX2                !
 ! D67   D(24,11,12,26)         57.1364         estimate D2E/DX2                !
 ! D68   D(11,12,13,7)         -60.3828         estimate D2E/DX2                !
 ! D69   D(11,12,13,14)       -179.1608         estimate D2E/DX2                !
 ! D70   D(11,12,13,15)         62.0178         estimate D2E/DX2                !
 ! D71   D(25,12,13,7)         178.7842         estimate D2E/DX2                !
 ! D72   D(25,12,13,14)         60.0061         estimate D2E/DX2                !
 ! D73   D(25,12,13,15)        -58.8152         estimate D2E/DX2                !
 ! D74   D(26,12,13,7)          61.0034         estimate D2E/DX2                !
 ! D75   D(26,12,13,14)        -57.7747         estimate D2E/DX2                !
 ! D76   D(26,12,13,15)       -176.596          estimate D2E/DX2                !
 ! D77   D(7,13,15,16)         -67.1597         Frozen                          !
 ! D78   D(12,13,15,16)        175.4403         estimate D2E/DX2                !
 ! D79   D(14,13,15,16)         57.9594         estimate D2E/DX2                !
 ! D80   D(13,15,16,4)           7.9805         estimate D2E/DX2                !
 ! D81   D(13,15,16,27)       -171.5983         estimate D2E/DX2                !
 --------------------------------------------------------------------------------
 Trust Radius=3.00D-01 FncErr=1.00D-07 GrdErr=1.00D-07 EigMax=2.50D+02 EigMin=1.00D-04
 Number of steps in this run=     20 maximum allowed number of steps=    162.
 GradGradGradGradGradGradGradGradGradGradGradGradGradGradGradGradGradGrad

                          Input orientation:                          
 ---------------------------------------------------------------------
 Center     Atomic      Atomic             Coordinates (Angstroms)
 Number     Number       Type             X           Y           Z
 ---------------------------------------------------------------------
      1          8           0       -3.625190   -1.432740   -0.190750
      2          7           0       -3.266870   -0.268190   -0.026450
      3          8           0       -4.045940    0.672140    0.133280
      4          6           0       -1.768540    0.016220   -0.040040
      5          6           0       -1.374110    1.320300    0.274440
      6          7           0       -0.083060    1.766970    0.384920
      7          6           0        1.194830    0.990820    0.360150
      8          1           0        1.855470    1.486670    1.118130
      9          6           0        1.965030    1.047600   -0.982800
     10          6           0        3.377640    0.463760   -0.789680
     11          6           0        3.316780   -0.954140   -0.199990
     12          6           0        2.463580   -0.993530    1.086110
     13          6           0        1.026230   -0.460990    0.834730
     14          1           0        0.473980   -0.503250    1.802760
     15          7           0        0.375890   -1.331870   -0.147380
     16          6           0       -0.864730   -1.133830   -0.447820
     17          1           0       -2.157550    2.063230    0.498450
     18          1           0        0.153180    2.748320    0.219260
     19          1           0        1.419800    0.471810   -1.760710
     20          1           0        2.050590    2.098710   -1.331390
     21          1           0        3.916170    0.444040   -1.762400
     22          1           0        3.950560    1.116780   -0.093990
     23          1           0        2.874050   -1.642180   -0.955220
     24          1           0        4.344740   -1.316270    0.019960
     25          1           0        2.406490   -2.040980    1.455350
     26          1           0        2.952890   -0.383230    1.873880
     27          1           0       -1.367890   -1.883150   -1.077810
 ---------------------------------------------------------------------
                    Distance matrix (angstroms):
                    1          2          3          4          5
     1  O    0.000000
     2  N    1.229457   0.000000
     3  O    2.170840   1.231537   0.000000
     4  C    2.359947   1.525145   2.376304   0.000000
     5  C    3.586501   2.489252   2.752946   1.398248   0.000000
     6  N    4.807934   3.801019   4.119028   2.467095   1.370595
     7  C    5.423074   4.652025   5.255349   3.145085   2.591400
     8  H    6.346161   5.534254   6.038214   4.078851   3.342107
     9  C    6.166846   5.478931   6.125224   3.986488   3.578390
    10  C    7.279770   6.728134   7.483637   5.219715   4.944203
    11  C    6.958455   6.621563   7.547549   5.179543   5.234750
    12  C    6.236698   5.882344   6.786471   4.494291   4.554172
    13  C    4.861236   4.382866   5.244323   2.967101   3.041143
    14  H    4.652013   4.170758   4.959676   2.948670   3.012729
    15  N    4.002586   3.796807   4.862860   2.535241   3.205376
    16  C    2.788471   2.587888   3.703958   1.518477   2.608425
    17  H    3.853670   2.634697   2.373710   2.152104   1.102680
    18  H    5.650261   4.566886   4.685139   3.350316   2.091626
    19  H    5.616405   5.051746   5.788060   3.651545   3.559172
    20  H    6.781348   5.964936   6.430244   4.537632   3.861759
    21  H    7.928713   7.424073   8.187846   5.955290   5.736167
    22  H    7.993835   7.349422   8.012076   5.824281   5.341280
    23  H    6.547396   6.360925   7.377477   5.014129   5.323083
    24  H    7.973566   7.683569   8.623812   6.257102   6.302500
    25  H    6.281780   6.125808   7.123394   4.888675   5.194775
    26  H    6.973902   6.504606   7.288835   5.110240   4.917637
    27  H    2.466809   2.705472   3.894637   2.201157   3.477170
                    6          7          8          9         10
     6  N    0.000000
     7  C    1.495334   0.000000
     8  H    2.091426   1.121091   0.000000
     9  C    2.565701   1.549176   2.149114   0.000000
    10  C    3.880011   2.522808   2.646334   1.540659   0.000000
    11  C    4.393799   2.932456   3.135350   2.539091   1.536840
    12  C    3.820655   2.464628   2.553863   2.948754   2.545150
    13  C    2.529162   1.536686   2.135728   2.541772   3.003831
    14  H    2.733946   2.198407   2.517343   3.519618   4.010872
    15  N    3.177544   2.514585   3.425615   2.980800   3.556310
    16  C    3.117548   3.067367   4.088852   3.612808   4.546082
    17  H    2.098611   3.522448   4.101311   4.496807   5.903890
    18  H    1.022888   2.047850   2.301634   2.760470   4.078519
    19  H    2.922286   2.195001   3.083418   1.110835   2.185429
    20  H    2.758303   2.195690   2.532353   1.110706   2.174298
    21  H    4.728104   3.494264   3.692020   2.186094   1.112020
    22  H    4.113659   2.795739   2.448562   2.176488   1.112950
    23  H    4.707736   3.388608   3.889214   2.839365   2.171633
    24  H    5.407863   3.919225   3.906266   3.500918   2.181583
    25  H    4.673774   3.443747   3.586315   3.959645   3.501002
    26  H    4.007163   2.696325   2.296087   3.344213   2.827076
    27  H    4.136876   4.110349   5.154405   4.439220   5.301986
                   11         12         13         14         15
    11  C    0.000000
    12  C    1.543877   0.000000
    13  C    2.561340   1.553308   0.000000
    14  H    3.506540   2.170822   1.115279   0.000000
    15  N    2.965515   2.448351   1.464894   2.121150   0.000000
    16  C    4.192700   3.667461   2.381885   2.693490   1.291752
    17  H    6.289724   5.571711   4.076914   3.900384   4.285104
    18  H    4.887980   4.482278   3.382409   3.630853   4.102679
    19  H    2.840372   3.367652   2.785915   3.813612   2.635497
    20  H    3.493307   3.946747   3.506202   4.367928   3.996921
    21  H    2.180665   3.505800   3.989476   5.045433   4.277351
    22  H    2.168323   2.838513   3.450157   4.278874   4.333244
    23  H    1.113455   2.180885   2.830825   3.829354   2.643804
    24  H    1.111853   2.186230   3.522480   4.338451   3.972407
    25  H    2.179449   1.112092   2.187843   2.493973   2.682334
    26  H    2.181580   1.110168   2.190410   2.482833   3.409742
    27  H    4.855900   4.489336   3.378189   3.687044   2.051921
                   16         17         18         19         20
    16  C    0.000000
    17  H    3.576032   0.000000
    18  H    4.068443   2.426266   0.000000
    19  H    3.085585   4.520382   3.272171   0.000000
    20  H    4.441745   4.588901   2.535088   1.796946   0.000000
    21  H    5.203345   6.680067   4.837021   2.496525   2.530631
    22  H    5.327050   6.209329   4.144894   3.098175   2.470877
    23  H    3.807145   6.415623   5.297077   2.689351   3.848876
    24  H    5.233611   7.343688   5.842070   3.863067   4.330284
    25  H    3.891768   6.212138   5.435321   4.198894   5.002961
    26  H    4.530774   5.830401   4.514726   4.036298   4.153062
    27  H    1.100699   4.322276   5.044458   3.712601   5.254095
                   21         22         23         24         25
    21  H    0.000000
    22  H    1.799265   0.000000
    23  H    2.467766   3.084226   0.000000
    24  H    2.541490   2.467406   1.794470   0.000000
    25  H    4.336862   3.841361   2.487670   2.518405   0.000000
    26  H    3.851599   2.667937   3.097576   2.498966   1.794953
    27  H    5.814273   6.184933   4.250547   5.844706   4.548379
                   26         27
    26  H    0.000000
    27  H    5.443471   0.000000
 Symmetry turned off by external request.
 Stoichiometry    C9H13N3O2
 Framework group  C1[X(C9H13N3O2)]
 Deg. of freedom    75
 Full point group                 C1      NOp   1
 Rotational constants (GHZ):           1.6728105           0.3989204           0.3539675
 Standard basis: 6-31G(d) (6D, 7F)
   236 basis functions,   444 primitive gaussians,   236 cartesian basis functions
    52 alpha electrons       52 beta electrons
       nuclear repulsion energy       916.3067018854 Hartrees.
 NAtoms=   27 NActive=   27 NUniq=   27 SFac= 1.00D+00 NAtFMM=   60 NAOKFM=F Big=F
 Integral buffers will be    131072 words long.
 Raffenetti 1 integral format.
 Two-electron integral symmetry is turned off.
 One-electron integrals computed using PRISM.
 NBasis=   236 RedAO= T EigKep=  1.31D-03  NBF=   236
 NBsUse=   236 1.00D-06 EigRej= -1.00D+00 NBFU=   236
 ExpMin= 1.61D-01 ExpMax= 5.48D+03 ExpMxC= 8.25D+02 IAcc=3 IRadAn=         5 AccDes= 0.00D+00
 Harris functional with IExCor=  205 and IRadAn=       5 diagonalized for initial guess.
 HarFok:  IExCor=  205 AccDes= 0.00D+00 IRadAn=         5 IDoV= 1 UseB2=F ITyADJ=14
 ICtDFT=  3500011 ScaDFX=  1.000000  1.000000  1.000000  1.000000
 FoFCou: FMM=F IPFlag=           0 FMFlag=      100000 FMFlg1=           0
         NFxFlg=           0 DoJE=T BraDBF=F KetDBF=T FulRan=T
         wScrn=  0.000000 ICntrl=       500 IOpCl=  0 I1Cent=   200000004 NGrid=           0
         NMat0=    1 NMatS0=      1 NMatT0=    0 NMatD0=    1 NMtDS0=    0 NMtDT0=    0
 Symmetry not used in FoFCou.
 Keep R1 ints in memory in canonical form, NReq=397720213.
 Requested convergence on RMS density matrix=1.00D-08 within 128 cycles.
 Requested convergence on MAX density matrix=1.00D-06.
 Requested convergence on             energy=1.00D-06.
 No special actions if energy rises.
 SCF Done:  E(RHF) =  -661.279744775     A.U. after   16 cycles
            NFock= 16  Conv=0.77D-08     -V/T= 2.0038
 ExpMin= 1.61D-01 ExpMax= 5.48D+03 ExpMxC= 8.25D+02 IAcc=3 IRadAn=         5 AccDes= 0.00D+00
 HarFok:  IExCor=  205 AccDes= 0.00D+00 IRadAn=         5 IDoV=-2 UseB2=F ITyADJ=14
 ICtDFT= 12500011 ScaDFX=  1.000000  1.000000  1.000000  1.000000
 Range of M.O.s used for correlation:    15   236
 NBasis=   236 NAE=    52 NBE=    52 NFC=    14 NFV=     0
 NROrb=    222 NOA=    38 NOB=    38 NVA=   184 NVB=   184
 Fully direct method using O(ONN) memory.
 JobTyp=1 Pass  1:  I=  15 to  52 NPSUse=  4 ParTrn=T ParDer=T DoDerP=T.
 Spin components of T(2) and E(2):
     alpha-alpha T2 =       0.9193222131D-01 E2=     -0.2715725342D+00
     alpha-beta  T2 =       0.4999877790D+00 E2=     -0.1493796012D+01
     beta-beta   T2 =       0.9193222131D-01 E2=     -0.2715725342D+00
 ANorm=    0.1297633316D+01
 E2 =    -0.2036941080D+01 EUMP2 =    -0.66331668585528D+03
          IDoAtm=111111111111111111111111111
          Differentiating once with respect to electric field.
                with respect to dipole field.
          Differentiating once with respect to nuclear coordinates.
 Keep R1 ints in memory in canonical form, NReq=397723379.
          There are     1 degrees of freedom in the 1st order CPHF.  IDoFFX=0 NUNeed=     1.
 LinEq1:  Iter=  0 NonCon=     1 RMS=4.60D-03 Max=1.17D-01 NDo=     1
 AX will form     1 AO Fock derivatives at one time.
 LinEq1:  Iter=  1 NonCon=     1 RMS=1.56D-03 Max=3.01D-02 NDo=     1
 LinEq1:  Iter=  2 NonCon=     1 RMS=6.37D-04 Max=1.88D-02 NDo=     1
 LinEq1:  Iter=  3 NonCon=     1 RMS=2.93D-04 Max=9.03D-03 NDo=     1
 LinEq1:  Iter=  4 NonCon=     1 RMS=8.95D-05 Max=1.98D-03 NDo=     1
 LinEq1:  Iter=  5 NonCon=     1 RMS=3.74D-05 Max=1.91D-03 NDo=     1
 LinEq1:  Iter=  6 NonCon=     1 RMS=1.54D-05 Max=5.78D-04 NDo=     1
 LinEq1:  Iter=  7 NonCon=     1 RMS=5.95D-06 Max=1.08D-04 NDo=     1
 LinEq1:  Iter=  8 NonCon=     1 RMS=2.39D-06 Max=6.48D-05 NDo=     1
 LinEq1:  Iter=  9 NonCon=     1 RMS=9.06D-07 Max=2.51D-05 NDo=     1
 LinEq1:  Iter= 10 NonCon=     1 RMS=4.39D-07 Max=1.48D-05 NDo=     1
 LinEq1:  Iter= 11 NonCon=     1 RMS=1.53D-07 Max=5.72D-06 NDo=     1
 LinEq1:  Iter= 12 NonCon=     1 RMS=5.40D-08 Max=7.77D-07 NDo=     1
 LinEq1:  Iter= 13 NonCon=     1 RMS=1.70D-08 Max=3.33D-07 NDo=     1
 LinEq1:  Iter= 14 NonCon=     1 RMS=5.42D-09 Max=1.41D-07 NDo=     1
 LinEq1:  Iter= 15 NonCon=     1 RMS=2.03D-09 Max=4.78D-08 NDo=     1
 LinEq1:  Iter= 16 NonCon=     1 RMS=7.65D-10 Max=1.26D-08 NDo=     1
 LinEq1:  Iter= 17 NonCon=     1 RMS=2.53D-10 Max=3.69D-09 NDo=     1
 LinEq1:  Iter= 18 NonCon=     1 RMS=8.80D-11 Max=1.06D-09 NDo=     1
 LinEq1:  Iter= 19 NonCon=     0 RMS=2.95D-11 Max=3.86D-10 NDo=     1
 Linear equations converged to 1.000D-10 1.000D-09 after    19 iterations.
 End of Minotr F.D. properties file   721 does not exist.
 End of Minotr F.D. properties file   722 does not exist.
 End of Minotr F.D. properties file   788 does not exist.

 **********************************************************************

            Population analysis using the SCF Density.

 **********************************************************************

 Alpha  occ. eigenvalues --  -20.59778 -20.59350 -15.85259 -15.63224 -15.57025
 Alpha  occ. eigenvalues --  -11.35754 -11.30833 -11.30200 -11.30108 -11.27773
 Alpha  occ. eigenvalues --  -11.24635 -11.23895 -11.23447 -11.22888  -1.58464
 Alpha  occ. eigenvalues --   -1.37978  -1.28471  -1.22777  -1.13145  -1.08296
 Alpha  occ. eigenvalues --   -1.01821  -1.00705  -0.93511  -0.88686  -0.84935
 Alpha  occ. eigenvalues --   -0.81408  -0.78026  -0.76820  -0.74250  -0.70997
 Alpha  occ. eigenvalues --   -0.70303  -0.69770  -0.67369  -0.64354  -0.63297
 Alpha  occ. eigenvalues --   -0.61648  -0.60256  -0.57420  -0.56492  -0.54919
 Alpha  occ. eigenvalues --   -0.53589  -0.50743  -0.49255  -0.48455  -0.47775
 Alpha  occ. eigenvalues --   -0.47699  -0.46164  -0.45693  -0.43990  -0.42069
 Alpha  occ. eigenvalues --   -0.40005  -0.33855
 Alpha virt. eigenvalues --    0.07447   0.11882   0.18187   0.21389   0.23423
 Alpha virt. eigenvalues --    0.24212   0.26207   0.27718   0.28552   0.28856
 Alpha virt. eigenvalues --    0.29893   0.31010   0.31852   0.32244   0.33308
 Alpha virt. eigenvalues --    0.33763   0.34221   0.35323   0.37410   0.38296
 Alpha virt. eigenvalues --    0.40594   0.41588   0.44442   0.45243   0.45607
 Alpha virt. eigenvalues --    0.45765   0.49639   0.53053   0.57346   0.58921
 Alpha virt. eigenvalues --    0.63299   0.68956   0.69226   0.72167   0.73972
 Alpha virt. eigenvalues --    0.75006   0.75709   0.75813   0.77686   0.79280
 Alpha virt. eigenvalues --    0.80463   0.83683   0.84928   0.85278   0.87960
 Alpha virt. eigenvalues --    0.89017   0.90173   0.90709   0.91875   0.93848
 Alpha virt. eigenvalues --    0.95144   0.97181   0.98666   1.00346   1.01877
 Alpha virt. eigenvalues --    1.02851   1.05051   1.06438   1.07022   1.08670
 Alpha virt. eigenvalues --    1.09587   1.10438   1.11343   1.11918   1.13237
 Alpha virt. eigenvalues --    1.13815   1.14168   1.15383   1.16330   1.17208
 Alpha virt. eigenvalues --    1.17970   1.19959   1.21030   1.22367   1.22746
 Alpha virt. eigenvalues --    1.23465   1.24329   1.25583   1.26863   1.27407
 Alpha virt. eigenvalues --    1.29311   1.31261   1.33088   1.36017   1.39593
 Alpha virt. eigenvalues --    1.42875   1.46264   1.47235   1.49479   1.52550
 Alpha virt. eigenvalues --    1.54556   1.55398   1.60383   1.61286   1.66120
 Alpha virt. eigenvalues --    1.68618   1.70380   1.72733   1.73305   1.76753
 Alpha virt. eigenvalues --    1.77649   1.79619   1.84276   1.88984   1.92680
 Alpha virt. eigenvalues --    1.92904   1.96070   1.97607   1.99105   2.00523
 Alpha virt. eigenvalues --    2.02835   2.03897   2.05587   2.08825   2.11836
 Alpha virt. eigenvalues --    2.12566   2.13570   2.17509   2.18586   2.19375
 Alpha virt. eigenvalues --    2.20798   2.22066   2.24069   2.25174   2.26198
 Alpha virt. eigenvalues --    2.29287   2.32053   2.33253   2.35264   2.35775
 Alpha virt. eigenvalues --    2.38571   2.39702   2.41440   2.43153   2.46252
 Alpha virt. eigenvalues --    2.48314   2.50082   2.50827   2.56472   2.57083
 Alpha virt. eigenvalues --    2.60681   2.62732   2.65820   2.68379   2.68813
 Alpha virt. eigenvalues --    2.69605   2.70051   2.74626   2.76850   2.80976
 Alpha virt. eigenvalues --    2.84296   2.86380   2.89704   2.91117   2.94770
 Alpha virt. eigenvalues --    2.97520   2.98380   3.02230   3.03243   3.05466
 Alpha virt. eigenvalues --    3.06959   3.12543   3.19174   3.22669   3.27166
 Alpha virt. eigenvalues --    3.30649   3.33413   3.37106   3.42674   3.58656
 Alpha virt. eigenvalues --    4.09913   4.23216   4.32021   4.36231   4.42877
 Alpha virt. eigenvalues --    4.51966   4.59437   4.60024   4.70797   4.77404
 Alpha virt. eigenvalues --    4.95717   4.99195   5.02672   5.09796
          Condensed to atoms (all electrons):
               1          2          3          4          5          6
     1  O    8.301054   0.312072  -0.089158  -0.079098   0.003535  -0.000014
     2  N    0.312072   5.680110   0.310163   0.264382  -0.046624   0.000857
     3  O   -0.089158   0.310163   8.330514  -0.087648   0.008295   0.000460
     4  C   -0.079098   0.264382  -0.087648   5.247086   0.569561  -0.048139
     5  C    0.003535  -0.046624   0.008295   0.569561   4.668683   0.306168
     6  N   -0.000014   0.000857   0.000460  -0.048139   0.306168   7.191458
     7  C    0.000003  -0.000094   0.000002   0.004158  -0.028820   0.198556
     8  H   -0.000000   0.000002  -0.000000  -0.000173   0.002211  -0.050025
     9  C   -0.000000  -0.000003   0.000000   0.000445   0.001683  -0.056345
    10  C   -0.000000   0.000000  -0.000000  -0.000017  -0.000063   0.003351
    11  C   -0.000000  -0.000000  -0.000000  -0.000015   0.000015  -0.000154
    12  C   -0.000000   0.000001  -0.000000  -0.000085  -0.000127   0.003559
    13  C   -0.000018  -0.000017  -0.000002  -0.010468   0.000522  -0.043466
    14  H   -0.000002  -0.000057   0.000000   0.002867   0.004636  -0.005397
    15  N    0.000192   0.001566  -0.000011  -0.060325  -0.003266   0.001847
    16  C    0.003477  -0.025359   0.001807   0.319592  -0.038899  -0.001067
    17  H    0.000125  -0.004039   0.011797  -0.027334   0.377625  -0.033832
    18  H    0.000000  -0.000035   0.000008   0.000940  -0.024439   0.328586
    19  H    0.000000   0.000000   0.000000  -0.000716   0.000629   0.000627
    20  H    0.000000  -0.000000   0.000000  -0.000026   0.000035  -0.001747
    21  H   -0.000000  -0.000000   0.000000   0.000000   0.000001  -0.000059
    22  H   -0.000000   0.000000  -0.000000  -0.000000  -0.000002  -0.000098
    23  H    0.000000  -0.000000   0.000000   0.000023  -0.000000  -0.000024
    24  H    0.000000   0.000000   0.000000   0.000000  -0.000000   0.000004
    25  H    0.000000  -0.000000   0.000000   0.000019  -0.000000  -0.000070
    26  H    0.000000  -0.000000   0.000000   0.000005  -0.000001  -0.000065
    27  H    0.005075   0.000214  -0.000002  -0.063232   0.001943   0.000045
               7          8          9         10         11         12
     1  O    0.000003  -0.000000  -0.000000  -0.000000  -0.000000  -0.000000
     2  N   -0.000094   0.000002  -0.000003   0.000000  -0.000000   0.000001
     3  O    0.000002  -0.000000   0.000000  -0.000000  -0.000000  -0.000000
     4  C    0.004158  -0.000173   0.000445  -0.000017  -0.000015  -0.000085
     5  C   -0.028820   0.002211   0.001683  -0.000063   0.000015  -0.000127
     6  N    0.198556  -0.050025  -0.056345   0.003351  -0.000154   0.003559
     7  C    5.000508   0.417260   0.340364  -0.049294  -0.007681  -0.063896
     8  H    0.417260   0.547448  -0.060771   0.001469  -0.000342  -0.002867
     9  C    0.340364  -0.060771   5.181887   0.317769  -0.053000  -0.006232
    10  C   -0.049294   0.001469   0.317769   5.127111   0.332665  -0.060186
    11  C   -0.007681  -0.000342  -0.053000   0.332665   5.124349   0.330464
    12  C   -0.063896  -0.002867  -0.006232  -0.060186   0.330464   5.137673
    13  C    0.332634  -0.040483  -0.050298  -0.001759  -0.048005   0.367860
    14  H   -0.040033  -0.000989   0.003879  -0.000391   0.003954  -0.040806
    15  N   -0.057943   0.004017  -0.012631   0.001466  -0.007697  -0.074100
    16  C   -0.002311   0.000019  -0.000864  -0.000025   0.000003   0.002520
    17  H    0.001424  -0.000021  -0.000064   0.000001   0.000000   0.000001
    18  H   -0.028512  -0.002688   0.000820  -0.000122   0.000011  -0.000135
    19  H   -0.034978   0.004103   0.386040  -0.032682  -0.002267   0.000634
    20  H   -0.041548  -0.001841   0.397373  -0.037393   0.004135  -0.000359
    21  H    0.004038  -0.000079  -0.035826   0.400140  -0.035864   0.004213
    22  H   -0.004217   0.003516  -0.045664   0.395966  -0.045603  -0.001246
    23  H    0.000425   0.000034  -0.001995  -0.040142   0.396753  -0.036716
    24  H   -0.000140  -0.000099   0.004387  -0.038437   0.400324  -0.037831
    25  H    0.004965  -0.000001  -0.000372   0.004100  -0.033958   0.395526
    26  H   -0.004456   0.001599   0.001040  -0.002412  -0.042224   0.394697
    27  H   -0.000389   0.000008  -0.000056   0.000005   0.000005  -0.000022
              13         14         15         16         17         18
     1  O   -0.000018  -0.000002   0.000192   0.003477   0.000125   0.000000
     2  N   -0.000017  -0.000057   0.001566  -0.025359  -0.004039  -0.000035
     3  O   -0.000002   0.000000  -0.000011   0.001807   0.011797   0.000008
     4  C   -0.010468   0.002867  -0.060325   0.319592  -0.027334   0.000940
     5  C    0.000522   0.004636  -0.003266  -0.038899   0.377625  -0.024439
     6  N   -0.043466  -0.005397   0.001847  -0.001067  -0.033832   0.328586
     7  C    0.332634  -0.040033  -0.057943  -0.002311   0.001424  -0.028512
     8  H   -0.040483  -0.000989   0.004017   0.000019  -0.000021  -0.002688
     9  C   -0.050298   0.003879  -0.012631  -0.000864  -0.000064   0.000820
    10  C   -0.001759  -0.000391   0.001466  -0.000025   0.000001  -0.000122
    11  C   -0.048005   0.003954  -0.007697   0.000003   0.000000   0.000011
    12  C    0.367860  -0.040806  -0.074100   0.002520   0.000001  -0.000135
    13  C    5.022602   0.402588   0.239110  -0.068878  -0.000043   0.003632
    14  H    0.402588   0.518059  -0.035649  -0.004941   0.000061   0.000007
    15  N    0.239110  -0.035649   6.933546   0.585825  -0.000064  -0.000118
    16  C   -0.068878  -0.004941   0.585825   4.692427   0.001570  -0.000201
    17  H   -0.000043   0.000061  -0.000064   0.001570   0.386715  -0.001861
    18  H    0.003632   0.000007  -0.000118  -0.000201  -0.001861   0.324974
    19  H   -0.006344   0.000064   0.006874   0.002498   0.000011  -0.000128
    20  H    0.003857  -0.000050   0.000072  -0.000030  -0.000001   0.002889
    21  H   -0.000377   0.000009  -0.000028   0.000002  -0.000000  -0.000000
    22  H    0.000327  -0.000044   0.000003  -0.000001   0.000000   0.000002
    23  H   -0.005844   0.000007   0.006697   0.000059   0.000000   0.000000
    24  H    0.004142  -0.000058   0.000039   0.000005   0.000000  -0.000000
    25  H   -0.034512  -0.002660   0.000754  -0.000061  -0.000000   0.000002
    26  H   -0.044698  -0.000908   0.004177  -0.000054   0.000000  -0.000001
    27  H    0.004779  -0.000175  -0.039982   0.400606  -0.000056   0.000002
              19         20         21         22         23         24
     1  O    0.000000   0.000000  -0.000000  -0.000000   0.000000   0.000000
     2  N    0.000000  -0.000000  -0.000000   0.000000  -0.000000   0.000000
     3  O    0.000000   0.000000   0.000000  -0.000000   0.000000   0.000000
     4  C   -0.000716  -0.000026   0.000000  -0.000000   0.000023   0.000000
     5  C    0.000629   0.000035   0.000001  -0.000002  -0.000000  -0.000000
     6  N    0.000627  -0.001747  -0.000059  -0.000098  -0.000024   0.000004
     7  C   -0.034978  -0.041548   0.004038  -0.004217   0.000425  -0.000140
     8  H    0.004103  -0.001841  -0.000079   0.003516   0.000034  -0.000099
     9  C    0.386040   0.397373  -0.035826  -0.045664  -0.001995   0.004387
    10  C   -0.032682  -0.037393   0.400140   0.395966  -0.040142  -0.038437
    11  C   -0.002267   0.004135  -0.035864  -0.045603   0.396753   0.400324
    12  C    0.000634  -0.000359   0.004213  -0.001246  -0.036716  -0.037831
    13  C   -0.006344   0.003857  -0.000377   0.000327  -0.005844   0.004142
    14  H    0.000064  -0.000050   0.000009  -0.000044   0.000007  -0.000058
    15  N    0.006874   0.000072  -0.000028   0.000003   0.006697   0.000039
    16  C    0.002498  -0.000030   0.000002  -0.000001   0.000059   0.000005
    17  H    0.000011  -0.000001  -0.000000   0.000000   0.000000   0.000000
    18  H   -0.000128   0.002889  -0.000000   0.000002   0.000000  -0.000000
    19  H    0.507146  -0.023960  -0.002585   0.003758   0.001644  -0.000070
    20  H   -0.023960   0.549660  -0.002619  -0.002953  -0.000050  -0.000090
    21  H   -0.002585  -0.002619   0.526050  -0.024686  -0.002818  -0.002061
    22  H    0.003758  -0.002953  -0.024686   0.568694   0.004063  -0.003590
    23  H    0.001644  -0.000050  -0.002818   0.004063   0.509965  -0.024961
    24  H   -0.000070  -0.000090  -0.002061  -0.003590  -0.024961   0.540660
    25  H   -0.000027   0.000011  -0.000086  -0.000082  -0.002091  -0.002382
    26  H    0.000023  -0.000035  -0.000074   0.002463   0.003819  -0.002761
    27  H    0.000070   0.000000  -0.000000   0.000000  -0.000021  -0.000000
              25         26         27
     1  O    0.000000   0.000000   0.005075
     2  N   -0.000000  -0.000000   0.000214
     3  O    0.000000   0.000000  -0.000002
     4  C    0.000019   0.000005  -0.063232
     5  C   -0.000000  -0.000001   0.001943
     6  N   -0.000070  -0.000065   0.000045
     7  C    0.004965  -0.004456  -0.000389
     8  H   -0.000001   0.001599   0.000008
     9  C   -0.000372   0.001040  -0.000056
    10  C    0.004100  -0.002412   0.000005
    11  C   -0.033958  -0.042224   0.000005
    12  C    0.395526   0.394697  -0.000022
    13  C   -0.034512  -0.044698   0.004779
    14  H   -0.002660  -0.000908  -0.000175
    15  N    0.000754   0.004177  -0.039982
    16  C   -0.000061  -0.000054   0.400606
    17  H   -0.000000   0.000000  -0.000056
    18  H    0.000002  -0.000001   0.000002
    19  H   -0.000027   0.000023   0.000070
    20  H    0.000011  -0.000035   0.000000
    21  H   -0.000086  -0.000074  -0.000000
    22  H   -0.000082   0.002463   0.000000
    23  H   -0.002091   0.003819  -0.000021
    24  H   -0.002382  -0.002761  -0.000000
    25  H    0.510167  -0.023070  -0.000010
    26  H   -0.023070   0.560290   0.000001
    27  H   -0.000010   0.000001   0.450489
 Mulliken charges:
               1
     1  O   -0.457243
     2  N    0.506860
     3  O   -0.486224
     4  C   -0.031802
     5  C    0.196699
     6  N   -0.795015
     7  C    0.059974
     8  H    0.178694
     9  C   -0.311566
    10  C   -0.321120
    11  C   -0.315866
    12  C   -0.312541
    13  C   -0.026840
    14  H    0.196031
    15  N   -0.494369
    16  C    0.132284
    17  H    0.287984
    18  H    0.396367
    19  H    0.189637
    20  H    0.154671
    21  H    0.172709
    22  H    0.149395
    23  H    0.191174
    24  H    0.162918
    25  H    0.183840
    26  H    0.152644
    27  H    0.240704
 Sum of Mulliken charges =  -0.00000
 Mulliken charges with hydrogens summed into heavy atoms:
               1
     1  O   -0.457243
     2  N    0.506860
     3  O   -0.486224
     4  C   -0.031802
     5  C    0.484683
     6  N   -0.398648
     7  C    0.238669
     9  C    0.032742
    10  C    0.000984
    11  C    0.038227
    12  C    0.023943
    13  C    0.169191
    15  N   -0.494369
    16  C    0.372987
 Electronic spatial extent (au):  <R**2>=           3134.7835
 Charge=             -0.0000 electrons
 Dipole moment (field-independent basis, Debye):
    X=              5.4145    Y=              4.4227    Z=              0.5116  Tot=              7.0099
 Quadrupole moment (field-independent basis, Debye-Ang):
   XX=           -105.6244   YY=            -80.1984   ZZ=            -82.2762
   XY=             -1.7513   XZ=              0.9043   YZ=              0.0700
 Traceless Quadrupole moment (field-independent basis, Debye-Ang):
   XX=            -16.2581   YY=              9.1679   ZZ=              7.0901
   XY=             -1.7513   XZ=              0.9043   YZ=              0.0700
 Octapole moment (field-independent basis, Debye-Ang**2):
  XXX=            102.8537  YYY=             36.2131  ZZZ=             -4.9557  XYY=             -1.4350
  XXY=             11.3359  XXZ=             -0.1505  XZZ=             -8.1024  YZZ=             -2.9747
  YYZ=              0.8285  XYZ=             -1.4777
 Hexadecapole moment (field-independent basis, Debye-Ang**3):
 XXXX=          -3575.0322 YYYY=           -621.3818 ZZZZ=           -298.4005 XXXY=            -36.9465
 XXXZ=             24.7853 YYYX=            -17.0156 YYYZ=             11.2690 ZZZX=             20.3753
 ZZZY=              8.5578 XXYY=           -658.9493 XXZZ=           -545.1242 YYZZ=           -164.6624
 XXYZ=              2.0328 YYXZ=              9.9078 ZZXY=              3.3795
 N-N= 9.163067018854D+02 E-N=-3.378583532320D+03  KE= 6.588022335300D+02
 Calling FoFJK, ICntrl=  10002127 FMM=F ISym2X=0 I1Cent= 0 IOpClX= 0 NMat=1 NMatS=1 NMatT=0.
 -------------------------------------------------------------------
 Center     Atomic                   Forces (Hartrees/Bohr)
 Number     Number              X              Y              Z
 -------------------------------------------------------------------
      1        8           0.001454419   -0.019878924   -0.003407179
      2        7           0.040565590    0.013689934   -0.000870982
      3        8          -0.005492737    0.015670004    0.003444749
      4        6           0.004881461   -0.002554735    0.005136669
      5        6           0.003152769   -0.017420126   -0.005948867
      6        7           0.015448219   -0.009510401   -0.005693325
      7        6          -0.004648135    0.005196031    0.002488123
      8        1          -0.010096677   -0.001923385   -0.007655448
      9        6          -0.003908845    0.000097073   -0.002174077
     10        6           0.002840023   -0.000841461    0.000917048
     11        6          -0.000970070   -0.004569089   -0.002390864
     12        6           0.000886963   -0.008667337   -0.002926315
     13        6           0.008822127   -0.001152463    0.005176823
     14        1           0.000931534    0.004284244   -0.009954250
     15        7          -0.001919018    0.001334603    0.001596642
     16        6          -0.027500172    0.018142275    0.007598218
     17        1           0.007148031   -0.005968173   -0.006241629
     18        1          -0.017511912   -0.001780724    0.006162088
     19        1           0.003101540    0.005947512    0.007644025
     20        1          -0.003255484   -0.007385395    0.002595060
     21        1          -0.004380820    0.002369960    0.009617840
     22        1          -0.003963275   -0.003984240   -0.007417505
     23        1           0.003957008    0.006104282    0.009291982
     24        1          -0.009396567    0.002578686   -0.002163220
     25        1          -0.000840788    0.010604395   -0.002402509
     26        1          -0.004771460   -0.004820769   -0.004409869
     27        1           0.005466275    0.004438223    0.001986772
 -------------------------------------------------------------------
 Cartesian Forces:  Max     0.040565590 RMS     0.008863049

 GradGradGradGradGradGradGradGradGradGradGradGradGradGradGradGradGradGrad
 Berny optimization.
 FormGI is forming the generalized inverse of G from B-inverse, IUseBI=4.
 Internal  Forces:  Max     0.037660510 RMS     0.007259336
 Search for a local minimum.
 Step number   1 out of a maximum of   20
 All quantities printed in internal units (Hartrees-Bohrs-Radians)
 Mixed Optimization -- RFO/linear search
 Second derivative matrix not updated -- first step.
 ITU=  0
     Eigenvalues ---    0.00231   0.00769   0.00928   0.01073   0.01169
     Eigenvalues ---    0.01300   0.01473   0.01545   0.01876   0.02012
     Eigenvalues ---    0.02099   0.02682   0.03659   0.04509   0.04697
     Eigenvalues ---    0.04838   0.05076   0.05139   0.05302   0.05888
     Eigenvalues ---    0.06277   0.07232   0.07704   0.07724   0.07873
     Eigenvalues ---    0.07995   0.08048   0.08052   0.10462   0.11745
     Eigenvalues ---    0.12281   0.13536   0.15301   0.15818   0.15993
     Eigenvalues ---    0.16000   0.20102   0.21942   0.23180   0.24979
     Eigenvalues ---    0.25000   0.25000   0.25358   0.26201   0.26652
     Eigenvalues ---    0.27983   0.28082   0.28466   0.29876   0.31453
     Eigenvalues ---    0.32014   0.32047   0.32237   0.32290   0.32380
     Eigenvalues ---    0.32387   0.32405   0.32512   0.32525   0.32582
     Eigenvalues ---    0.33387   0.33605   0.35272   0.43880   0.44421
     Eigenvalues ---    0.49187   0.67165   0.90449   0.913131000.00000
     Eigenvalues --- 1000.000001000.000001000.000001000.000001000.00000
     Eigenvalues --- 1000.000001000.000001000.000001000.000001000.00000
     Eigenvalues --- 1000.000001000.000001000.000001000.000001000.00000
     Eigenvalues --- 1000.000001000.000001000.000001000.000001000.00000
     Eigenvalues --- 1000.000001000.000001000.000001000.000001000.00000
     Eigenvalues --- 1000.000001000.000001000.000001000.000001000.00000
     Eigenvalues --- 1000.000001000.000001000.000001000.000001000.00000
     Eigenvalues --- 1000.000001000.000001000.000001000.000001000.00000
     Eigenvalues --- 1000.000001000.000001000.000001000.000001000.00000
     Eigenvalues --- 1000.000001000.000001000.000001000.000001000.00000
     Eigenvalues --- 1000.000001000.000001000.000001000.000001000.00000
     Eigenvalues --- 1000.000001000.000001000.000001000.000001000.00000
     Eigenvalues --- 1000.000001000.000001000.000001000.000001000.00000
     Eigenvalues --- 1000.000001000.000001000.000001000.000001000.00000
     Eigenvalues --- 1000.000001000.000001000.000001000.000001000.00000
     Eigenvalues --- 1000.000001000.000001000.000001000.000001000.00000
     Eigenvalues --- 1000.000001000.000001000.000001000.000001000.00000
     Eigenvalues --- 1000.000001000.000001000.000001000.000001000.00000
     Eigenvalues --- 1000.00000
 RFO step:  Lambda=-2.22024405D-02 EMin= 2.30560842D-03
 Linear search not attempted -- first point.
 Iteration  1 RMS(Cart)=  0.05256742 RMS(Int)=  0.00101964
 Iteration  2 RMS(Cart)=  0.00106678 RMS(Int)=  0.00023347
 Iteration  3 RMS(Cart)=  0.00000085 RMS(Int)=  0.00023347
 Iteration  1 RMS(Cart)=  0.00003015 RMS(Int)=  0.00002322
 Iteration  2 RMS(Cart)=  0.00001270 RMS(Int)=  0.00002519
 Iteration  3 RMS(Cart)=  0.00000926 RMS(Int)=  0.00002811
 Iteration  4 RMS(Cart)=  0.00000767 RMS(Int)=  0.00003081
 Iteration  5 RMS(Cart)=  0.00000652 RMS(Int)=  0.00003323
 Iteration  6 RMS(Cart)=  0.00000556 RMS(Int)=  0.00003538
 Iteration  7 RMS(Cart)=  0.00000473 RMS(Int)=  0.00003728
 Iteration  8 RMS(Cart)=  0.00000401 RMS(Int)=  0.00003894
 Iteration  9 RMS(Cart)=  0.00000340 RMS(Int)=  0.00004039
 Iteration 10 RMS(Cart)=  0.00000288 RMS(Int)=  0.00004165
 Iteration 11 RMS(Cart)=  0.00000243 RMS(Int)=  0.00004273
 Iteration 12 RMS(Cart)=  0.00000206 RMS(Int)=  0.00004366
 Iteration 13 RMS(Cart)=  0.00000174 RMS(Int)=  0.00004445
 Iteration 14 RMS(Cart)=  0.00000147 RMS(Int)=  0.00004513
 Iteration 15 RMS(Cart)=  0.00000125 RMS(Int)=  0.00004571
 Iteration 16 RMS(Cart)=  0.00000105 RMS(Int)=  0.00004620
 Iteration 17 RMS(Cart)=  0.00000089 RMS(Int)=  0.00004662
 Variable       Old X    -DE/DX   Delta X   Delta X   Delta X     New X
                                 (Linear)    (Quad)   (Total)
    R1        2.32334   0.01886   0.00000   0.02016   0.02016   2.34350
    R2        2.32727   0.01589   0.00000   0.01714   0.01714   2.34441
    R3        2.88211  -0.03766   0.00000  -0.11733  -0.11733   2.76477
    R4        2.64231  -0.03410   0.00000  -0.07609  -0.07597   2.56634
    R5        2.86951  -0.03628   0.00000   0.00000   0.00000   2.86951
    R6        2.59005  -0.02390   0.00000  -0.04560  -0.04566   2.54439
    R7        2.08376  -0.01037   0.00000  -0.02912  -0.02912   2.05465
    R8        2.82577  -0.02050   0.00000  -0.05264  -0.05280   2.77297
    R9        1.93298  -0.00675   0.00000  -0.01464  -0.01464   1.91834
   R10        2.11856  -0.01198   0.00000  -0.03557  -0.03557   2.08299
   R11        2.92752  -0.01295   0.00000  -0.04379  -0.04383   2.88369
   R12        2.90392  -0.00537   0.00000  -0.00768  -0.00758   2.89633
   R13        2.91142  -0.00470   0.00000  -0.01447  -0.01448   2.89694
   R14        2.09917  -0.00996   0.00000  -0.02867  -0.02867   2.07050
   R15        2.09893  -0.00805   0.00000  -0.02318  -0.02318   2.07575
   R16        2.90421  -0.00176   0.00000  -0.00751  -0.00756   2.89665
   R17        2.10141  -0.01058   0.00000  -0.03056  -0.03056   2.07085
   R18        2.10317  -0.00901   0.00000  -0.02612  -0.02612   2.07705
   R19        2.91750  -0.00892   0.00000  -0.02895  -0.02892   2.88858
   R20        2.10412  -0.01165   0.00000  -0.03380  -0.03380   2.07032
   R21        2.10110  -0.00996   0.00000  -0.02875  -0.02875   2.07235
   R22        2.93533  -0.01052   0.00000  -0.03661  -0.03661   2.89872
   R23        2.10155  -0.01074   0.00000  -0.03105  -0.03105   2.07050
   R24        2.09791  -0.00788   0.00000  -0.02265  -0.02265   2.07526
   R25        2.10757  -0.00926   0.00000  -0.02703  -0.02703   2.08054
   R26        2.76825  -0.00544   0.00000  -0.00949  -0.00974   2.75851
   R27        2.44106  -0.00694   0.00000  -0.01096  -0.01091   2.43015
   R28        2.08002  -0.00666   0.00000  -0.01858  -0.01858   2.06144
    A1        2.16060   0.01018   0.00000   0.03747   0.03738   2.19798
    A2        2.05078  -0.00675   0.00000  -0.02471  -0.02480   2.02598
    A3        2.07173  -0.00342   0.00000  -0.01248  -0.01258   2.05916
    A4        2.03649  -0.00729   0.00000  -0.01935  -0.01972   2.01678
    A5        2.03298  -0.00395   0.00000  -0.00707  -0.00746   2.02551
    A6        2.21287   0.01119   0.00000   0.02503   0.02521   2.23809
    A7        2.19913   0.00665   0.00000   0.01997   0.02008   2.21921
    A8        2.06422  -0.00348   0.00000  -0.01068  -0.01079   2.05343
    A9        2.01895  -0.00312   0.00000  -0.00861  -0.00874   2.01022
   A10        2.25815  -0.00712   0.00000  -0.01453  -0.01474   2.24341
   A11        2.11432  -0.01176   0.00000  -0.07375  -0.07411   2.04021
   A12        1.87331   0.01895   0.00000   0.09619   0.09639   1.96970
   A13        1.83674  -0.00111   0.00000  -0.01853  -0.01842   1.81832
   A14        2.00447  -0.00092   0.00000  -0.01500  -0.01501   1.98946
   A15        1.97306   0.00001   0.00000   0.00657   0.00623   1.97929
   A16        1.85139   0.00250   0.00000   0.02412   0.02400   1.87539
   A17        1.84805   0.00078   0.00000   0.01719   0.01699   1.86504
   A18        1.93574  -0.00090   0.00000  -0.01024  -0.00994   1.92580
   A19        1.91059  -0.00004   0.00000  -0.00427  -0.00440   1.90619
   A20        1.92202  -0.00067   0.00000  -0.01269  -0.01267   1.90935
   A21        1.92309  -0.00158   0.00000  -0.00758  -0.00757   1.91551
   A22        1.91919  -0.00039   0.00000   0.00630   0.00629   1.92548
   A23        1.90427   0.00315   0.00000   0.02408   0.02408   1.92835
   A24        1.88447  -0.00044   0.00000  -0.00544  -0.00570   1.87877
   A25        1.94058  -0.00102   0.00000   0.00587   0.00580   1.94638
   A26        1.91889  -0.00068   0.00000  -0.00676  -0.00679   1.91209
   A27        1.90498   0.00038   0.00000  -0.00314  -0.00321   1.90177
   A28        1.91607   0.00088   0.00000   0.00738   0.00741   1.92348
   A29        1.89851   0.00170   0.00000   0.01102   0.01103   1.90953
   A30        1.88377  -0.00125   0.00000  -0.01487  -0.01495   1.86882
   A31        1.94449   0.00058   0.00000   0.00460   0.00470   1.94919
   A32        1.90244   0.00064   0.00000   0.00631   0.00627   1.90872
   A33        1.91748   0.00041   0.00000   0.00536   0.00533   1.92282
   A34        1.90659  -0.00107   0.00000  -0.01404  -0.01408   1.89252
   A35        1.91541  -0.00049   0.00000   0.00023   0.00015   1.91556
   A36        1.87605  -0.00009   0.00000  -0.00281  -0.00285   1.87320
   A37        1.94746  -0.00273   0.00000  -0.01805  -0.01808   1.92938
   A38        1.90603   0.00253   0.00000   0.01701   0.01686   1.92289
   A39        1.91083   0.00127   0.00000   0.01357   0.01353   1.92436
   A40        1.90619   0.00009   0.00000  -0.00359  -0.00344   1.90275
   A41        1.91157  -0.00027   0.00000  -0.00465  -0.00458   1.90698
   A42        1.88053  -0.00083   0.00000  -0.00379  -0.00399   1.87654
   A43        1.84664   0.00425   0.00000   0.02340   0.02344   1.87008
   A44        1.93712  -0.00390   0.00000  -0.03125  -0.03168   1.90544
   A45        1.98594   0.00039   0.00000   0.01474   0.01508   2.00102
   A46        1.88046   0.00220   0.00000   0.03007   0.03038   1.91084
   A47        1.89177  -0.00325   0.00000  -0.02989  -0.03005   1.86171
   A48        1.91724   0.00055   0.00000  -0.00485  -0.00468   1.91256
   A49        2.08422  -0.00596   0.00000  -0.01204  -0.01222   2.07200
   A50        2.24632  -0.00388   0.00000  -0.02624  -0.02634   2.21998
   A51        1.97927   0.00421   0.00000   0.02571   0.02503   2.00431
   A52        2.05758  -0.00032   0.00000   0.00087   0.00020   2.05778
    D1       -3.03844  -0.00092   0.00000  -0.03330  -0.03278  -3.07122
    D2        0.14414   0.00016   0.00000   0.00000  -0.00000   0.14414
    D3        0.11561  -0.00154   0.00000  -0.05752  -0.05726   0.05834
    D4       -2.98500  -0.00046   0.00000  -0.02423  -0.02449  -3.00949
    D5        3.08051   0.00059   0.00000   0.01219   0.01221   3.09273
    D6       -0.01374  -0.00050   0.00000  -0.00575  -0.00584  -0.01958
    D7       -0.10689  -0.00109   0.00000  -0.02605  -0.02636  -0.13325
    D8        3.08204  -0.00218   0.00000  -0.04399  -0.04442   3.03762
    D9       -2.70861  -0.00145   0.00000  -0.04590  -0.04632  -2.75493
   D10        0.42591   0.00066   0.00000   0.01337   0.01307   0.43898
   D11        0.47872   0.00030   0.00000  -0.00744  -0.00730   0.47141
   D12       -2.66995   0.00242   0.00000   0.05183   0.05209  -2.61786
   D13       -0.13397  -0.00012   0.00000   0.02596   0.02628  -0.10769
   D14        2.67859   0.00341   0.00000   0.07554   0.07443   2.75302
   D15        2.96136   0.00093   0.00000   0.04342   0.04388   3.00524
   D16       -0.50926   0.00446   0.00000   0.09300   0.09203  -0.41724
   D17       -2.47685  -0.00088   0.00000  -0.01618  -0.01578  -2.49263
   D18        1.77723  -0.00273   0.00000  -0.02566  -0.02538   1.75185
   D19       -0.46799  -0.00062   0.00000  -0.00340  -0.00344  -0.47143
   D20        0.95868  -0.00008   0.00000  -0.03756  -0.03810   0.92058
   D21       -1.07043  -0.00192   0.00000  -0.04704  -0.04770  -1.11813
   D22        2.96754   0.00019   0.00000  -0.02478  -0.02576   2.94178
   D23        2.93945   0.00284   0.00000   0.02205   0.02183   2.96128
   D24       -1.23174   0.00191   0.00000   0.01909   0.01890  -1.21284
   D25        0.84522  -0.00004   0.00000  -0.00025  -0.00036   0.84485
   D26        0.91875   0.00307   0.00000   0.03721   0.03719   0.95595
   D27        3.03075   0.00214   0.00000   0.03426   0.03427   3.06501
   D28       -1.17548   0.00019   0.00000   0.01491   0.01500  -1.16048
   D29       -1.08003   0.00122   0.00000   0.00870   0.00873  -1.07130
   D30        1.03196   0.00029   0.00000   0.00574   0.00581   1.03777
   D31        3.10892  -0.00166   0.00000  -0.01361  -0.01346   3.09546
   D32       -2.89883  -0.00121   0.00000  -0.01300  -0.01278  -2.91161
   D33       -0.86371   0.00184   0.00000   0.02011   0.01995  -0.84376
   D34        1.30938  -0.00024   0.00000   0.00000  -0.00001   1.30937
   D35       -0.89675  -0.00207   0.00000  -0.02160  -0.02147  -0.91822
   D36        1.13837   0.00097   0.00000   0.01151   0.01126   1.14963
   D37       -2.97172  -0.00110   0.00000  -0.00859  -0.00870  -2.98042
   D38        1.10412   0.00085   0.00000   0.01125   0.01136   1.11548
   D39        3.13924   0.00390   0.00000   0.04437   0.04409  -3.09986
   D40       -0.97084   0.00183   0.00000   0.02426   0.02413  -0.94672
   D41        0.95665   0.00056   0.00000   0.00000  -0.00000   0.95665
   D42        3.08228   0.00053   0.00000   0.00863   0.00859   3.09088
   D43       -1.13775  -0.00116   0.00000  -0.01531  -0.01528  -1.15303
   D44       -1.15706   0.00166   0.00000   0.01445   0.01451  -1.14255
   D45        0.96857   0.00164   0.00000   0.02308   0.02310   0.99167
   D46        3.03173  -0.00005   0.00000  -0.00086  -0.00077   3.03095
   D47        3.06237   0.00054   0.00000   0.00294   0.00290   3.06527
   D48       -1.09519   0.00052   0.00000   0.01158   0.01149  -1.08370
   D49        0.96797  -0.00117   0.00000  -0.01237  -0.01238   0.95559
   D50       -0.92193  -0.00085   0.00000   0.00000   0.00000  -0.92193
   D51        1.18334  -0.00140   0.00000  -0.01043  -0.01045   1.17289
   D52       -3.04838  -0.00090   0.00000  -0.00704  -0.00707  -3.05545
   D53       -3.04920   0.00008   0.00000  -0.00039  -0.00038  -3.04958
   D54       -0.94393  -0.00047   0.00000  -0.01083  -0.01083  -0.95476
   D55        1.10754   0.00003   0.00000  -0.00743  -0.00745   1.10008
   D56        1.17631   0.00008   0.00000   0.00687   0.00690   1.18321
   D57       -3.00161  -0.00047   0.00000  -0.00356  -0.00355  -3.00516
   D58       -0.95014   0.00003   0.00000  -0.00017  -0.00017  -0.95031
   D59        0.98858  -0.00082   0.00000  -0.01092  -0.01096   0.97763
   D60        3.09761  -0.00077   0.00000  -0.01564  -0.01578   3.08184
   D61       -1.13044   0.00045   0.00000  -0.00244  -0.00240  -1.13284
   D62       -1.11424  -0.00127   0.00000  -0.01245  -0.01244  -1.12668
   D63        0.99479  -0.00122   0.00000  -0.01716  -0.01726   0.97753
   D64        3.04992  -0.00000   0.00000  -0.00397  -0.00388   3.04604
   D65        3.11624  -0.00025   0.00000  -0.00093  -0.00093   3.11531
   D66       -1.05792  -0.00020   0.00000  -0.00564  -0.00575  -1.06367
   D67        0.99722   0.00102   0.00000   0.00756   0.00763   1.00484
   D68       -1.05388   0.00033   0.00000  -0.00151  -0.00145  -1.05533
   D69       -3.12695   0.00156   0.00000   0.00763   0.00728  -3.11967
   D70        1.08242   0.00146   0.00000   0.01307   0.01303   1.09545
   D71        3.12037  -0.00114   0.00000  -0.00883  -0.00870   3.11167
   D72        1.04730   0.00009   0.00000   0.00032   0.00003   1.04733
   D73       -1.02652  -0.00001   0.00000   0.00576   0.00578  -1.02074
   D74        1.06471  -0.00004   0.00000   0.00056   0.00073   1.06544
   D75       -1.00836   0.00119   0.00000   0.00971   0.00945  -0.99890
   D76       -3.08218   0.00109   0.00000   0.01515   0.01521  -3.06697
   D77       -1.17216   0.00332   0.00000   0.00000  -0.00001  -1.17217
   D78        3.06201  -0.00004   0.00000  -0.01811  -0.01792   3.04409
   D79        1.01158  -0.00112   0.00000  -0.03421  -0.03443   0.97715
   D80        0.13929   0.00129   0.00000   0.02135   0.02080   0.16008
   D81       -2.99496  -0.00091   0.00000  -0.04027  -0.04028  -3.03523
         Item               Value     Threshold  Converged?
 Maximum Force            0.037661     0.000450     NO 
 RMS     Force            0.006718     0.000300     NO 
 Maximum Displacement     0.270105     0.001800     NO 
 RMS     Displacement     0.052844     0.001200     NO 
 Predicted change in Energy=-1.239785D-02
 GradGradGradGradGradGradGradGradGradGradGradGradGradGradGradGradGradGrad

                          Input orientation:                          
 ---------------------------------------------------------------------
 Center     Atomic      Atomic             Coordinates (Angstroms)
 Number     Number       Type             X           Y           Z
 ---------------------------------------------------------------------
      1          8           0       -3.504486   -1.403308   -0.222750
      2          7           0       -3.149455   -0.229290   -0.039576
      3          8           0       -3.903007    0.739116    0.143350
      4          6           0       -1.706441    0.011660   -0.026174
      5          6           0       -1.327645    1.284081    0.259742
      6          7           0       -0.070444    1.749541    0.384952
      7          6           0        1.188976    0.996638    0.369438
      8          1           0        1.818692    1.508276    1.115551
      9          6           0        1.926728    1.049128   -0.965326
     10          6           0        3.329747    0.456780   -0.790005
     11          6           0        3.273497   -0.957333   -0.201173
     12          6           0        2.448138   -1.001192    1.084671
     13          6           0        1.036307   -0.454961    0.837033
     14          1           0        0.465088   -0.473553    1.778047
     15          7           0        0.407601   -1.344649   -0.134578
     16          6           0       -0.830629   -1.161412   -0.429447
     17          1           0       -2.111701    2.016736    0.434770
     18          1           0        0.064956    2.747173    0.254936
     19          1           0        1.364538    0.480590   -1.714448
     20          1           0        1.989224    2.088790   -1.314274
     21          1           0        3.845937    0.444078   -1.756580
     22          1           0        3.911347    1.107677   -0.122058
     23          1           0        2.816384   -1.636145   -0.929546
     24          1           0        4.287497   -1.325200   -0.003454
     25          1           0        2.373379   -2.031184    1.450736
     26          1           0        2.934412   -0.406056    1.869116
     27          1           0       -1.314619   -1.892963   -1.077964
 ---------------------------------------------------------------------
                    Distance matrix (angstroms):
                    1          2          3          4          5
     1  O    0.000000
     2  N    1.240128   0.000000
     3  O    2.209711   1.240609   0.000000
     4  C    2.296463   1.463054   2.320093   0.000000
     5  C    3.491919   2.387232   2.634962   1.358046   0.000000
     6  N    4.701319   3.684604   3.970877   2.421929   1.346434
     7  C    5.304621   4.526828   5.103500   3.083849   2.535357
     8  H    6.213259   5.388501   5.854453   3.996243   3.268349
     9  C    6.005327   5.315920   5.942313   3.893362   3.485246
    10  C    7.105522   6.558497   7.298190   5.113194   4.845378
    11  C    6.792673   6.466101   7.382332   5.076352   5.138763
    12  C    6.107764   5.761320   6.652202   4.418187   4.489935
    13  C    4.758288   4.282519   5.128726   2.912993   2.990953
    14  H    4.541492   4.053189   4.819030   2.864643   2.934010
    15  N    3.913521   3.729035   4.795900   2.514061   3.174396
    16  C    2.692721   2.529388   3.657814   1.518477   2.588908
    17  H    3.750850   2.519240   2.219463   2.096910   1.087273
    18  H    5.495051   4.390730   4.448536   3.271070   2.019900
    19  H    5.429699   4.866751   5.591536   3.535686   3.433784
    20  H    6.600532   5.779652   6.218092   4.430757   3.758550
    21  H    7.732670   7.234434   7.983915   5.831825   5.615791
    22  H    7.830055   7.186738   7.827541   5.724507   5.255846
    23  H    6.364525   6.193749   7.207162   4.897682   5.207217
    24  H    7.795460   7.517352   8.447917   6.141254   6.197374
    25  H    6.143622   5.997463   6.984042   4.795770   5.109504
    26  H    6.843232   6.378698   7.144227   5.030321   4.859195
    27  H    2.401390   2.685644   3.888341   2.210741   3.447207
                    6          7          8          9         10
     6  N    0.000000
     7  C    1.467393   0.000000
     8  H    2.039808   1.102271   0.000000
     9  C    2.510483   1.525985   2.133668   0.000000
    10  C    3.822702   2.493723   2.649542   1.532995   0.000000
    11  C    4.341963   2.913559   3.151102   2.534482   1.532841
    12  C    3.794653   2.467463   2.587390   2.945873   2.533245
    13  C    2.507808   1.532674   2.131665   2.510703   2.956077
    14  H    2.677621   2.160938   2.489737   3.461365   3.958116
    15  N    3.173712   2.519167   3.419529   2.954328   3.494805
    16  C    3.116853   3.061731   4.066098   3.574447   4.478535
    17  H    2.059273   3.455334   4.021192   4.382402   5.791622
    18  H    1.015139   2.083484   2.313247   2.799749   4.122701
    19  H    2.841987   2.153998   3.044879   1.095662   2.171913
    20  H    2.691596   2.160574   2.504022   1.098439   2.176079
    21  H    4.650637   3.447422   3.673061   2.162297   1.095847
    22  H    4.064936   2.768610   2.464013   2.157137   1.099127
    23  H    4.639456   3.356689   3.881391   2.829038   2.159478
    24  H    5.347573   3.889835   3.921193   3.483656   2.170576
    25  H    4.626235   3.426328   3.598306   3.940200   3.482172
    26  H    3.984784   2.695020   2.340375   3.341713   2.823420
    27  H    4.117757   4.088123   5.118356   4.378917   5.212901
                   11         12         13         14         15
    11  C    0.000000
    12  C    1.528573   0.000000
    13  C    2.516996   1.533936   0.000000
    14  H    3.469656   2.166024   1.100974   0.000000
    15  N    2.892716   2.401733   1.459741   2.102439   0.000000
    16  C    4.115532   3.615043   2.364000   2.650483   1.285978
    17  H    6.184647   5.506577   4.022568   3.826979   4.239098
    18  H    4.922005   4.518657   3.396472   3.585114   4.124577
    19  H    2.828736   3.347377   2.737343   3.730539   2.596770
    20  H    3.488154   3.938722   3.465089   4.295468   3.960015
    21  H    2.170468   3.480712   3.927992   4.976522   4.201498
    22  H    2.162725   2.836284   3.409919   4.241154   4.276715
    23  H    1.095566   2.143792   2.772125   3.769785   2.553268
    24  H    1.096638   2.161537   3.469002   4.302309   3.882159
    25  H    2.166142   1.095662   2.156125   2.484940   2.617028
    26  H    2.169097   1.098182   2.161109   2.471925   3.358649
    27  H    4.763923   4.430641   3.355878   3.652243   2.038790
                   16         17         18         19         20
    16  C    0.000000
    17  H    3.533927   0.000000
    18  H    4.067861   2.302980   0.000000
    19  H    3.027567   4.366134   3.271817   0.000000
    20  H    4.392984   4.458916   2.568793   1.771067   0.000000
    21  H    5.119487   6.539780   4.862742   2.482024   2.519543
    22  H    5.265889   6.116662   4.198189   3.068416   2.465465
    23  H    3.711628   6.284180   5.309127   2.684119   3.835017
    24  H    5.138435   7.232587   5.872039   3.838237   4.319217
    25  H    3.815398   6.126483   5.439803   4.164752   4.976650
    26  H    4.475432   5.778454   4.558750   4.011555   4.153506
    27  H    1.090865   4.267253   5.021027   3.635484   5.179341
                   21         22         23         24         25
    21  H    0.000000
    22  H    1.765306   0.000000
    23  H    2.463999   3.062603   0.000000
    24  H    2.529579   2.464640   1.765929   0.000000
    25  H    4.310711   3.832946   2.453172   2.505380   0.000000
    26  H    3.833964   2.685249   3.059340   2.486400   1.769419
    27  H    5.705577   6.101501   4.141639   5.732419   4.473786
                   26         27
    26  H    0.000000
    27  H    5.380561   0.000000
 Symmetry turned off by external request.
 Stoichiometry    C9H13N3O2
 Framework group  C1[X(C9H13N3O2)]
 Deg. of freedom    75
 Full point group                 C1      NOp   1
 Rotational constants (GHZ):           1.6803462           0.4184263           0.3691934
 Standard basis: 6-31G(d) (6D, 7F)
   236 basis functions,   444 primitive gaussians,   236 cartesian basis functions
    52 alpha electrons       52 beta electrons
       nuclear repulsion energy       929.3476723460 Hartrees.
 NAtoms=   27 NActive=   27 NUniq=   27 SFac= 1.00D+00 NAtFMM=   60 NAOKFM=F Big=F
 Integral buffers will be    131072 words long.
 Raffenetti 1 integral format.
 Two-electron integral symmetry is turned off.
 One-electron integrals computed using PRISM.
 NBasis=   236 RedAO= T EigKep=  1.09D-03  NBF=   236
 NBsUse=   236 1.00D-06 EigRej= -1.00D+00 NBFU=   236
 Initial guess from the checkpoint file:  "/home/alexey/tmp/Gau-1310648.chk"
 B after Tr=     0.051400    0.006444    0.001215
         Rot=    0.999998   -0.000686    0.000481    0.001582 Ang=  -0.21 deg.
 ExpMin= 1.61D-01 ExpMax= 5.48D+03 ExpMxC= 8.25D+02 IAcc=3 IRadAn=         5 AccDes= 0.00D+00
 Harris functional with IExCor=  205 and IRadAn=       5 diagonalized for initial guess.
 HarFok:  IExCor=  205 AccDes= 0.00D+00 IRadAn=         5 IDoV= 1 UseB2=F ITyADJ=14
 ICtDFT=  3500011 ScaDFX=  1.000000  1.000000  1.000000  1.000000
 FoFCou: FMM=F IPFlag=           0 FMFlag=      100000 FMFlg1=           0
         NFxFlg=           0 DoJE=T BraDBF=F KetDBF=T FulRan=T
         wScrn=  0.000000 ICntrl=       500 IOpCl=  0 I1Cent=   200000004 NGrid=           0
         NMat0=    1 NMatS0=      1 NMatT0=    0 NMatD0=    1 NMtDS0=    0 NMtDT0=    0
 Symmetry not used in FoFCou.
 Keep R1 ints in memory in canonical form, NReq=397720213.
 Requested convergence on RMS density matrix=1.00D-08 within 128 cycles.
 Requested convergence on MAX density matrix=1.00D-06.
 Requested convergence on             energy=1.00D-06.
 No special actions if energy rises.
 SCF Done:  E(RHF) =  -661.296682282     A.U. after   15 cycles
            NFock= 15  Conv=0.41D-08     -V/T= 2.0026
 ExpMin= 1.61D-01 ExpMax= 5.48D+03 ExpMxC= 8.25D+02 IAcc=3 IRadAn=         5 AccDes= 0.00D+00
 HarFok:  IExCor=  205 AccDes= 0.00D+00 IRadAn=         5 IDoV=-2 UseB2=F ITyADJ=14
 ICtDFT= 12500011 ScaDFX=  1.000000  1.000000  1.000000  1.000000
 Range of M.O.s used for correlation:    15   236
 NBasis=   236 NAE=    52 NBE=    52 NFC=    14 NFV=     0
 NROrb=    222 NOA=    38 NOB=    38 NVA=   184 NVB=   184
 Fully direct method using O(ONN) memory.
 JobTyp=1 Pass  1:  I=  15 to  52 NPSUse=  4 ParTrn=T ParDer=T DoDerP=T.
 Spin components of T(2) and E(2):
     alpha-alpha T2 =       0.9117035713D-01 E2=     -0.2719049281D+00
     alpha-beta  T2 =       0.4919961375D+00 E2=     -0.1488145903D+01
     beta-beta   T2 =       0.9117035713D-01 E2=     -0.2719049281D+00
 ANorm=    0.1293961689D+01
 E2 =    -0.2031955759D+01 EUMP2 =    -0.66332863804060D+03
          IDoAtm=111111111111111111111111111
          Differentiating once with respect to electric field.
                with respect to dipole field.
          Differentiating once with respect to nuclear coordinates.
 Keep R1 ints in memory in canonical form, NReq=397723379.
          There are     1 degrees of freedom in the 1st order CPHF.  IDoFFX=0 NUNeed=     1.
 LinEq1:  Iter=  0 NonCon=     1 RMS=4.56D-03 Max=1.20D-01 NDo=     1
 AX will form     1 AO Fock derivatives at one time.
 LinEq1:  Iter=  1 NonCon=     1 RMS=1.53D-03 Max=2.96D-02 NDo=     1
 LinEq1:  Iter=  2 NonCon=     1 RMS=6.37D-04 Max=2.03D-02 NDo=     1
[...]
    23  H    3.691914   6.261165   5.417836   2.705157   3.842422
    24  H    5.130257   7.217663   5.929826   3.850380   4.316593
    25  H    3.813640   6.112434   5.376347   4.172631   4.983138
    26  H    4.492155   5.790585   4.485796   4.035800   4.179078
    27  H    1.088900   4.260782   5.096364   3.595580   5.157066
                   21         22         23         24         25
    21  H    0.000000
    22  H    1.758847   0.000000
    23  H    2.469621   3.062245   0.000000
    24  H    2.517846   2.460233   1.764303   0.000000
    25  H    4.311970   3.838351   2.445070   2.519134   0.000000
    26  H    3.845600   2.702490   3.060671   2.491660   1.767719
    27  H    5.666771   6.072079   4.104577   5.707538   4.464485
                   26         27
    26  H    0.000000
    27  H    5.387589   0.000000
 Symmetry turned off by external request.
 Stoichiometry    C9H13N3O2
 Framework group  C1[X(C9H13N3O2)]
 Deg. of freedom    75
 Full point group                 C1      NOp   1
 Rotational constants (GHZ):           1.6749221           0.4165694           0.3693617

 **********************************************************************

            Population analysis using the SCF Density.

 **********************************************************************

 Alpha  occ. eigenvalues --  -20.59064 -20.58748 -15.84623 -15.63883 -15.56542
 Alpha  occ. eigenvalues --  -11.34821 -11.30284 -11.29685 -11.28864 -11.27342
 Alpha  occ. eigenvalues --  -11.23761 -11.23261 -11.22819 -11.22191  -1.56943
 Alpha  occ. eigenvalues --   -1.36527  -1.30693  -1.23257  -1.14377  -1.09853
 Alpha  occ. eigenvalues --   -1.02806  -1.01461  -0.94390  -0.89088  -0.85602
 Alpha  occ. eigenvalues --   -0.82130  -0.78301  -0.77372  -0.75129  -0.71620
 Alpha  occ. eigenvalues --   -0.69639  -0.69365  -0.67751  -0.65048  -0.63800
 Alpha  occ. eigenvalues --   -0.62371  -0.60041  -0.57685  -0.57103  -0.55026
 Alpha  occ. eigenvalues --   -0.54709  -0.50829  -0.49957  -0.48571  -0.48111
 Alpha  occ. eigenvalues --   -0.47278  -0.46152  -0.46110  -0.43556  -0.41685
 Alpha  occ. eigenvalues --   -0.39967  -0.34095
 Alpha virt. eigenvalues --    0.07532   0.12177   0.17371   0.21786   0.24045
 Alpha virt. eigenvalues --    0.25433   0.27033   0.28546   0.28972   0.29526
 Alpha virt. eigenvalues --    0.30636   0.31665   0.31994   0.32672   0.33879
 Alpha virt. eigenvalues --    0.34291   0.35597   0.37219   0.38440   0.39436
 Alpha virt. eigenvalues --    0.41188   0.42317   0.45055   0.46008   0.46161
 Alpha virt. eigenvalues --    0.46901   0.48955   0.53592   0.57126   0.59036
 Alpha virt. eigenvalues --    0.63649   0.69156   0.69794   0.72704   0.74119
 Alpha virt. eigenvalues --    0.75019   0.75684   0.76944   0.78430   0.79378
 Alpha virt. eigenvalues --    0.81163   0.85028   0.85562   0.85633   0.88440
 Alpha virt. eigenvalues --    0.89406   0.90855   0.91843   0.92873   0.94490
 Alpha virt. eigenvalues --    0.95580   0.97962   0.99148   1.01578   1.02354
 Alpha virt. eigenvalues --    1.03245   1.05717   1.06902   1.07838   1.08987
 Alpha virt. eigenvalues --    1.10383   1.11323   1.11837   1.12371   1.13837
 Alpha virt. eigenvalues --    1.14889   1.14946   1.15856   1.16808   1.18562
 Alpha virt. eigenvalues --    1.19037   1.21145   1.22070   1.23552   1.24042
 Alpha virt. eigenvalues --    1.24549   1.25935   1.26751   1.27388   1.29072
 Alpha virt. eigenvalues --    1.29913   1.33041   1.36152   1.37086   1.40674
 Alpha virt. eigenvalues --    1.41759   1.46002   1.48747   1.51885   1.53985
 Alpha virt. eigenvalues --    1.56199   1.58419   1.59481   1.63166   1.65772
 Alpha virt. eigenvalues --    1.68091   1.68496   1.73153   1.74952   1.77106
 Alpha virt. eigenvalues --    1.81028   1.84216   1.87126   1.90202   1.93366
 Alpha virt. eigenvalues --    1.94660   1.96210   1.99680   2.01875   2.02553
 Alpha virt. eigenvalues --    2.04563   2.05924   2.07682   2.09463   2.12170
 Alpha virt. eigenvalues --    2.12671   2.14750   2.18412   2.19818   2.21901
 Alpha virt. eigenvalues --    2.22578   2.24696   2.25448   2.27963   2.29380
 Alpha virt. eigenvalues --    2.32086   2.33360   2.34226   2.36060   2.37970
 Alpha virt. eigenvalues --    2.40097   2.40955   2.43348   2.45557   2.47426
 Alpha virt. eigenvalues --    2.50606   2.51344   2.52903   2.55133   2.61084
 Alpha virt. eigenvalues --    2.62207   2.64816   2.67406   2.69972   2.70342
 Alpha virt. eigenvalues --    2.72072   2.72701   2.76356   2.78470   2.83809
 Alpha virt. eigenvalues --    2.87924   2.88360   2.91843   2.92834   2.95789
 Alpha virt. eigenvalues --    2.99075   3.01059   3.03953   3.04421   3.07191
 Alpha virt. eigenvalues --    3.09210   3.14710   3.21099   3.25117   3.27374
 Alpha virt. eigenvalues --    3.33397   3.37361   3.38493   3.50252   3.62806
 Alpha virt. eigenvalues --    4.13393   4.28344   4.34180   4.38261   4.45831
 Alpha virt. eigenvalues --    4.54666   4.61501   4.62244   4.73293   4.79434
 Alpha virt. eigenvalues --    4.98190   5.00679   5.04209   5.10989
          Condensed to atoms (all electrons):
               1          2          3          4          5          6
     1  O    8.318893   0.305230  -0.081828  -0.084671   0.004591  -0.000016
     2  N    0.305230   5.718254   0.303175   0.262322  -0.053083   0.000960
     3  O   -0.081828   0.303175   8.352149  -0.093257   0.004902   0.000749
     4  C   -0.084671   0.262322  -0.093257   5.234054   0.564610  -0.047147
     5  C    0.004591  -0.053083   0.004902   0.564610   4.699780   0.314021
     6  N   -0.000016   0.000960   0.000749  -0.047147   0.314021   7.199778
     7  C    0.000004  -0.000135   0.000003   0.004618  -0.029226   0.170702
     8  H   -0.000000   0.000002  -0.000000  -0.000249   0.002970  -0.050593
     9  C   -0.000000  -0.000003  -0.000000   0.000746   0.000650  -0.062452
    10  C    0.000000   0.000000   0.000000  -0.000033  -0.000052   0.003800
    11  C   -0.000000  -0.000000  -0.000000  -0.000027   0.000024  -0.000188
    12  C   -0.000000   0.000002  -0.000000  -0.000089  -0.000166   0.003769
    13  C   -0.000023  -0.000031  -0.000004  -0.011855  -0.000324  -0.045788
    14  H   -0.000003  -0.000112   0.000001   0.002603   0.005461  -0.006348
    15  N    0.000383   0.002166  -0.000013  -0.062338  -0.004836   0.001529
    16  C    0.001263  -0.025457   0.002159   0.331607  -0.043884  -0.001695
    17  H    0.000211  -0.006906   0.016729  -0.024079   0.375715  -0.034472
    18  H    0.000001  -0.000050   0.000011   0.001461  -0.031360   0.338877
    19  H    0.000001  -0.000004   0.000000  -0.001041   0.001152  -0.000331
    20  H    0.000000  -0.000000   0.000000  -0.000070   0.000151  -0.000525
    21  H   -0.000000   0.000000   0.000000   0.000001   0.000001  -0.000078
    22  H   -0.000000   0.000000  -0.000000  -0.000000  -0.000003  -0.000117
    23  H    0.000000  -0.000000   0.000000   0.000033  -0.000000  -0.000030
    24  H    0.000000   0.000000   0.000000   0.000000  -0.000000   0.000006
    25  H    0.000000  -0.000000   0.000000   0.000023   0.000001  -0.000089
    26  H    0.000000  -0.000000   0.000000   0.000005  -0.000002  -0.000059
    27  H    0.005642   0.000097   0.000004  -0.059033   0.001851   0.000028
               7          8          9         10         11         12
     1  O    0.000004  -0.000000  -0.000000   0.000000  -0.000000  -0.000000
     2  N   -0.000135   0.000002  -0.000003   0.000000  -0.000000   0.000002
     3  O    0.000003  -0.000000  -0.000000   0.000000  -0.000000  -0.000000
     4  C    0.004618  -0.000249   0.000746  -0.000033  -0.000027  -0.000089
     5  C   -0.029226   0.002970   0.000650  -0.000052   0.000024  -0.000166
     6  N    0.170702  -0.050593  -0.062452   0.003800  -0.000188   0.003769
     7  C    5.007507   0.419646   0.350150  -0.054515  -0.008887  -0.060859
     8  H    0.419646   0.538156  -0.055585   0.000837  -0.000363  -0.002261
     9  C    0.350150  -0.055585   5.160058   0.324146  -0.050451  -0.005438
    10  C   -0.054515   0.000837   0.324146   5.120097   0.336750  -0.061040
    11  C   -0.008887  -0.000363  -0.050451   0.336750   5.120505   0.335503
    12  C   -0.060859  -0.002261  -0.005438  -0.061040   0.335503   5.120376
    13  C    0.340456  -0.038725  -0.059765  -0.000373  -0.050774   0.371572
    14  H   -0.045245  -0.000897   0.004430  -0.000408   0.004168  -0.036511
    15  N   -0.057071   0.003876  -0.014007   0.001569  -0.012819  -0.081755
    16  C   -0.001766   0.000018  -0.001223  -0.000025   0.000026   0.002560
    17  H    0.001649  -0.000047  -0.000070   0.000001   0.000000   0.000000
    18  H   -0.021466  -0.004432   0.001268  -0.000084   0.000004  -0.000113
    19  H   -0.036635   0.004356   0.390285  -0.032199  -0.002233   0.000706
    20  H   -0.042313  -0.002081   0.399875  -0.035378   0.003941  -0.000407
    21  H    0.004574  -0.000075  -0.036264   0.402377  -0.034927   0.004351
    22  H   -0.004817   0.003561  -0.046914   0.397843  -0.045403  -0.001064
    23  H    0.000553   0.000036  -0.001940  -0.039134   0.399285  -0.038070
    24  H   -0.000127  -0.000104   0.004376  -0.038294   0.402443  -0.038588
    25  H    0.005119  -0.000017  -0.000429   0.004195  -0.033463   0.398517
    26  H   -0.003951   0.001698   0.000973  -0.002254  -0.041281   0.396756
    27  H   -0.000393   0.000009  -0.000052   0.000006   0.000012  -0.000038
              13         14         15         16         17         18
     1  O   -0.000023  -0.000003   0.000383   0.001263   0.000211   0.000001
     2  N   -0.000031  -0.000112   0.002166  -0.025457  -0.006906  -0.000050
     3  O   -0.000004   0.000001  -0.000013   0.002159   0.016729   0.000011
     4  C   -0.011855   0.002603  -0.062338   0.331607  -0.024079   0.001461
     5  C   -0.000324   0.005461  -0.004836  -0.043884   0.375715  -0.031360
     6  N   -0.045788  -0.006348   0.001529  -0.001695  -0.034472   0.338877
     7  C    0.340456  -0.045245  -0.057071  -0.001766   0.001649  -0.021466
     8  H   -0.038725  -0.000897   0.003876   0.000018  -0.000047  -0.004432
     9  C   -0.059765   0.004430  -0.014007  -0.001223  -0.000070   0.001268
    10  C   -0.000373  -0.000408   0.001569  -0.000025   0.000001  -0.000084
    11  C   -0.050774   0.004168  -0.012819   0.000026   0.000000   0.000004
    12  C    0.371572  -0.036511  -0.081755   0.002560   0.000000  -0.000113
    13  C    5.036422   0.403324   0.242648  -0.069412  -0.000015   0.002948
    14  H    0.403324   0.522223  -0.037112  -0.004397   0.000092  -0.000099
    15  N    0.242648  -0.037112   6.954311   0.583423  -0.000094  -0.000126
    16  C   -0.069412  -0.004397   0.583423   4.688223   0.001878  -0.000173
    17  H   -0.000015   0.000092  -0.000094   0.001878   0.380169  -0.002818
    18  H    0.002948  -0.000099  -0.000126  -0.000173  -0.002818   0.311811
    19  H   -0.007628   0.000096   0.007362   0.002943   0.000016  -0.000148
    20  H    0.004330  -0.000067   0.000105  -0.000035   0.000002   0.000870
    21  H   -0.000434   0.000010  -0.000036   0.000003  -0.000000   0.000001
    22  H    0.000076  -0.000055   0.000017  -0.000002   0.000000   0.000001
    23  H   -0.007388   0.000001   0.008380   0.000094   0.000000   0.000000
    24  H    0.004678  -0.000057   0.000122   0.000006   0.000000  -0.000000
    25  H   -0.035726  -0.002811   0.000311  -0.000025  -0.000000   0.000002
    26  H   -0.047191  -0.001046   0.004881  -0.000058   0.000000  -0.000000
    27  H    0.004845  -0.000186  -0.040145   0.400401  -0.000073   0.000001
              19         20         21         22         23         24
     1  O    0.000001   0.000000  -0.000000  -0.000000   0.000000   0.000000
     2  N   -0.000004  -0.000000   0.000000   0.000000  -0.000000   0.000000
     3  O    0.000000   0.000000   0.000000  -0.000000   0.000000   0.000000
     4  C   -0.001041  -0.000070   0.000001  -0.000000   0.000033   0.000000
     5  C    0.001152   0.000151   0.000001  -0.000003  -0.000000  -0.000000
     6  N   -0.000331  -0.000525  -0.000078  -0.000117  -0.000030   0.000006
     7  C   -0.036635  -0.042313   0.004574  -0.004817   0.000553  -0.000127
     8  H    0.004356  -0.002081  -0.000075   0.003561   0.000036  -0.000104
     9  C    0.390285   0.399875  -0.036264  -0.046914  -0.001940   0.004376
    10  C   -0.032199  -0.035378   0.402377   0.397843  -0.039134  -0.038294
    11  C   -0.002233   0.003941  -0.034927  -0.045403   0.399285   0.402443
    12  C    0.000706  -0.000407   0.004351  -0.001064  -0.038070  -0.038588
    13  C   -0.007628   0.004330  -0.000434   0.000076  -0.007388   0.004678
    14  H    0.000096  -0.000067   0.000010  -0.000055   0.000001  -0.000057
    15  N    0.007362   0.000105  -0.000036   0.000017   0.008380   0.000122
    16  C    0.002943  -0.000035   0.000003  -0.000002   0.000094   0.000006
    17  H    0.000016   0.000002  -0.000000   0.000000   0.000000   0.000000
    18  H   -0.000148   0.000870   0.000001   0.000001   0.000000  -0.000000
    19  H    0.505652  -0.024728  -0.002772   0.003958   0.001520  -0.000067
    20  H   -0.024728   0.540488  -0.002694  -0.002985  -0.000046  -0.000083
    21  H   -0.002772  -0.002694   0.523828  -0.027363  -0.002907  -0.002234
    22  H    0.003958  -0.002985  -0.027363   0.570794   0.004143  -0.003642
    23  H    0.001520  -0.000046  -0.002907   0.004143   0.499925  -0.025434
    24  H   -0.000067  -0.000083  -0.002234  -0.003642  -0.025434   0.537124
    25  H   -0.000028   0.000012  -0.000087  -0.000079  -0.002316  -0.002300
    26  H    0.000020  -0.000030  -0.000081   0.002374   0.004061  -0.003026
    27  H    0.000068   0.000000  -0.000000   0.000000  -0.000033  -0.000000
              25         26         27
     1  O    0.000000   0.000000   0.005642
     2  N   -0.000000  -0.000000   0.000097
     3  O    0.000000   0.000000   0.000004
     4  C    0.000023   0.000005  -0.059033
     5  C    0.000001  -0.000002   0.001851
     6  N   -0.000089  -0.000059   0.000028
     7  C    0.005119  -0.003951  -0.000393
     8  H   -0.000017   0.001698   0.000009
     9  C   -0.000429   0.000973  -0.000052
    10  C    0.004195  -0.002254   0.000006
    11  C   -0.033463  -0.041281   0.000012
    12  C    0.398517   0.396756  -0.000038
    13  C   -0.035726  -0.047191   0.004845
    14  H   -0.002811  -0.001046  -0.000186
    15  N    0.000311   0.004881  -0.040145
    16  C   -0.000025  -0.000058   0.400401
    17  H   -0.000000   0.000000  -0.000073
    18  H    0.000002  -0.000000   0.000001
    19  H   -0.000028   0.000020   0.000068
    20  H    0.000012  -0.000030   0.000000
    21  H   -0.000087  -0.000081  -0.000000
    22  H   -0.000079   0.002374   0.000000
    23  H   -0.002316   0.004061  -0.000033
    24  H   -0.002300  -0.003026  -0.000000
    25  H    0.505675  -0.023965  -0.000012
    26  H   -0.023965   0.560633   0.000001
    27  H   -0.000012   0.000001   0.438599
 Mulliken charges:
               1
     1  O   -0.469677
     2  N    0.493573
     3  O   -0.504778
     4  C   -0.018195
     5  C    0.187056
     6  N   -0.784290
     7  C    0.062426
     8  H    0.180265
     9  C   -0.302364
    10  C   -0.327829
    11  C   -0.321846
    12  C   -0.307712
    13  C   -0.035842
    14  H    0.192942
    15  N   -0.500730
    16  C    0.133545
    17  H    0.292113
    18  H    0.403615
    19  H    0.189682
    20  H    0.161668
    21  H    0.174806
    22  H    0.149676
    23  H    0.199265
    24  H    0.165202
    25  H    0.187488
    26  H    0.151540
    27  H    0.248402
 Sum of Mulliken charges =  -0.00000
 Mulliken charges with hydrogens summed into heavy atoms:
               1
     1  O   -0.469677
     2  N    0.493573
     3  O   -0.504778
     4  C   -0.018195
     5  C    0.479169
     6  N   -0.380675
     7  C    0.242691
     9  C    0.048986
    10  C   -0.003347
    11  C    0.042621
    12  C    0.031315
    13  C    0.157100
    15  N   -0.500730
    16  C    0.381946
 Electronic spatial extent (au):  <R**2>=           3023.7079
 Charge=              0.0000 electrons
 Dipole moment (field-independent basis, Debye):
    X=              5.5941    Y=              4.6608    Z=              1.2080  Tot=              7.3808
 Quadrupole moment (field-independent basis, Debye-Ang):
   XX=           -106.6198   YY=            -79.1384   ZZ=            -81.5328
   XY=             -1.7046   XZ=              0.1205   YZ=              1.7724
 Traceless Quadrupole moment (field-independent basis, Debye-Ang):
   XX=            -17.5228   YY=              9.9586   ZZ=              7.5642
   XY=             -1.7046   XZ=              0.1205   YZ=              1.7724
 Octapole moment (field-independent basis, Debye-Ang**2):
  XXX=             96.2972  YYY=             35.9606  ZZZ=             -1.7567  XYY=             -4.2937
  XXY=              9.3513  XXZ=              4.2518  XZZ=             -9.3019  YZZ=             -0.7138
  YYZ=              7.4848  XYZ=              0.2227
 Hexadecapole moment (field-independent basis, Debye-Ang**3):
 XXXX=          -3414.1651 YYYY=           -604.6946 ZZZZ=           -301.9134 XXXY=            -17.3364
 XXXZ=             -8.5154 YYYX=             -5.4175 YYYZ=             24.4709 ZZZX=              4.5008
 ZZZY=              7.1237 XXYY=           -632.3817 XXZZ=           -526.8744 YYZZ=           -157.9095
 XXYZ=             -4.7474 YYXZ=              3.0707 ZZXY=              5.9899
 N-N= 9.287480209273D+02 E-N=-3.404123896670D+03  KE= 6.595156647836D+02
 Unable to Open any file for archive entry.
 1\1\GINC-LOTUS\FOpt\RMP2-FC\6-31G(d)\C9H13N3O2\ALEXEY\01-Jul-2023\0\\#
 MP2/6-31G* SCF=Tight Opt=(ModRedun, MaxCycle=20 ) NoSymm\\MolName:\\0,
 1\O,-3.5186095532,-1.379963775,-0.3598806914\N,-3.1396293919,-0.219829
 2044,-0.1032514349\O,-3.9189351318,0.736210735,0.0784182764\C,-1.71287
 19385,-0.0040501867,0.0009778161\C,-1.3114145578,1.2749795833,0.269144
 2807\N,-0.0592105241,1.7494934917,0.3750005219\C,1.2004615263,1.015161
 0137,0.3571475484\H,1.8440545632,1.5390815796,1.0798665657\C,1.9144390
 405,1.0337994131,-0.9937019344\C,3.3147906907,0.4339059698,-0.82324128
 72\C,3.2692312208,-0.9645043498,-0.2020058588\C,2.4657714879,-0.982425
 3813,1.1001497318\C,1.0544464113,-0.4353008775,0.8578007943\H,0.473299
 7052,-0.4216621553,1.7930652996\N,0.4161242,-1.3337470744,-0.101314089
 5\C,-0.82484007,-1.1675089851,-0.4034173317\H,-2.0964475931,2.01333860
 76,0.4112651096\H,0.0109470391,2.7365087165,0.5919249971\H,1.327926246
 ,0.4576552407,-1.7173181873\H,1.9781043458,2.0636727683,-1.3664191562\
 H,3.8254163081,0.4018327748,-1.7924918592\H,3.9070425002,1.1006639479,
 -0.1805006151\H,2.7995763299,-1.6612519688,-0.9034676847\H,4.288592314
 5,-1.3244359742,-0.0190734581\H,2.382955273,-2.0056472269,1.4811043407
 \H,2.9677870253,-0.3841442367,1.8729345683\H,-1.2949874677,-1.90881244
 58,-1.0477262621\\Version=ES64L-G16RevC.02\HF=-661.2989627\MP2=-663.33
 21288\RMSD=4.407e-09\RMSF=5.736e-03\Dipole=2.0395174,1.6386599,0.44516
 38\PG=C01 [X(C9H13N3O2)]\\@
 The archive entry for this job was punched.


 I (ERNEST RUTHERFORD) CAME INTO THE ROOM, WHICH WAS HALF DARK, AND PRESENTLY
 SPOTTED LORD KELVIN IN THE AUDIENCE AND REALIZED I WAS IN TROUBLE AT
 THE LAST PART OF MY SPEECH DEALING THE AGE OF THE EARTH, WHERE MY VIEWS
 CONFLICTED WITH HIS.  TO MY RELIEF KELVIN FELL FAST ASLEEP, BUT AS I CAME
 TO THE IMPORTANT POINT, I SAW THE OLD BIRD SIT UP AND COCK A BALEFUL GLANCE
 AT ME! THEN A SUDDEN INSPIRATION CAME AND I SAID LORD KELVIN HAD LIMITED
 THE AGE OF THE EARTH PROVIDED NO NEW SOURCE WAS DISCOVERED. THAT
 PROPHETIC UTTERANCE REFERS TO WHAT WE ARE NOW CONSIDERING TONIGHT, RADIUM!
 BEHOLD!  THE OLD BOY BEAMED UPON ME.
 Job cpu time:       0 days  1 hours 11 minutes  4.4 seconds.
 Elapsed time:       0 days  0 hours 21 minutes 23.9 seconds.
 File lengths (MBytes):  RWF=     36 Int=      0 D2E=      0 Chk=      7 Scr=      1
 Normal termination of Gaussian 16 at Sat Jul  1 11:05:38 2023.
