 Entering Gaussian System, Link 0=g16
 Initial command:
 /home/alexey/programs//g16/l1.exe "/home/alexey/tmp/Gau-1202648.inp" -scrdir="/home/alexey/tmp/"
 Entering Link 1 = /home/alexey/programs//g16/l1.exe PID=   1202650.
  
 Copyright (c) 1988-2021, Gaussian, Inc.  All Rights Reserved.
  
 This is part of the Gaussian(R) 16 program.  It is based on
 the Gaussian(R) 09 system (copyright 2009, Gaussian, Inc.),
 the Gaussian(R) 03 system (copyright 2003, Gaussian, Inc.),
 the Gaussian(R) 98 system (copyright 1998, Gaussian, Inc.),
 the Gaussian(R) 94 system (copyright 1995, Gaussian, Inc.),
 the Gaussian 92(TM) system (copyright 1992, Gaussian, Inc.),
 the Gaussian 90(TM) system (copyright 1990, Gaussian, Inc.),
 the Gaussian 88(TM) system (copyright 1988, Gaussian, Inc.),
 the Gaussian 86(TM) system (copyright 1986, Carnegie Mellon
 University), and the Gaussian 82(TM) system (copyright 1983,
 Carnegie Mellon University). Gaussian is a federally registered
 trademark of Gaussian, Inc.
  
 This software contains proprietary and confidential information,
 including trade secrets, belonging to Gaussian, Inc.
  
 This software is provided under written license and may be
 used, copied, transmitted, or stored only in accord with that
 written license.
  
 The following legend is applicable only to US Government
 contracts under FAR:
  
                    RESTRICTED RIGHTS LEGEND
  
 Use, reproduction and disclosure by the US Government is
 subject to restrictions as set forth in subparagraphs (a)
 and (c) of the Commercial Computer Software - Restricted
 Rights clause in FAR 52.227-19.
  
 Gaussian, Inc.
 340 Quinnipiac St., Bldg. 40, Wallingford CT 06492
  
  
 ---------------------------------------------------------------
 Warning -- This program may not be used in any manner that
 competes with the business of Gaussian, Inc. or will provide
 assistance to any competitor of Gaussian, Inc.  The licensee
 of this program is prohibited from giving any competitor of
 Gaussian, Inc. access to this program.  By using this program,
 the user acknowledges that Gaussian, Inc. is engaged in the
 business of creating and licensing software in the field of
 computational chemistry and represents and warrants to the
 licensee that it is not a competitor of Gaussian, Inc. and that
 it will not use this program in any manner prohibited above.
 ---------------------------------------------------------------
  

 Cite this work as:
 Gaussian 16, Revision C.02,
 M. J. Frisch, G. W. Trucks, H. B. Schlegel, G. E. Scuseria, 
 M. A. Robb, J. R. Cheeseman, G. Scalmani, V. Barone, 
 G. A. Petersson, H. Nakatsuji, X. Li, M. Caricato, A. V. Marenich, 
 J. Bloino, B. G. Janesko, R. Gomperts, B. Mennucci, H. P. Hratchian, 
 J. V. Ortiz, A. F. Izmaylov, J. L. Sonnenberg, D. Williams-Young, 
 F. Ding, F. Lipparini, F. Egidi, J. Goings, B. Peng, A. Petrone, 
 T. Henderson, D. Ranasinghe, V. G. Zakrzewski, J. Gao, N. Rega, 
 G. Zheng, W. Liang, M. Hada, M. Ehara, K. Toyota, R. Fukuda, 
 J. Hasegawa, M. Ishida, T. Nakajima, Y. Honda, O. Kitao, H. Nakai, 
 T. Vreven, K. Throssell, J. A. Montgomery, Jr., J. E. Peralta, 
 F. Ogliaro, M. J. Bearpark, J. J. Heyd, E. N. Brothers, K. N. Kudin, 
 V. N. Staroverov, T. A. Keith, R. Kobayashi, J. Normand, 
 K. Raghavachari, A. P. Rendell, J. C. Burant, S. S. Iyengar, 
 J. Tomasi, M. Cossi, J. M. Millam, M. Klene, C. Adamo, R. Cammi, 
 J. W. Ochterski, R. L. Martin, K. Morokuma, O. Farkas, 
 J. B. Foresman, and D. J. Fox, Gaussian, Inc., Wallingford CT, 2019.
 
 ******************************************
 Gaussian 16:  ES64L-G16RevC.02  7-Dec-2021
                30-Jun-2023 
 ******************************************
 %mem=8GB
 %NPROCS=4
 Will use up to    4 processors via shared memory.
 %NoSave
 ---------------------------------------------------------
 #MP2/6-31G* SCF=Tight Opt=(ModRedun, MaxCycle=20 ) NoSymm
 ---------------------------------------------------------
 1/6=20,18=120,19=15,38=1/1,3;
 2/9=110,12=2,15=1,17=6,18=5,40=1/2;
 3/5=1,6=6,7=1,11=9,25=1,30=1,71=1/1,2,3;
 4//1;
 5/5=2,32=2,38=5/2;
 8/6=4,10=2/1;
 9/15=2,16=-3/6;
 10/5=1,31=1/2;
 6/7=2,8=2,9=2,10=2/1;
 7/12=2,30=1/1,2,3,16;
 1/6=20,18=20,19=15/3(2);
 2/9=110,15=1/2;
 99//99;
 2/9=110,15=1/2;
 3/5=1,6=6,7=1,11=9,25=1,30=1,71=1/1,2,3;
 4/5=5,16=3,69=1/1;
 5/5=2,32=2,38=5/2;
 8/6=4,10=2/1;
 9/15=2,16=-3/6;
 10/5=1,31=1/2;
 7/12=2,30=1/1,2,3,16;
 1/6=20,18=20,19=15/3(-8);
 2/9=110,15=1/2;
 6/7=2,8=2,9=2,10=2/1;
 99/9=10/99;
 --------
 MolName:
 --------
 Symbolic Z-matrix:
 Charge =  0 Multiplicity = 1
 8                    0    -3.59414  -1.48589  -0.17463 
 7                    0    -3.22977  -0.32087  -0.01528 
 8                    0    -4.01225   0.61614   0.14886 
 6                    0    -1.72422  -0.01986  -0.05398 
 6                    0    -1.35578   1.29609   0.26991 
 7                    0    -0.0759    1.77522   0.3936 
 6                    0     1.20535   1.00982   0.36002 
 1                    0     1.87104   1.50611   1.11289 
 6                    0     1.9691    1.0527   -0.98684 
 6                    0     3.37451   0.45105  -0.79664 
 6                    0     3.29629  -0.96387  -0.20142 
 6                    0     2.447    -0.98807   1.08811 
 6                    0     1.01668  -0.43375   0.84397 
 1                    0     0.46795  -0.46877   1.81435 
 7                    0     0.35109  -1.28727  -0.14275 
 6                    0    -0.88874  -1.0605   -0.44276 
 1                    0    -2.15479   2.02052   0.49895 
 1                    0     0.14448   2.75925   0.22228 
 1                    0     1.41411   0.48277  -1.76195 
 1                    0     2.06646   2.10202  -1.33773 
 1                    0     3.90945   0.4207   -1.77103 
 1                    0     3.95837   1.09877  -0.10509 
 1                    0     2.84161  -1.64832  -0.95278 
 1                    0     4.31997  -1.33929   0.01613 
 1                    0     2.37547  -2.034     1.45909 
 1                    0     2.94906  -0.38408   1.87279 
 1                    0    -1.38138  -1.79363  -1.10008 
 
 The following ModRedundant input section has been read:
 B       4      16 F                                                           
 D       1       2       4      16 F                                           
 D       7      13      15      16 F                                           
 D       7       9      10      11 F                                           
 D       9      10      11      12 F                                           
 D       6       7      13      15 F                                           
 

 GradGradGradGradGradGradGradGradGradGradGradGradGradGradGradGradGradGrad
 Berny optimization.
 Initialization pass.
                           ----------------------------
                           !    Initial Parameters    !
                           ! (Angstroms and Degrees)  !
 --------------------------                            --------------------------
 ! Name  Definition              Value          Derivative Info.                !
 --------------------------------------------------------------------------------
 ! R1    R(1,2)                  1.231          estimate D2E/DX2                !
 ! R2    R(2,3)                  1.2317         estimate D2E/DX2                !
 ! R3    R(2,4)                  1.5358         estimate D2E/DX2                !
 ! R4    R(4,5)                  1.4044         estimate D2E/DX2                !
 ! R5    R(4,16)                 1.39           Frozen                          !
 ! R6    R(5,6)                  1.3722         estimate D2E/DX2                !
 ! R7    R(5,17)                 1.1026         estimate D2E/DX2                !
 ! R8    R(6,7)                  1.4928         estimate D2E/DX2                !
 ! R9    R(6,18)                 1.0229         estimate D2E/DX2                !
 ! R10   R(7,8)                  1.1208         estimate D2E/DX2                !
 ! R11   R(7,9)                  1.5489         estimate D2E/DX2                !
 ! R12   R(7,13)                 1.5342         estimate D2E/DX2                !
 ! R13   R(9,10)                 1.5406         estimate D2E/DX2                !
 ! R14   R(9,19)                 1.1107         estimate D2E/DX2                !
 ! R15   R(9,20)                 1.1107         estimate D2E/DX2                !
 ! R16   R(10,11)                1.537          estimate D2E/DX2                !
 ! R17   R(10,21)                1.112          estimate D2E/DX2                !
 ! R18   R(10,22)                1.113          estimate D2E/DX2                !
 ! R19   R(11,12)                1.5443         estimate D2E/DX2                !
 ! R20   R(11,23)                1.1134         estimate D2E/DX2                !
 ! R21   R(11,24)                1.1118         estimate D2E/DX2                !
 ! R22   R(12,13)                1.5533         estimate D2E/DX2                !
 ! R23   R(12,25)                1.1121         estimate D2E/DX2                !
 ! R24   R(12,26)                1.1102         estimate D2E/DX2                !
 ! R25   R(13,14)                1.1153         estimate D2E/DX2                !
 ! R26   R(13,15)                1.4646         estimate D2E/DX2                !
 ! R27   R(15,16)                1.2956         estimate D2E/DX2                !
 ! R28   R(16,27)                1.101          estimate D2E/DX2                !
 ! A1    A(1,2,3)              123.3084         estimate D2E/DX2                !
 ! A2    A(1,2,4)              118.1884         estimate D2E/DX2                !
 ! A3    A(3,2,4)              118.4895         estimate D2E/DX2                !
 ! A4    A(2,4,5)              115.7857         estimate D2E/DX2                !
 ! A5    A(2,4,16)             116.7134         estimate D2E/DX2                !
 ! A6    A(5,4,16)             127.4682         estimate D2E/DX2                !
 ! A7    A(4,5,6)              126.3456         estimate D2E/DX2                !
 ! A8    A(4,5,17)             118.2579         estimate D2E/DX2                !
 ! A9    A(6,5,17)             115.3265         estimate D2E/DX2                !
 ! A10   A(5,6,7)              128.2771         estimate D2E/DX2                !
 ! A11   A(5,6,18)             121.4514         estimate D2E/DX2                !
 ! A12   A(7,6,18)             107.7321         estimate D2E/DX2                !
 ! A13   A(6,7,8)              105.5222         estimate D2E/DX2                !
 ! A14   A(6,7,9)              115.3763         estimate D2E/DX2                !
 ! A15   A(6,7,13)             111.7027         estimate D2E/DX2                !
 ! A16   A(8,7,9)              106.1985         estimate D2E/DX2                !
 ! A17   A(8,7,13)             106.1283         estimate D2E/DX2                !
 ! A18   A(9,7,13)             111.1604         estimate D2E/DX2                !
 ! A19   A(7,9,10)             109.3694         estimate D2E/DX2                !
 ! A20   A(7,9,19)             110.2571         estimate D2E/DX2                !
 ! A21   A(7,9,20)             110.1254         estimate D2E/DX2                !
 ! A22   A(10,9,19)            109.9747         estimate D2E/DX2                !
 ! A23   A(10,9,20)            109.1469         estimate D2E/DX2                !
 ! A24   A(19,9,20)            107.9451         estimate D2E/DX2                !
 ! A25   A(9,10,11)            111.1556         estimate D2E/DX2                !
 ! A26   A(9,10,21)            109.9584         estimate D2E/DX2                !
 ! A27   A(9,10,22)            109.1478         estimate D2E/DX2                !
 ! A28   A(11,10,21)           109.7974         estimate D2E/DX2                !
 ! A29   A(11,10,22)           108.7731         estimate D2E/DX2                !
 ! A30   A(21,10,22)           107.9382         estimate D2E/DX2                !
 ! A31   A(10,11,12)           111.4563         estimate D2E/DX2                !
 ! A32   A(10,11,23)           108.9864         estimate D2E/DX2                !
 ! A33   A(10,11,24)           109.8618         estimate D2E/DX2                !
 ! A34   A(12,11,23)           109.2251         estimate D2E/DX2                !
 ! A35   A(12,11,24)           109.7352         estimate D2E/DX2                !
 ! A36   A(23,11,24)           107.4847         estimate D2E/DX2                !
 ! A37   A(11,12,13)           111.6899         estimate D2E/DX2                !
 ! A38   A(11,12,25)           109.1885         estimate D2E/DX2                !
 ! A39   A(11,12,26)           109.4487         estimate D2E/DX2                !
 ! A40   A(13,12,25)           109.1988         estimate D2E/DX2                !
 ! A41   A(13,12,26)           109.4728         estimate D2E/DX2                !
 ! A42   A(25,12,26)           107.7569         estimate D2E/DX2                !
 ! A43   A(7,13,12)            105.7911         estimate D2E/DX2                !
 ! A44   A(7,13,14)            111.3767         estimate D2E/DX2                !
 ! A45   A(7,13,15)            113.061          estimate D2E/DX2                !
 ! A46   A(12,13,14)           107.7633         estimate D2E/DX2                !
 ! A47   A(12,13,15)           108.4448         estimate D2E/DX2                !
 ! A48   A(14,13,15)           110.137          estimate D2E/DX2                !
 ! A49   A(13,15,16)           119.267          estimate D2E/DX2                !
 ! A50   A(4,16,15)            129.9005         estimate D2E/DX2                !
 ! A51   A(4,16,27)            113.3626         estimate D2E/DX2                !
 ! A52   A(15,16,27)           116.7355         estimate D2E/DX2                !
 ! D1    D(1,2,4,5)           -173.663          estimate D2E/DX2                !
 ! D2    D(1,2,4,16)             8.2584         Frozen                          !
 ! D3    D(3,2,4,5)              7.6368         estimate D2E/DX2                !
 ! D4    D(3,2,4,16)          -170.4418         estimate D2E/DX2                !
 ! D5    D(2,4,5,6)            175.1676         estimate D2E/DX2                !
 ! D6    D(2,4,5,17)            -1.6344         estimate D2E/DX2                !
 ! D7    D(16,4,5,6)            -6.9949         estimate D2E/DX2                !
 ! D8    D(16,4,5,17)          176.2031         estimate D2E/DX2                !
 ! D9    D(2,4,16,15)         -152.816          estimate D2E/DX2                !
 ! D10   D(2,4,16,27)           26.7395         estimate D2E/DX2                !
 ! D11   D(5,4,16,15)           29.3639         estimate D2E/DX2                !
 ! D12   D(5,4,16,27)         -151.0806         estimate D2E/DX2                !
 ! D13   D(4,5,6,7)             -7.0117         estimate D2E/DX2                !
 ! D14   D(4,5,6,18)           152.6127         estimate D2E/DX2                !
 ! D15   D(17,5,6,7)           169.8719         estimate D2E/DX2                !
 ! D16   D(17,5,6,18)          -30.5036         estimate D2E/DX2                !
 ! D17   D(5,6,7,8)           -142.907          estimate D2E/DX2                !
 ! D18   D(5,6,7,9)            100.2091         estimate D2E/DX2                !
 ! D19   D(5,6,7,13)           -28.0191         estimate D2E/DX2                !
 ! D20   D(18,6,7,8)            55.2628         estimate D2E/DX2                !
 ! D21   D(18,6,7,9)           -61.6211         estimate D2E/DX2                !
 ! D22   D(18,6,7,13)          170.1507         estimate D2E/DX2                !
 ! D23   D(6,7,9,10)           169.5705         estimate D2E/DX2                !
 ! D24   D(6,7,9,19)           -69.384          estimate D2E/DX2                !
 ! D25   D(6,7,9,20)            49.6296         estimate D2E/DX2                !
 ! D26   D(8,7,9,10)            53.0686         estimate D2E/DX2                !
 ! D27   D(8,7,9,19)           174.1141         estimate D2E/DX2                !
 ! D28   D(8,7,9,20)           -66.8723         estimate D2E/DX2                !
 ! D29   D(13,7,9,10)          -61.9324         estimate D2E/DX2                !
 ! D30   D(13,7,9,19)           59.1131         estimate D2E/DX2                !
 ! D31   D(13,7,9,20)          178.1267         estimate D2E/DX2                !
 ! D32   D(6,7,13,12)         -166.4393         estimate D2E/DX2                !
 ! D33   D(6,7,13,14)          -49.6205         estimate D2E/DX2                !
 ! D34   D(6,7,13,15)           75.0218         Frozen                          !
 ! D35   D(8,7,13,12)          -51.925          estimate D2E/DX2                !
 ! D36   D(8,7,13,14)           64.8939         estimate D2E/DX2                !
 ! D37   D(8,7,13,15)         -170.4639         estimate D2E/DX2                !
 ! D38   D(9,7,13,12)           63.1196         estimate D2E/DX2                !
 ! D39   D(9,7,13,14)          179.9384         estimate D2E/DX2                !
 ! D40   D(9,7,13,15)          -55.4193         estimate D2E/DX2                !
 ! D41   D(7,9,10,11)           54.8115         Frozen                          !
 ! D42   D(7,9,10,21)          176.6083         estimate D2E/DX2                !
 ! D43   D(7,9,10,22)          -65.1656         estimate D2E/DX2                !
 ! D44   D(19,9,10,11)         -66.4052         estimate D2E/DX2                !
 ! D45   D(19,9,10,21)          55.3916         estimate D2E/DX2                !
 ! D46   D(19,9,10,22)         173.6176         estimate D2E/DX2                !
 ! D47   D(20,9,10,11)         175.3513         estimate D2E/DX2                !
 ! D48   D(20,9,10,21)         -62.8518         estimate D2E/DX2                !
 ! D49   D(20,9,10,22)          55.3742         estimate D2E/DX2                !
 ! D50   D(9,10,11,12)         -52.8217         Frozen                          !
 ! D51   D(9,10,11,23)          67.801          estimate D2E/DX2                !
 ! D52   D(9,10,11,24)        -174.6748         estimate D2E/DX2                !
 ! D53   D(21,10,11,12)       -174.7122         estimate D2E/DX2                !
 ! D54   D(21,10,11,23)        -54.0895         estimate D2E/DX2                !
 ! D55   D(21,10,11,24)         63.4347         estimate D2E/DX2                !
 ! D56   D(22,10,11,12)         67.3777         estimate D2E/DX2                !
 ! D57   D(22,10,11,23)       -171.9996         estimate D2E/DX2                !
 ! D58   D(22,10,11,24)        -54.4754         estimate D2E/DX2                !
 ! D59   D(10,11,12,13)         56.468          estimate D2E/DX2                !
 ! D60   D(10,11,12,25)        177.3414         estimate D2E/DX2                !
 ! D61   D(10,11,12,26)        -64.9258         estimate D2E/DX2                !
 ! D62   D(23,11,12,13)        -64.0146         estimate D2E/DX2                !
 ! D63   D(23,11,12,25)         56.8588         estimate D2E/DX2                !
 ! D64   D(23,11,12,26)        174.5916         estimate D2E/DX2                !
 ! D65   D(24,11,12,13)        178.3944         estimate D2E/DX2                !
 ! D66   D(24,11,12,25)        -60.7322         estimate D2E/DX2                !
 ! D67   D(24,11,12,26)         57.0005         estimate D2E/DX2                !
 ! D68   D(11,12,13,7)         -60.0518         estimate D2E/DX2                !
 ! D69   D(11,12,13,14)       -179.2843         estimate D2E/DX2                !
 ! D70   D(11,12,13,15)         61.5115         estimate D2E/DX2                !
 ! D71   D(25,12,13,7)         179.0808         estimate D2E/DX2                !
 ! D72   D(25,12,13,14)         59.8483         estimate D2E/DX2                !
 ! D73   D(25,12,13,15)        -59.3559         estimate D2E/DX2                !
 ! D74   D(26,12,13,7)          61.3281         estimate D2E/DX2                !
 ! D75   D(26,12,13,14)        -57.9044         estimate D2E/DX2                !
 ! D76   D(26,12,13,15)       -177.1086         estimate D2E/DX2                !
 ! D77   D(7,13,15,16)         -67.1599         Frozen                          !
 ! D78   D(12,13,15,16)        175.8539         estimate D2E/DX2                !
 ! D79   D(14,13,15,16)         58.1539         estimate D2E/DX2                !
 ! D80   D(13,15,16,4)           6.3197         estimate D2E/DX2                !
 ! D81   D(13,15,16,27)       -173.2234         estimate D2E/DX2                !
 --------------------------------------------------------------------------------
 Trust Radius=3.00D-01 FncErr=1.00D-07 GrdErr=1.00D-07 EigMax=2.50D+02 EigMin=1.00D-04
 Number of steps in this run=     20 maximum allowed number of steps=    162.
 GradGradGradGradGradGradGradGradGradGradGradGradGradGradGradGradGradGrad

                          Input orientation:                          
 ---------------------------------------------------------------------
 Center     Atomic      Atomic             Coordinates (Angstroms)
 Number     Number       Type             X           Y           Z
 ---------------------------------------------------------------------
      1          8           0       -3.594140   -1.485890   -0.174630
      2          7           0       -3.229770   -0.320870   -0.015280
      3          8           0       -4.012250    0.616140    0.148860
      4          6           0       -1.724220   -0.019860   -0.053980
      5          6           0       -1.355780    1.296090    0.269910
      6          7           0       -0.075900    1.775220    0.393600
      7          6           0        1.205350    1.009820    0.360020
      8          1           0        1.871040    1.506110    1.112890
      9          6           0        1.969100    1.052700   -0.986840
     10          6           0        3.374510    0.451050   -0.796640
     11          6           0        3.296290   -0.963870   -0.201420
     12          6           0        2.447000   -0.988070    1.088110
     13          6           0        1.016680   -0.433750    0.843970
     14          1           0        0.467950   -0.468770    1.814350
     15          7           0        0.351090   -1.287270   -0.142750
     16          6           0       -0.888740   -1.060500   -0.442760
     17          1           0       -2.154790    2.020520    0.498950
     18          1           0        0.144480    2.759250    0.222280
     19          1           0        1.414110    0.482770   -1.761950
     20          1           0        2.066460    2.102020   -1.337730
     21          1           0        3.909450    0.420700   -1.771030
     22          1           0        3.958370    1.098770   -0.105090
     23          1           0        2.841610   -1.648320   -0.952780
     24          1           0        4.319970   -1.339290    0.016130
     25          1           0        2.375470   -2.034000    1.459090
     26          1           0        2.949060   -0.384080    1.872790
     27          1           0       -1.381380   -1.793630   -1.100080
 ---------------------------------------------------------------------
                    Distance matrix (angstroms):
                    1          2          3          4          5
     1  O    0.000000
     2  N    1.231028   0.000000
     3  O    2.167485   1.231749   0.000000
     4  C    2.379160   1.535834   2.383426   0.000000
     5  C    3.598233   2.491532   2.744780   1.404413   0.000000
     6  N    4.830708   3.808894   4.110744   2.477821   1.372209
     7  C    5.435947   4.645630   5.236690   3.132733   2.578654
     8  H    6.362229   5.534337   6.027811   4.076281   3.341720
     9  C    6.168773   5.464327   6.103847   3.957427   3.562792
    10  C    7.259526   6.694991   7.448855   5.174007   4.922120
    11  C    6.910228   6.560302   7.485578   5.110618   5.193393
    12  C    6.191745   5.821370   6.721428   4.431803   4.510873
    13  C    4.837789   4.333981   5.184167   2.913787   2.991732
    14  H    4.635855   4.128263   4.901334   2.915096   2.970861
    15  N    3.950355   3.711164   4.769354   2.433335   3.123691
    16  C    2.751734   2.492030   3.594086   1.390003   2.505901
    17  H    3.849721   2.627189   2.354783   2.157376   1.102577
    18  H    5.670629   4.574837   4.677255   3.360329   2.096160
    19  H    5.610506   5.026163   5.754508   3.608173   3.530189
    20  H    6.802080   5.972380   6.431835   4.529861   3.865974
    21  H    7.904900   7.389252   8.153374   5.905979   5.714402
    22  H    7.982838   7.327537   7.989256   5.791871   5.331018
    23  H    6.484657   6.285116   7.301834   4.930165   5.270921
    24  H    7.917766   7.618185   8.559627   6.186925   6.262888
    25  H    6.213349   6.043782   7.038673   4.811819   5.140610
    26  H    6.944018   6.461172   7.241009   5.068002   4.891201
    27  H    2.418154   2.600454   3.779989   2.087612   3.379926
                    6          7          8          9         10
     6  N    0.000000
     7  C    1.492838   0.000000
     8  H    2.092934   1.120830   0.000000
     9  C    2.570929   1.548930   2.150363   0.000000
    10  C    3.882709   2.520980   2.649505   1.540564   0.000000
    11  C    4.385012   2.929624   3.139992   2.538675   1.537011
    12  C    3.805672   2.462392   2.559937   2.949330   2.546296
    13  C    2.505217   1.534177   2.136658   2.543325   3.005634
    14  H    2.711050   2.201150   2.522074   3.523491   4.013904
    15  N    3.138286   2.501831   3.419043   2.967474   3.548295
    16  C    3.066189   3.052195   4.077244   3.595676   4.537104
    17  H    2.095961   3.511603   4.104735   4.488955   5.891939
    18  H    1.022855   2.050591   2.311829   2.775522   4.098668
    19  H    2.921806   2.196388   3.085566   1.110689   2.185406
    20  H    2.773808   2.194713   2.529592   1.110709   2.174736
    21  H    4.733219   3.492935   3.694621   2.186169   1.111988
    22  H    4.120875   2.793449   2.450785   2.176419   1.112958
    23  H    4.695235   3.386222   3.893511   2.838652   2.171570
    24  H    5.400586   3.916304   3.911067   3.500593   2.181698
    25  H    4.653455   3.441217   3.592587   3.959221   3.501696
    26  H    4.000120   2.696656   2.304863   3.346960   2.829188
    27  H    4.083142   4.084409   5.134565   4.397742   5.267747
                   11         12         13         14         15
    11  C    0.000000
    12  C    1.544269   0.000000
    13  C    2.563297   1.553284   0.000000
    14  H    3.508270   2.171114   1.115333   0.000000
    15  N    2.963483   2.448954   1.464624   2.124580   0.000000
    16  C    4.193097   3.670963   2.383089   2.699129   1.295611
    17  H    6.253909   5.529484   4.025010   3.847805   4.199129
    18  H    4.896432   4.482596   3.367860   3.613784   4.068201
    19  H    2.840884   3.369432   2.790838   3.819760   2.623902
    20  H    3.493331   3.946919   3.505992   4.370332   3.982180
    21  H    2.180980   3.506861   3.992046   5.048765   4.269705
    22  H    2.168436   2.839519   3.450054   4.280708   4.325168
    23  H    1.113440   2.181027   2.834407   3.831789   2.643709
    24  H    1.111840   2.186438   3.523783   4.339292   3.972399
    25  H    2.179537   1.112076   2.187575   2.492947   2.687306
    26  H    2.181530   1.110221   2.189756   2.483243   3.409927
    27  H    4.834944   4.482588   3.373321   3.697185   2.043119
                   16         17         18         19         20
    16  C    0.000000
    17  H    3.461558   0.000000
    18  H    4.012519   2.430825   0.000000
    19  H    3.070026   4.495931   3.275895   0.000000
    20  H    4.419922   4.604236   2.561170   1.796523   0.000000
    21  H    5.194312   6.669876   4.859743   2.496128   2.532034
    22  H    5.317043   6.211700   4.172544   3.098048   2.470877
    23  H    3.810664   6.366468   5.299240   2.689620   3.848908
    24  H    5.236312   7.310537   5.854506   3.863353   4.330573
    25  H    3.901257   6.155019   5.429757   4.199219   5.002434
    26  H    4.532993   5.806791   4.524420   4.039658   4.155372
    27  H    1.101019   4.207470   4.980522   3.665356   5.207703
                   21         22         23         24         25
    21  H    0.000000
    22  H    1.799313   0.000000
    23  H    2.467926   3.084191   0.000000
    24  H    2.541659   2.467709   1.794390   0.000000
    25  H    4.337317   3.842718   2.486595   2.519094   0.000000
    26  H    3.853238   2.670124   3.097369   2.497800   1.795101
    27  H    5.774627   6.153772   4.228056   5.827327   4.552038
                   26         27
    26  H    0.000000
    27  H    5.438520   0.000000
 Symmetry turned off by external request.
 Stoichiometry    C9H13N3O2
 Framework group  C1[X(C9H13N3O2)]
 Deg. of freedom    75
 Full point group                 C1      NOp   1
 Rotational constants (GHZ):           1.6854862           0.4037719           0.3586085
 Standard basis: 6-31G(d) (6D, 7F)
   236 basis functions,   444 primitive gaussians,   236 cartesian basis functions
    52 alpha electrons       52 beta electrons
       nuclear repulsion energy       920.9888914637 Hartrees.
 NAtoms=   27 NActive=   27 NUniq=   27 SFac= 1.00D+00 NAtFMM=   60 NAOKFM=F Big=F
 Integral buffers will be    131072 words long.
 Raffenetti 1 integral format.
 Two-electron integral symmetry is turned off.
 One-electron integrals computed using PRISM.
 NBasis=   236 RedAO= T EigKep=  1.11D-03  NBF=   236
 NBsUse=   236 1.00D-06 EigRej= -1.00D+00 NBFU=   236
 ExpMin= 1.61D-01 ExpMax= 5.48D+03 ExpMxC= 8.25D+02 IAcc=3 IRadAn=         5 AccDes= 0.00D+00
 Harris functional with IExCor=  205 and IRadAn=       5 diagonalized for initial guess.
 HarFok:  IExCor=  205 AccDes= 0.00D+00 IRadAn=         5 IDoV= 1 UseB2=F ITyADJ=14
 ICtDFT=  3500011 ScaDFX=  1.000000  1.000000  1.000000  1.000000
 FoFCou: FMM=F IPFlag=           0 FMFlag=      100000 FMFlg1=           0
         NFxFlg=           0 DoJE=T BraDBF=F KetDBF=T FulRan=T
         wScrn=  0.000000 ICntrl=       500 IOpCl=  0 I1Cent=   200000004 NGrid=           0
         NMat0=    1 NMatS0=      1 NMatT0=    0 NMatD0=    1 NMtDS0=    0 NMtDT0=    0
 Symmetry not used in FoFCou.
 Keep R1 ints in memory in canonical form, NReq=397720213.
 Requested convergence on RMS density matrix=1.00D-08 within 128 cycles.
 Requested convergence on MAX density matrix=1.00D-06.
 Requested convergence on             energy=1.00D-06.
 No special actions if energy rises.
 SCF Done:  E(RHF) =  -661.276492753     A.U. after   16 cycles
            NFock= 16  Conv=0.90D-08     -V/T= 2.0034
 ExpMin= 1.61D-01 ExpMax= 5.48D+03 ExpMxC= 8.25D+02 IAcc=3 IRadAn=         5 AccDes= 0.00D+00
 HarFok:  IExCor=  205 AccDes= 0.00D+00 IRadAn=         5 IDoV=-2 UseB2=F ITyADJ=14
 ICtDFT= 12500011 ScaDFX=  1.000000  1.000000  1.000000  1.000000
 Range of M.O.s used for correlation:    15   236
 NBasis=   236 NAE=    52 NBE=    52 NFC=    14 NFV=     0
 NROrb=    222 NOA=    38 NOB=    38 NVA=   184 NVB=   184
 Fully direct method using O(ONN) memory.
 JobTyp=1 Pass  1:  I=  15 to  52 NPSUse=  4 ParTrn=T ParDer=T DoDerP=T.
 Spin components of T(2) and E(2):
     alpha-alpha T2 =       0.9219681703D-01 E2=     -0.2724999160D+00
     alpha-beta  T2 =       0.4992610561D+00 E2=     -0.1494152558D+01
     beta-beta   T2 =       0.9219681703D-01 E2=     -0.2724999160D+00
 ANorm=    0.1297557201D+01
 E2 =    -0.2039152390D+01 EUMP2 =    -0.66331564514279D+03
          IDoAtm=111111111111111111111111111
          Differentiating once with respect to electric field.
                with respect to dipole field.
          Differentiating once with respect to nuclear coordinates.
 Keep R1 ints in memory in canonical form, NReq=397723379.
          There are     1 degrees of freedom in the 1st order CPHF.  IDoFFX=0 NUNeed=     1.
 LinEq1:  Iter=  0 NonCon=     1 RMS=4.65D-03 Max=1.10D-01 NDo=     1
 AX will form     1 AO Fock derivatives at one time.
 LinEq1:  Iter=  1 NonCon=     1 RMS=1.58D-03 Max=2.84D-02 NDo=     1
 LinEq1:  Iter=  2 NonCon=     1 RMS=6.53D-04 Max=1.70D-02 NDo=     1
 LinEq1:  Iter=  3 NonCon=     1 RMS=3.00D-04 Max=9.51D-03 NDo=     1
 LinEq1:  Iter=  4 NonCon=     1 RMS=9.39D-05 Max=2.58D-03 NDo=     1
 LinEq1:  Iter=  5 NonCon=     1 RMS=3.85D-05 Max=1.80D-03 NDo=     1
 LinEq1:  Iter=  6 NonCon=     1 RMS=1.58D-05 Max=6.16D-04 NDo=     1
 LinEq1:  Iter=  7 NonCon=     1 RMS=5.99D-06 Max=7.37D-05 NDo=     1
 LinEq1:  Iter=  8 NonCon=     1 RMS=2.32D-06 Max=6.09D-05 NDo=     1
 LinEq1:  Iter=  9 NonCon=     1 RMS=7.63D-07 Max=2.21D-05 NDo=     1
 LinEq1:  Iter= 10 NonCon=     1 RMS=3.55D-07 Max=1.32D-05 NDo=     1
 LinEq1:  Iter= 11 NonCon=     1 RMS=1.48D-07 Max=5.17D-06 NDo=     1
 LinEq1:  Iter= 12 NonCon=     1 RMS=5.48D-08 Max=9.60D-07 NDo=     1
 LinEq1:  Iter= 13 NonCon=     1 RMS=1.77D-08 Max=3.34D-07 NDo=     1
 LinEq1:  Iter= 14 NonCon=     1 RMS=5.62D-09 Max=1.40D-07 NDo=     1
 LinEq1:  Iter= 15 NonCon=     1 RMS=2.02D-09 Max=5.55D-08 NDo=     1
 LinEq1:  Iter= 16 NonCon=     1 RMS=7.74D-10 Max=1.54D-08 NDo=     1
 LinEq1:  Iter= 17 NonCon=     1 RMS=2.68D-10 Max=4.48D-09 NDo=     1
 LinEq1:  Iter= 18 NonCon=     1 RMS=9.11D-11 Max=1.04D-09 NDo=     1
 LinEq1:  Iter= 19 NonCon=     0 RMS=3.04D-11 Max=5.54D-10 NDo=     1
 Linear equations converged to 1.000D-10 1.000D-09 after    19 iterations.
 End of Minotr F.D. properties file   721 does not exist.
 End of Minotr F.D. properties file   722 does not exist.
 End of Minotr F.D. properties file   788 does not exist.

 **********************************************************************

            Population analysis using the SCF Density.

 **********************************************************************

 Alpha  occ. eigenvalues --  -20.60010 -20.59544 -15.85343 -15.63696 -15.56276
 Alpha  occ. eigenvalues --  -11.36234 -11.30004 -11.29688 -11.29289 -11.27450
 Alpha  occ. eigenvalues --  -11.24611 -11.23829 -11.23261 -11.22745  -1.58557
 Alpha  occ. eigenvalues --   -1.38024  -1.28951  -1.22666  -1.13812  -1.08595
 Alpha  occ. eigenvalues --   -1.01798  -1.00552  -0.93900  -0.89941  -0.84931
 Alpha  occ. eigenvalues --   -0.81946  -0.78080  -0.77247  -0.74564  -0.71506
 Alpha  occ. eigenvalues --   -0.70425  -0.69806  -0.67472  -0.64429  -0.63155
 Alpha  occ. eigenvalues --   -0.61636  -0.60663  -0.57442  -0.56416  -0.54781
 Alpha  occ. eigenvalues --   -0.53586  -0.50706  -0.49721  -0.48556  -0.47800
 Alpha  occ. eigenvalues --   -0.47622  -0.46088  -0.45698  -0.44073  -0.42239
 Alpha  occ. eigenvalues --   -0.39774  -0.33450
 Alpha virt. eigenvalues --    0.07047   0.11432   0.18124   0.21363   0.23283
 Alpha virt. eigenvalues --    0.24294   0.26559   0.28026   0.28575   0.28890
 Alpha virt. eigenvalues --    0.30070   0.31251   0.31845   0.32368   0.33445
 Alpha virt. eigenvalues --    0.33844   0.34270   0.35656   0.37807   0.39346
 Alpha virt. eigenvalues --    0.40679   0.42335   0.44515   0.45350   0.45832
 Alpha virt. eigenvalues --    0.46896   0.49938   0.53535   0.57942   0.59693
 Alpha virt. eigenvalues --    0.63193   0.69220   0.69887   0.72229   0.74204
 Alpha virt. eigenvalues --    0.74756   0.75625   0.76039   0.78073   0.79328
 Alpha virt. eigenvalues --    0.80758   0.83565   0.85354   0.85748   0.88065
 Alpha virt. eigenvalues --    0.89252   0.90191   0.91226   0.91831   0.94075
 Alpha virt. eigenvalues --    0.95325   0.97245   0.99525   1.00572   1.02161
 Alpha virt. eigenvalues --    1.02527   1.05268   1.06466   1.06987   1.08672
 Alpha virt. eigenvalues --    1.09485   1.10534   1.11231   1.12107   1.13309
 Alpha virt. eigenvalues --    1.13830   1.14245   1.15497   1.16439   1.17420
 Alpha virt. eigenvalues --    1.17977   1.20036   1.21538   1.22218   1.23439
 Alpha virt. eigenvalues --    1.24032   1.24738   1.25923   1.27650   1.28528
 Alpha virt. eigenvalues --    1.29790   1.31194   1.32968   1.36146   1.40105
 Alpha virt. eigenvalues --    1.42765   1.45702   1.47618   1.48792   1.52961
 Alpha virt. eigenvalues --    1.54756   1.55341   1.60715   1.61987   1.65653
 Alpha virt. eigenvalues --    1.68719   1.70204   1.73037   1.73921   1.77672
 Alpha virt. eigenvalues --    1.78182   1.81108   1.84621   1.89431   1.92509
 Alpha virt. eigenvalues --    1.94426   1.96779   1.97380   1.98800   2.01774
 Alpha virt. eigenvalues --    2.03343   2.03694   2.07036   2.09188   2.12039
 Alpha virt. eigenvalues --    2.13583   2.14736   2.18711   2.18903   2.19872
 Alpha virt. eigenvalues --    2.20952   2.22146   2.24276   2.24931   2.27083
 Alpha virt. eigenvalues --    2.28938   2.32781   2.34319   2.35664   2.37305
 Alpha virt. eigenvalues --    2.38457   2.40248   2.41958   2.43511   2.46832
 Alpha virt. eigenvalues --    2.49411   2.50823   2.52059   2.57419   2.58247
 Alpha virt. eigenvalues --    2.61031   2.63189   2.66449   2.68813   2.69062
 Alpha virt. eigenvalues --    2.70101   2.70722   2.75064   2.78236   2.80916
 Alpha virt. eigenvalues --    2.85952   2.87963   2.90358   2.92633   2.96733
 Alpha virt. eigenvalues --    2.98064   2.98703   3.02117   3.05196   3.06364
 Alpha virt. eigenvalues --    3.07286   3.13228   3.19370   3.22977   3.27265
 Alpha virt. eigenvalues --    3.30886   3.34487   3.37996   3.46239   3.64299
 Alpha virt. eigenvalues --    4.10122   4.23341   4.32077   4.36695   4.43899
 Alpha virt. eigenvalues --    4.54278   4.60017   4.62048   4.71001   4.78021
 Alpha virt. eigenvalues --    4.97729   4.99396   5.03233   5.10382
          Condensed to atoms (all electrons):
               1          2          3          4          5          6
     1  O    8.295148   0.317091  -0.091318  -0.079767   0.003444  -0.000011
     2  N    0.317091   5.694153   0.304653   0.268309  -0.044324   0.000860
     3  O   -0.091318   0.304653   8.332526  -0.086420   0.006949   0.000469
     4  C   -0.079767   0.268309  -0.086420   5.228576   0.559719  -0.047701
     5  C    0.003444  -0.044324   0.006949   0.559719   4.681335   0.312309
     6  N   -0.000011   0.000860   0.000469  -0.047701   0.312309   7.184790
     7  C    0.000003  -0.000092   0.000002   0.004096  -0.030824   0.197852
     8  H   -0.000000   0.000002  -0.000000  -0.000203   0.002550  -0.049946
     9  C   -0.000000  -0.000003   0.000000   0.000563   0.001618  -0.055563
    10  C   -0.000000   0.000000  -0.000000  -0.000023  -0.000061   0.003278
    11  C   -0.000000  -0.000000  -0.000000  -0.000013   0.000015  -0.000154
    12  C   -0.000000   0.000002  -0.000000  -0.000153  -0.000128   0.003718
    13  C   -0.000020  -0.000059  -0.000003  -0.010474   0.000296  -0.047004
    14  H   -0.000004  -0.000044  -0.000000   0.003356   0.005459  -0.006160
    15  N    0.000120   0.001896  -0.000019  -0.064235  -0.005309   0.001979
    16  C    0.003518  -0.033438   0.002450   0.313183  -0.050005  -0.002157
    17  H    0.000123  -0.004343   0.012417  -0.026601   0.376025  -0.034246
    18  H    0.000000  -0.000034   0.000008   0.000950  -0.024072   0.327542
    19  H    0.000000   0.000000   0.000000  -0.000929   0.000739   0.000697
    20  H    0.000000  -0.000000   0.000000  -0.000027   0.000015  -0.001611
    21  H   -0.000000  -0.000000   0.000000   0.000000   0.000001  -0.000058
    22  H   -0.000000   0.000000  -0.000000  -0.000000  -0.000002  -0.000096
    23  H    0.000000  -0.000000   0.000000   0.000033  -0.000000  -0.000025
    24  H    0.000000   0.000000   0.000000   0.000000  -0.000000   0.000005
    25  H    0.000000  -0.000000   0.000000   0.000020  -0.000002  -0.000074
    26  H    0.000000  -0.000000   0.000000   0.000009  -0.000001  -0.000072
    27  H    0.006150  -0.002138   0.000020  -0.075564   0.002868   0.000048
               7          8          9         10         11         12
     1  O    0.000003  -0.000000  -0.000000  -0.000000  -0.000000  -0.000000
     2  N   -0.000092   0.000002  -0.000003   0.000000  -0.000000   0.000002
     3  O    0.000002  -0.000000   0.000000  -0.000000  -0.000000  -0.000000
     4  C    0.004096  -0.000203   0.000563  -0.000023  -0.000013  -0.000153
     5  C   -0.030824   0.002550   0.001618  -0.000061   0.000015  -0.000128
     6  N    0.197852  -0.049946  -0.055563   0.003278  -0.000154   0.003718
     7  C    5.013113   0.415049   0.341857  -0.049394  -0.007819  -0.064767
     8  H    0.415049   0.547609  -0.059989   0.001479  -0.000291  -0.002770
     9  C    0.341857  -0.059989   5.179284   0.318409  -0.053198  -0.006189
    10  C   -0.049394   0.001479   0.318409   5.125634   0.333026  -0.060016
    11  C   -0.007819  -0.000291  -0.053198   0.333026   5.122649   0.331227
    12  C   -0.064767  -0.002770  -0.006189  -0.060016   0.331227   5.134956
    13  C    0.331022  -0.040041  -0.050663  -0.001657  -0.047540   0.369231
    14  H   -0.041041  -0.000774   0.003821  -0.000390   0.003963  -0.040538
    15  N   -0.059142   0.004144  -0.013651   0.001428  -0.007826  -0.074314
    16  C   -0.002402   0.000034  -0.000990  -0.000026   0.000004   0.002496
    17  H    0.001434  -0.000012  -0.000069   0.000001   0.000000   0.000001
    18  H   -0.028240  -0.002589   0.000898  -0.000119   0.000012  -0.000140
    19  H   -0.035075   0.004087   0.385665  -0.032195  -0.002257   0.000612
    20  H   -0.041983  -0.001882   0.396801  -0.037309   0.004153  -0.000371
    21  H    0.004059  -0.000083  -0.035860   0.400165  -0.035776   0.004206
    22  H   -0.004221   0.003492  -0.045771   0.395999  -0.045680  -0.001181
    23  H    0.000436   0.000033  -0.002032  -0.039927   0.396531  -0.036355
    24  H   -0.000145  -0.000096   0.004420  -0.038628   0.400213  -0.037997
    25  H    0.005030  -0.000017  -0.000360   0.004088  -0.033817   0.395162
    26  H   -0.004444   0.001627   0.001043  -0.002375  -0.042603   0.394635
    27  H   -0.000444   0.000010  -0.000070   0.000006   0.000004  -0.000011
              13         14         15         16         17         18
     1  O   -0.000020  -0.000004   0.000120   0.003518   0.000123   0.000000
     2  N   -0.000059  -0.000044   0.001896  -0.033438  -0.004343  -0.000034
     3  O   -0.000003  -0.000000  -0.000019   0.002450   0.012417   0.000008
     4  C   -0.010474   0.003356  -0.064235   0.313183  -0.026601   0.000950
     5  C    0.000296   0.005459  -0.005309  -0.050005   0.376025  -0.024072
     6  N   -0.047004  -0.006160   0.001979  -0.002157  -0.034246   0.327542
     7  C    0.331022  -0.041041  -0.059142  -0.002402   0.001434  -0.028240
     8  H   -0.040041  -0.000774   0.004144   0.000034  -0.000012  -0.002589
     9  C   -0.050663   0.003821  -0.013651  -0.000990  -0.000069   0.000898
    10  C   -0.001657  -0.000390   0.001428  -0.000026   0.000001  -0.000119
    11  C   -0.047540   0.003963  -0.007826   0.000004   0.000000   0.000012
    12  C    0.369231  -0.040538  -0.074314   0.002496   0.000001  -0.000140
    13  C    5.029001   0.401321   0.242732  -0.072793  -0.000039   0.003831
    14  H    0.401321   0.523627  -0.036464  -0.004502   0.000074   0.000019
    15  N    0.242732  -0.036464   6.945930   0.591670  -0.000042  -0.000119
    16  C   -0.072793  -0.004502   0.591670   4.739366   0.002002  -0.000259
    17  H   -0.000039   0.000074  -0.000042   0.002002   0.384698  -0.001887
    18  H    0.003831   0.000019  -0.000119  -0.000259  -0.001887   0.322665
    19  H   -0.006043   0.000070   0.007245   0.002640   0.000012  -0.000124
    20  H    0.003882  -0.000047   0.000103  -0.000034  -0.000001   0.002821
    21  H   -0.000375   0.000008  -0.000034   0.000002  -0.000000  -0.000000
    22  H    0.000295  -0.000044   0.000002  -0.000001   0.000000   0.000002
    23  H   -0.005906   0.000011   0.006973   0.000072   0.000000   0.000000
    24  H    0.004142  -0.000057   0.000059   0.000005   0.000000  -0.000000
    25  H   -0.034328  -0.002652   0.000791  -0.000060  -0.000000   0.000002
    26  H   -0.045165  -0.000899   0.004213  -0.000060   0.000000  -0.000000
    27  H    0.005204  -0.000170  -0.039199   0.407843  -0.000069   0.000003
              19         20         21         22         23         24
     1  O    0.000000   0.000000  -0.000000  -0.000000   0.000000   0.000000
     2  N    0.000000  -0.000000  -0.000000   0.000000  -0.000000   0.000000
     3  O    0.000000   0.000000   0.000000  -0.000000   0.000000   0.000000
     4  C   -0.000929  -0.000027   0.000000  -0.000000   0.000033   0.000000
     5  C    0.000739   0.000015   0.000001  -0.000002  -0.000000  -0.000000
     6  N    0.000697  -0.001611  -0.000058  -0.000096  -0.000025   0.000005
     7  C   -0.035075  -0.041983   0.004059  -0.004221   0.000436  -0.000145
     8  H    0.004087  -0.001882  -0.000083   0.003492   0.000033  -0.000096
     9  C    0.385665   0.396801  -0.035860  -0.045771  -0.002032   0.004420
    10  C   -0.032195  -0.037309   0.400165   0.395999  -0.039927  -0.038628
    11  C   -0.002257   0.004153  -0.035776  -0.045680   0.396531   0.400213
    12  C    0.000612  -0.000371   0.004206  -0.001181  -0.036355  -0.037997
    13  C   -0.006043   0.003882  -0.000375   0.000295  -0.005906   0.004142
    14  H    0.000070  -0.000047   0.000008  -0.000044   0.000011  -0.000057
    15  N    0.007245   0.000103  -0.000034   0.000002   0.006973   0.000059
    16  C    0.002640  -0.000034   0.000002  -0.000001   0.000072   0.000005
    17  H    0.000012  -0.000001  -0.000000   0.000000   0.000000   0.000000
    18  H   -0.000124   0.002821  -0.000000   0.000002   0.000000  -0.000000
    19  H    0.505829  -0.024223  -0.002619   0.003753   0.001631  -0.000068
    20  H   -0.024223   0.551785  -0.002601  -0.003009  -0.000048  -0.000090
    21  H   -0.002619  -0.002601   0.526179  -0.024719  -0.002799  -0.002057
    22  H    0.003753  -0.003009  -0.024719   0.569295   0.004056  -0.003616
    23  H    0.001631  -0.000048  -0.002799   0.004056   0.508615  -0.025087
    24  H   -0.000068  -0.000090  -0.002057  -0.003616  -0.025087   0.542233
    25  H   -0.000028   0.000011  -0.000085  -0.000083  -0.002099  -0.002373
    26  H    0.000022  -0.000035  -0.000074   0.002472   0.003828  -0.002787
    27  H    0.000097  -0.000000  -0.000000   0.000000  -0.000024  -0.000000
              25         26         27
     1  O    0.000000   0.000000   0.006150
     2  N   -0.000000  -0.000000  -0.002138
     3  O    0.000000   0.000000   0.000020
     4  C    0.000020   0.000009  -0.075564
     5  C   -0.000002  -0.000001   0.002868
     6  N   -0.000074  -0.000072   0.000048
     7  C    0.005030  -0.004444  -0.000444
     8  H   -0.000017   0.001627   0.000010
     9  C   -0.000360   0.001043  -0.000070
    10  C    0.004088  -0.002375   0.000006
    11  C   -0.033817  -0.042603   0.000004
    12  C    0.395162   0.394635  -0.000011
    13  C   -0.034328  -0.045165   0.005204
    14  H   -0.002652  -0.000899  -0.000170
    15  N    0.000791   0.004213  -0.039199
    16  C   -0.000060  -0.000060   0.407843
    17  H   -0.000000   0.000000  -0.000069
    18  H    0.000002  -0.000000   0.000003
    19  H   -0.000028   0.000022   0.000097
    20  H    0.000011  -0.000035  -0.000000
    21  H   -0.000085  -0.000074  -0.000000
    22  H   -0.000083   0.002472   0.000000
    23  H   -0.002099   0.003828  -0.000024
    24  H   -0.002373  -0.002787  -0.000000
    25  H    0.511014  -0.023191  -0.000011
    26  H   -0.023191   0.563014   0.000001
    27  H   -0.000011   0.000001   0.458633
 Mulliken charges:
               1
     1  O   -0.454477
     2  N    0.497510
     3  O   -0.481734
     4  C    0.013296
     5  C    0.201385
     6  N   -0.788669
     7  C    0.056081
     8  H    0.178576
     9  C   -0.309970
    10  C   -0.321393
    11  C   -0.314824
    12  C   -0.311315
    13  C   -0.028849
    14  H    0.192057
    15  N   -0.508928
    16  C    0.101441
    17  H    0.290521
    18  H    0.398831
    19  H    0.190460
    20  H    0.153702
    21  H    0.172518
    22  H    0.149058
    23  H    0.192084
    24  H    0.161921
    25  H    0.183063
    26  H    0.150842
    27  H    0.236813
 Sum of Mulliken charges =  -0.00000
 Mulliken charges with hydrogens summed into heavy atoms:
               1
     1  O   -0.454477
     2  N    0.497510
     3  O   -0.481734
     4  C    0.013296
     5  C    0.491907
     6  N   -0.389838
     7  C    0.234656
     9  C    0.034192
    10  C    0.000184
    11  C    0.039181
    12  C    0.022590
    13  C    0.163208
    15  N   -0.508928
    16  C    0.338254
 Electronic spatial extent (au):  <R**2>=           3100.4429
 Charge=             -0.0000 electrons
 Dipole moment (field-independent basis, Debye):
    X=              5.1822    Y=              4.7387    Z=              0.4856  Tot=              7.0389
 Quadrupole moment (field-independent basis, Debye-Ang):
   XX=           -104.9300   YY=            -80.3853   ZZ=            -82.1829
   XY=             -2.2306   XZ=              0.9616   YZ=             -0.0452
 Traceless Quadrupole moment (field-independent basis, Debye-Ang):
   XX=            -15.7640   YY=              8.7807   ZZ=              6.9832
   XY=             -2.2306   XZ=              0.9616   YZ=             -0.0452
 Octapole moment (field-independent basis, Debye-Ang**2):
  XXX=             96.8976  YYY=             38.3946  ZZZ=             -5.7641  XYY=             -1.3052
  XXY=             12.9881  XXZ=             -1.1645  XZZ=             -8.9610  YZZ=             -2.6154
  YYZ=              0.8201  XYZ=             -1.2517
 Hexadecapole moment (field-independent basis, Debye-Ang**3):
 XXXX=          -3518.6062 YYYY=           -615.2214 ZZZZ=           -300.2288 XXXY=            -54.0980
 XXXZ=             29.9575 YYYX=            -32.1119 YYYZ=             10.8406 ZZZX=             22.6756
 ZZZY=              8.9868 XXYY=           -651.2023 XXZZ=           -538.9658 YYZZ=           -164.0725
 XXYZ=              2.6969 YYXZ=             10.4078 ZZXY=             -0.5440
 N-N= 9.209888914637D+02 E-N=-3.388132406576D+03  KE= 6.590534100145D+02
 Calling FoFJK, ICntrl=  10002127 FMM=F ISym2X=0 I1Cent= 0 IOpClX= 0 NMat=1 NMatS=1 NMatT=0.
 -------------------------------------------------------------------
 Center     Atomic                   Forces (Hartrees/Bohr)
 Number     Number              X              Y              Z
 -------------------------------------------------------------------
      1        8           0.005352256   -0.017219640   -0.002406694
      2        7           0.034576013    0.014189613   -0.004674148
      3        8          -0.004583836    0.016209333    0.004388929
      4        6          -0.039652977    0.058594485    0.029069593
      5        6           0.002897069   -0.013956048   -0.002607044
      6        7           0.012729917   -0.012417922   -0.008796322
      7        6          -0.004701942    0.005433852    0.004120255
      8        1          -0.010007856   -0.001087057   -0.007714278
      9        6          -0.004064273    0.000406129   -0.001995237
     10        6           0.002845230   -0.000964417    0.001185410
     11        6          -0.001279754   -0.004749045   -0.002501951
     12        6           0.000615916   -0.009026262   -0.002738703
     13        6           0.009083948   -0.004698997    0.003284087
     14        1           0.000761744    0.005101729   -0.009502864
     15        7           0.006542767    0.000197276    0.000273421
     16        6           0.011948285   -0.040835662   -0.014763050
     17        1           0.007136497   -0.005902939   -0.006600786
     18        1          -0.017798986   -0.001424939    0.006360039
     19        1           0.003073176    0.005659891    0.007906116
     20        1          -0.003253707   -0.007230813    0.002597093
     21        1          -0.004353619    0.002479801    0.009600256
     22        1          -0.004022613   -0.003932166   -0.007406180
     23        1           0.004028570    0.006181933    0.009358370
     24        1          -0.009312232    0.002773677   -0.002079155
     25        1          -0.000548317    0.010570568   -0.002396915
     26        1          -0.004789853   -0.004736287   -0.004294452
     27        1           0.006778576    0.000383906    0.002334211
 -------------------------------------------------------------------
 Cartesian Forces:  Max     0.058594485 RMS     0.012437848

 GradGradGradGradGradGradGradGradGradGradGradGradGradGradGradGradGradGrad
 Berny optimization.
 FormGI is forming the generalized inverse of G from B-inverse, IUseBI=4.
 Internal  Forces:  Max     0.042756021 RMS     0.007586792
 Search for a local minimum.
 Step number   1 out of a maximum of   20
 All quantities printed in internal units (Hartrees-Bohrs-Radians)
 Mixed Optimization -- RFO/linear search
 Second derivative matrix not updated -- first step.
 ITU=  0
     Eigenvalues ---    0.00232   0.00773   0.01127   0.01194   0.01501
     Eigenvalues ---    0.01540   0.01682   0.02008   0.02048   0.02278
     Eigenvalues ---    0.02545   0.02713   0.03696   0.04496   0.04692
     Eigenvalues ---    0.04839   0.05095   0.05137   0.05310   0.05916
     Eigenvalues ---    0.06231   0.07251   0.07690   0.07732   0.07870
     Eigenvalues ---    0.07989   0.08055   0.08069   0.10449   0.11728
     Eigenvalues ---    0.12244   0.13469   0.15201   0.15662   0.15987
     Eigenvalues ---    0.16000   0.20035   0.21980   0.23085   0.24986
     Eigenvalues ---    0.25000   0.25000   0.25405   0.26213   0.26650
     Eigenvalues ---    0.27969   0.28089   0.28494   0.28891   0.31480
     Eigenvalues ---    0.32042   0.32239   0.32250   0.32289   0.32381
     Eigenvalues ---    0.32390   0.32406   0.32525   0.32527   0.32577
     Eigenvalues ---    0.33399   0.33570   0.35252   0.43431   0.43886
     Eigenvalues ---    0.48838   0.66048   0.90362   0.906591000.00000
     Eigenvalues --- 1000.000001000.000001000.000001000.000001000.00000
     Eigenvalues --- 1000.000001000.000001000.000001000.000001000.00000
     Eigenvalues --- 1000.000001000.000001000.000001000.000001000.00000
     Eigenvalues --- 1000.000001000.000001000.000001000.000001000.00000
     Eigenvalues --- 1000.000001000.000001000.000001000.000001000.00000
     Eigenvalues --- 1000.000001000.000001000.000001000.000001000.00000
     Eigenvalues --- 1000.000001000.000001000.000001000.000001000.00000
     Eigenvalues --- 1000.000001000.000001000.000001000.000001000.00000
     Eigenvalues --- 1000.000001000.000001000.000001000.000001000.00000
     Eigenvalues --- 1000.000001000.000001000.000001000.000001000.00000
     Eigenvalues --- 1000.000001000.000001000.000001000.000001000.00000
     Eigenvalues --- 1000.000001000.000001000.000001000.000001000.00000
     Eigenvalues --- 1000.000001000.000001000.000001000.000001000.00000
     Eigenvalues --- 1000.000001000.000001000.000001000.000001000.00000
     Eigenvalues --- 1000.000001000.000001000.000001000.000001000.00000
     Eigenvalues --- 1000.000001000.000001000.000001000.000001000.00000
     Eigenvalues --- 1000.000001000.000001000.000001000.000001000.00000
     Eigenvalues --- 1000.000001000.000001000.000001000.000001000.00000
     Eigenvalues --- 1000.00000
 RFO step:  Lambda=-2.38898383D-02 EMin= 2.31825526D-03
 Linear search not attempted -- first point.
 Iteration  1 RMS(Cart)=  0.05587674 RMS(Int)=  0.00109580
 Iteration  2 RMS(Cart)=  0.00123006 RMS(Int)=  0.00027794
 Iteration  3 RMS(Cart)=  0.00000105 RMS(Int)=  0.00027794
 Iteration  4 RMS(Cart)=  0.00000000 RMS(Int)=  0.00027794
 Iteration  1 RMS(Cart)=  0.00003769 RMS(Int)=  0.00003605
 Iteration  2 RMS(Cart)=  0.00001981 RMS(Int)=  0.00003892
 Iteration  3 RMS(Cart)=  0.00001542 RMS(Int)=  0.00004356
 Iteration  4 RMS(Cart)=  0.00001301 RMS(Int)=  0.00004814
 Iteration  5 RMS(Cart)=  0.00001112 RMS(Int)=  0.00005238
 Iteration  6 RMS(Cart)=  0.00000950 RMS(Int)=  0.00005620
 Iteration  7 RMS(Cart)=  0.00000809 RMS(Int)=  0.00005960
 Iteration  8 RMS(Cart)=  0.00000688 RMS(Int)=  0.00006259
 Iteration  9 RMS(Cart)=  0.00000584 RMS(Int)=  0.00006520
 Iteration 10 RMS(Cart)=  0.00000496 RMS(Int)=  0.00006746
 Iteration 11 RMS(Cart)=  0.00000421 RMS(Int)=  0.00006941
 Iteration 12 RMS(Cart)=  0.00000357 RMS(Int)=  0.00007109
 Iteration 13 RMS(Cart)=  0.00000303 RMS(Int)=  0.00007253
 Iteration 14 RMS(Cart)=  0.00000257 RMS(Int)=  0.00007376
 Iteration 15 RMS(Cart)=  0.00000218 RMS(Int)=  0.00007481
 Iteration 16 RMS(Cart)=  0.00000185 RMS(Int)=  0.00007571
 Iteration 17 RMS(Cart)=  0.00000157 RMS(Int)=  0.00007648
 Iteration 18 RMS(Cart)=  0.00000133 RMS(Int)=  0.00007713
 Iteration 19 RMS(Cart)=  0.00000113 RMS(Int)=  0.00007769
 Iteration 20 RMS(Cart)=  0.00000096 RMS(Int)=  0.00007816
 Variable       Old X    -DE/DX   Delta X   Delta X   Delta X     New X
                                 (Linear)    (Quad)   (Total)
    R1        2.32631   0.01502   0.00000   0.01615   0.01615   2.34245
    R2        2.32767   0.01583   0.00000   0.01706   0.01706   2.34473
    R3        2.90231  -0.03730   0.00000  -0.11924  -0.11924   2.78307
    R4        2.65396  -0.03751   0.00000  -0.07748  -0.07735   2.57661
    R5        2.62672   0.04276   0.00000   0.00000   0.00000   2.62673
    R6        2.59310  -0.02607   0.00000  -0.05224  -0.05232   2.54078
    R7        2.08357  -0.01042   0.00000  -0.02912  -0.02912   2.05445
    R8        2.82106  -0.01504   0.00000  -0.04978  -0.04997   2.77109
    R9        1.93292  -0.00627   0.00000  -0.01355  -0.01355   1.91936
   R10        2.11806  -0.01161   0.00000  -0.03427  -0.03427   2.08379
   R11        2.92705  -0.01300   0.00000  -0.04517  -0.04522   2.88183
   R12        2.89917  -0.00084   0.00000  -0.00399  -0.00384   2.89534
   R13        2.91124  -0.00438   0.00000  -0.01389  -0.01389   2.89736
   R14        2.09890  -0.00996   0.00000  -0.02852  -0.02852   2.07038
   R15        2.09894  -0.00794   0.00000  -0.02273  -0.02273   2.07620
   R16        2.90453  -0.00217   0.00000  -0.00711  -0.00715   2.89738
   R17        2.10135  -0.01057   0.00000  -0.03040  -0.03040   2.07095
   R18        2.10319  -0.00900   0.00000  -0.02596  -0.02596   2.07723
   R19        2.91825  -0.00969   0.00000  -0.02986  -0.02981   2.88843
   R20        2.10410  -0.01176   0.00000  -0.03396  -0.03396   2.07013
   R21        2.10107  -0.00992   0.00000  -0.02850  -0.02850   2.07257
   R22        2.93528  -0.01075   0.00000  -0.03658  -0.03659   2.89869
   R23        2.10152  -0.01071   0.00000  -0.03079  -0.03079   2.07073
   R24        2.09801  -0.00778   0.00000  -0.02224  -0.02224   2.07577
   R25        2.10767  -0.00880   0.00000  -0.02557  -0.02557   2.08211
   R26        2.76774  -0.00426   0.00000  -0.01230  -0.01260   2.75514
   R27        2.44835  -0.00272   0.00000  -0.00083  -0.00077   2.44758
   R28        2.08062  -0.00468   0.00000  -0.01302  -0.01302   2.06760
    A1        2.15214   0.01337   0.00000   0.04915   0.04862   2.20076
    A2        2.06278  -0.01047   0.00000  -0.03788  -0.03840   2.02437
    A3        2.06803  -0.00285   0.00000  -0.01007  -0.01060   2.05744
    A4        2.02084  -0.00724   0.00000  -0.03313  -0.03348   1.98736
    A5        2.03703   0.00074   0.00000  -0.00391  -0.00428   2.03275
    A6        2.22474   0.00645   0.00000   0.03602   0.03627   2.26101
    A7        2.20515   0.00403   0.00000   0.01249   0.01252   2.21766
    A8        2.06399  -0.00248   0.00000  -0.00816  -0.00833   2.05566
    A9        2.01283  -0.00152   0.00000  -0.00307  -0.00325   2.00958
   A10        2.23886   0.00135   0.00000  -0.01115  -0.01144   2.22742
   A11        2.11973  -0.01554   0.00000  -0.07560  -0.07610   2.04363
   A12        1.88028   0.01492   0.00000   0.09674   0.09698   1.97726
   A13        1.84171  -0.00365   0.00000  -0.02103  -0.02102   1.82069
   A14        2.01370  -0.00191   0.00000  -0.01562  -0.01567   1.99803
   A15        1.94958   0.00527   0.00000   0.01015   0.00992   1.95950
   A16        1.85351   0.00348   0.00000   0.02207   0.02198   1.87549
   A17        1.85229   0.00091   0.00000   0.02109   0.02084   1.87313
   A18        1.94012  -0.00392   0.00000  -0.01278  -0.01245   1.92767
   A19        1.90886   0.00093   0.00000  -0.00384  -0.00397   1.90489
   A20        1.92435  -0.00097   0.00000  -0.01484  -0.01483   1.90952
   A21        1.92205  -0.00197   0.00000  -0.00665  -0.00666   1.91540
   A22        1.91942  -0.00042   0.00000   0.00544   0.00542   1.92484
   A23        1.90497   0.00262   0.00000   0.02426   0.02424   1.92921
   A24        1.88400  -0.00017   0.00000  -0.00391  -0.00417   1.87983
   A25        1.94003  -0.00027   0.00000   0.00678   0.00674   1.94677
   A26        1.91914  -0.00078   0.00000  -0.00741  -0.00745   1.91168
   A27        1.90499   0.00001   0.00000  -0.00316  -0.00325   1.90173
   A28        1.91633   0.00043   0.00000   0.00664   0.00668   1.92300
   A29        1.89845   0.00174   0.00000   0.01126   0.01125   1.90970
   A30        1.88388  -0.00113   0.00000  -0.01461  -0.01468   1.86919
   A31        1.94528   0.00083   0.00000   0.00497   0.00505   1.95033
   A32        1.90217   0.00056   0.00000   0.00616   0.00612   1.90829
   A33        1.91745   0.00032   0.00000   0.00484   0.00482   1.92227
   A34        1.90634  -0.00134   0.00000  -0.01435  -0.01438   1.89196
   A35        1.91524  -0.00041   0.00000   0.00010   0.00003   1.91527
   A36        1.87596   0.00000   0.00000  -0.00207  -0.00211   1.87385
   A37        1.94936  -0.00383   0.00000  -0.02028  -0.02029   1.92907
   A38        1.90570   0.00252   0.00000   0.01700   0.01685   1.92255
   A39        1.91024   0.00187   0.00000   0.01364   0.01359   1.92383
   A40        1.90588   0.00055   0.00000  -0.00189  -0.00173   1.90415
   A41        1.91066   0.00002   0.00000  -0.00393  -0.00386   1.90680
   A42        1.88071  -0.00102   0.00000  -0.00398  -0.00416   1.87655
   A43        1.84640   0.00576   0.00000   0.02531   0.02535   1.87175
   A44        1.94389  -0.00600   0.00000  -0.03655  -0.03698   1.90691
   A45        1.97329   0.00268   0.00000   0.01476   0.01518   1.98847
   A46        1.88082   0.00238   0.00000   0.02970   0.03012   1.91094
   A47        1.89272  -0.00668   0.00000  -0.02902  -0.02926   1.86346
   A48        1.92225   0.00191   0.00000  -0.00209  -0.00198   1.92027
   A49        2.08160  -0.00673   0.00000  -0.02025  -0.02079   2.06081
   A50        2.26719  -0.00978   0.00000  -0.02346  -0.02341   2.24379
   A51        1.97855   0.01056   0.00000   0.04261   0.04220   2.02075
   A52        2.03742  -0.00075   0.00000  -0.01888  -0.01929   2.01813
    D1       -3.03099  -0.00017   0.00000  -0.02950  -0.02880  -3.05979
    D2        0.14414   0.00101   0.00000   0.00000  -0.00000   0.14414
    D3        0.13329  -0.00249   0.00000  -0.08728  -0.08692   0.04637
    D4       -2.97477  -0.00131   0.00000  -0.05778  -0.05812  -3.03289
    D5        3.05725   0.00041   0.00000   0.02154   0.02168   3.07894
    D6       -0.02852  -0.00019   0.00000  -0.00703  -0.00708  -0.03560
    D7       -0.12208  -0.00110   0.00000  -0.01278  -0.01295  -0.13504
    D8        3.07532  -0.00170   0.00000  -0.04136  -0.04171   3.03361
    D9       -2.66714  -0.00400   0.00000  -0.06089  -0.06137  -2.72851
   D10        0.46669  -0.00042   0.00000  -0.01707  -0.01737   0.44932
   D11        0.51250  -0.00233   0.00000  -0.02575  -0.02548   0.48702
   D12       -2.63685   0.00124   0.00000   0.01806   0.01852  -2.61833
   D13       -0.12238   0.00009   0.00000   0.01621   0.01666  -0.10572
   D14        2.66359   0.00549   0.00000   0.07229   0.07089   2.73448
   D15        2.96482   0.00064   0.00000   0.04389   0.04461   3.00944
   D16       -0.53239   0.00605   0.00000   0.09997   0.09884  -0.43355
   D17       -2.49420   0.00005   0.00000  -0.01567  -0.01526  -2.50945
   D18        1.74898  -0.00075   0.00000  -0.02019  -0.01998   1.72900
   D19       -0.48903   0.00165   0.00000   0.00232   0.00217  -0.48685
   D20        0.96452  -0.00004   0.00000  -0.03990  -0.04053   0.92399
   D21       -1.07549  -0.00084   0.00000  -0.04442  -0.04525  -1.12075
   D22        2.96969   0.00155   0.00000  -0.02191  -0.02310   2.94659
   D23        2.95956   0.00016   0.00000   0.02088   0.02055   2.98012
   D24       -1.21098  -0.00038   0.00000   0.01577   0.01550  -1.19548
   D25        0.86620  -0.00242   0.00000  -0.00248  -0.00267   0.86353
   D26        0.92622   0.00341   0.00000   0.04085   0.04079   0.96702
   D27        3.03886   0.00287   0.00000   0.03574   0.03574   3.07460
   D28       -1.16714   0.00082   0.00000   0.01749   0.01757  -1.14957
   D29       -1.08092   0.00234   0.00000   0.00988   0.00997  -1.07095
   D30        1.03172   0.00180   0.00000   0.00477   0.00492   1.03664
   D31        3.10890  -0.00025   0.00000  -0.01348  -0.01325   3.09565
   D32       -2.90491  -0.00022   0.00000  -0.01106  -0.01082  -2.91573
   D33       -0.86604   0.00288   0.00000   0.02022   0.02002  -0.84602
   D34        1.30938   0.00277   0.00000   0.00000  -0.00001   1.30937
   D35       -0.90626  -0.00139   0.00000  -0.01895  -0.01877  -0.92504
   D36        1.13261   0.00170   0.00000   0.01233   0.01206   1.14467
   D37       -2.97516   0.00159   0.00000  -0.00788  -0.00797  -2.98313
   D38        1.10165   0.00128   0.00000   0.01263   0.01275   1.11439
   D39        3.14052   0.00437   0.00000   0.04391   0.04359  -3.09908
   D40       -0.96725   0.00426   0.00000   0.02370   0.02355  -0.94369
   D41        0.95664   0.00104   0.00000   0.00000  -0.00000   0.95664
   D42        3.08240   0.00087   0.00000   0.00787   0.00783   3.09023
   D43       -1.13736  -0.00096   0.00000  -0.01615  -0.01612  -1.15348
   D44       -1.15899   0.00191   0.00000   0.01738   0.01743  -1.14156
   D45        0.96677   0.00174   0.00000   0.02525   0.02526   0.99203
   D46        3.03020  -0.00009   0.00000   0.00123   0.00131   3.03151
   D47        3.06046   0.00080   0.00000   0.00440   0.00435   3.06481
   D48       -1.09697   0.00063   0.00000   0.01227   0.01218  -1.08479
   D49        0.96646  -0.00120   0.00000  -0.01176  -0.01177   0.95469
   D50       -0.92191  -0.00058   0.00000   0.00000  -0.00000  -0.92191
   D51        1.18335  -0.00136   0.00000  -0.01068  -0.01070   1.17265
   D52       -3.04865  -0.00084   0.00000  -0.00678  -0.00682  -3.05547
   D53       -3.04930   0.00029   0.00000   0.00032   0.00033  -3.04898
   D54       -0.94404  -0.00048   0.00000  -0.01036  -0.01037  -0.95441
   D55        1.10714   0.00003   0.00000  -0.00646  -0.00649   1.10066
   D56        1.17596   0.00039   0.00000   0.00755   0.00758   1.18355
   D57       -3.00196  -0.00038   0.00000  -0.00313  -0.00311  -3.00507
   D58       -0.95078   0.00013   0.00000   0.00076   0.00077  -0.95001
   D59        0.98555  -0.00085   0.00000  -0.01085  -0.01088   0.97467
   D60        3.09519  -0.00094   0.00000  -0.01485  -0.01500   3.08020
   D61       -1.13317   0.00037   0.00000  -0.00188  -0.00184  -1.13501
   D62       -1.11726  -0.00119   0.00000  -0.01220  -0.01219  -1.12946
   D63        0.99237  -0.00128   0.00000  -0.01621  -0.01631   0.97607
   D64        3.04720   0.00003   0.00000  -0.00323  -0.00315   3.04405
   D65        3.11357  -0.00018   0.00000  -0.00134  -0.00134   3.11223
   D66       -1.05998  -0.00026   0.00000  -0.00534  -0.00545  -1.06543
   D67        0.99485   0.00105   0.00000   0.00763   0.00771   1.00255
   D68       -1.04810  -0.00117   0.00000  -0.00337  -0.00332  -1.05142
   D69       -3.12910   0.00159   0.00000   0.01094   0.01059  -3.11852
   D70        1.07358   0.00168   0.00000   0.01282   0.01281   1.08639
   D71        3.12555  -0.00223   0.00000  -0.01036  -0.01025   3.11530
   D72        1.04455   0.00053   0.00000   0.00395   0.00365   1.04820
   D73       -1.03596   0.00062   0.00000   0.00583   0.00587  -1.03009
   D74        1.07038  -0.00132   0.00000  -0.00217  -0.00201   1.06836
   D75       -1.01062   0.00144   0.00000   0.01214   0.01189  -0.99874
   D76       -3.09113   0.00152   0.00000   0.01402   0.01411  -3.07702
   D77       -1.17216   0.00549   0.00000   0.00000  -0.00001  -1.17217
   D78        3.06923   0.00110   0.00000  -0.02125  -0.02106   3.04817
   D79        1.01498   0.00108   0.00000  -0.03883  -0.03903   0.97595
   D80        0.11030   0.00403   0.00000   0.03692   0.03599   0.14629
   D81       -3.02332   0.00031   0.00000  -0.00835  -0.00818  -3.03150
         Item               Value     Threshold  Converged?
 Maximum Force            0.037298     0.000450     NO 
 RMS     Force            0.006811     0.000300     NO 
 Maximum Displacement     0.287144     0.001800     NO 
 RMS     Displacement     0.056064     0.001200     NO 
 Predicted change in Energy=-1.347137D-02
 GradGradGradGradGradGradGradGradGradGradGradGradGradGradGradGradGradGrad

                          Input orientation:                          
 ---------------------------------------------------------------------
 Center     Atomic      Atomic             Coordinates (Angstroms)
 Number     Number       Type             X           Y           Z
 ---------------------------------------------------------------------
      1          8           0       -3.468147   -1.438168   -0.218973
      2          7           0       -3.112205   -0.264460   -0.039385
      3          8           0       -3.860300    0.700830    0.179937
      4          6           0       -1.659476   -0.022602   -0.045104
      5          6           0       -1.312737    1.261236    0.255921
      6          7           0       -0.069199    1.754345    0.390838
      7          6           0        1.195374    1.012287    0.368072
      8          1           0        1.828244    1.529187    1.108495
      9          6           0        1.928309    1.053637   -0.968611
     10          6           0        3.325328    0.446235   -0.794975
     11          6           0        3.255491   -0.965866   -0.201787
     12          6           0        2.433398   -0.998949    1.086376
     13          6           0        1.027960   -0.435018    0.842156
     14          1           0        0.458879   -0.444864    1.785566
     15          7           0        0.388728   -1.307412   -0.135571
     16          6           0       -0.855080   -1.090778   -0.424651
     17          1           0       -2.114072    1.974393    0.432564
     18          1           0        0.049262    2.753931    0.255155
     19          1           0        1.358244    0.488197   -1.714022
     20          1           0        2.000507    2.091985   -1.320348
     21          1           0        3.838375    0.424645   -1.763124
     22          1           0        3.915904    1.092890   -0.130635
     23          1           0        2.789018   -1.641359   -0.927157
     24          1           0        4.266357   -1.343532   -0.005840
     25          1           0        2.348079   -2.027874    1.453488
     26          1           0        2.929522   -0.408797    1.868790
     27          1           0       -1.324744   -1.831128   -1.079186
 ---------------------------------------------------------------------
                    Distance matrix (angstroms):
                    1          2          3          4          5
     1  O    0.000000
     2  N    1.239572   0.000000
     3  O    2.210933   1.240779   0.000000
     4  C    2.303334   1.472735   2.327579   0.000000
     5  C    3.486847   2.377612   2.609579   1.363483   0.000000
     6  N    4.702856   3.677029   3.940408   2.424163   1.344524
     7  C    5.300734   4.511246   5.068751   3.064617   2.522930
     8  H    6.214428   5.379854   5.823051   3.987860   3.265646
     9  C    5.991058   5.292222   5.911990   3.857895   3.470872
    10  C    7.073475   6.520570   7.255930   5.062646   4.824962
    11  C    6.740228   6.408268   7.318338   5.007115   5.102763
    12  C    6.060122   5.706182   6.581908   4.357192   4.453271
    13  C    4.727292   4.236410   5.061993   2.860006   2.949545
    14  H    4.519553   4.014428   4.748259   2.831446   2.896415
    15  N    3.859992   3.654249   4.710289   2.419517   3.105834
    16  C    2.644069   2.434305   3.550596   1.390003   2.490904
    17  H    3.728752   2.496290   2.176027   2.103048   1.087167
    18  H    5.492782   4.380902   4.416509   3.274000   2.020688
    19  H    5.407412   4.832785   5.555672   3.486092   3.407698
    20  H    6.601604   5.773518   6.207674   4.415110   3.761961
    21  H    7.696736   7.194213   7.944895   5.777369   5.595568
    22  H    7.806297   7.158564   7.792273   5.686519   5.245613
    23  H    6.300391   6.124412   7.136171   4.815340   5.162280
    24  H    7.738019   7.457124   8.381914   6.071400   6.162762
    25  H    6.080573   5.928997   6.900125   4.725188   5.064977
    26  H    6.807976   6.337541   7.084150   4.987088   4.836023
    27  H    2.342768   2.594350   3.798058   2.110009   3.368289
                    6          7          8          9         10
     6  N    0.000000
     7  C    1.466395   0.000000
     8  H    2.041083   1.102695   0.000000
     9  C    2.515776   1.524999   2.133197   0.000000
    10  C    3.826241   2.491946   2.652780   1.533215   0.000000
    11  C    4.336395   2.912372   3.158981   2.535316   1.533226
    12  C    3.785155   2.468549   2.599648   2.948083   2.534478
    13  C    2.490132   1.532147   2.137636   2.511095   2.955453
    14  H    2.657190   2.162176   2.496090   3.462689   3.958507
    15  N    3.140248   2.507057   3.415581   2.939186   3.483347
    16  C    3.062247   3.042311   4.051540   3.555511   4.469380
    17  H    2.057102   3.447063   4.024543   4.376291   5.781798
    18  H    1.015684   2.087976   2.322276   2.814146   4.142565
    19  H    2.840979   2.153210   3.044858   1.095598   2.171596
    20  H    2.706629   2.159802   2.499138   1.098680   2.177076
    21  H    4.655834   3.445689   3.675164   2.162230   1.095899
    22  H    4.073145   2.767036   2.466601   2.157378   1.099223
    23  H    4.630046   3.355467   3.888357   2.829406   2.159432
    24  H    5.343337   3.888526   3.929205   3.484225   2.170608
    25  H    4.612770   3.427745   3.611361   3.941888   3.483076
    26  H    3.981942   2.697945   2.355131   3.345443   2.825489
    27  H    4.073448   4.065779   5.100881   4.349304   5.185588
                   11         12         13         14         15
    11  C    0.000000
    12  C    1.528494   0.000000
    13  C    2.516647   1.533922   0.000000
    14  H    3.470166   2.166703   1.101804   0.000000
    15  N    2.887796   2.401869   1.457958   2.107054   0.000000
    16  C    4.118503   3.620182   2.362343   2.651179   1.295205
    17  H    6.154651   5.472451   3.980627   3.781997   4.166177
    18  H    4.932098   4.523178   3.387006   3.569627   4.094192
    19  H    2.828551   3.348102   2.737784   3.731833   2.579860
    20  H    3.489501   3.941267   3.465258   4.296384   3.944290
    21  H    2.170495   3.481411   3.927459   4.976971   4.189154
    22  H    2.163258   2.838085   3.408965   4.241172   4.266432
    23  H    1.095467   2.143238   2.772554   3.770944   2.549416
    24  H    1.096758   2.161345   3.468676   4.302747   3.879967
    25  H    2.165916   1.095782   2.157228   2.487021   2.623591
    26  H    2.168841   1.098450   2.161158   2.472308   3.358661
    27  H    4.743106   4.416538   3.343037   3.648265   2.025012
                   16         17         18         19         20
    16  C    0.000000
    17  H    3.422740   0.000000
    18  H    4.007712   2.306332   0.000000
    19  H    3.009060   4.344374   3.274850   0.000000
    20  H    4.368825   4.473956   2.593788   1.771896   0.000000
    21  H    5.110434   6.531033   4.884302   2.481431   2.520681
    22  H    5.255202   6.120037   4.225969   3.068289   2.466243
    23  H    3.719557   6.242019   5.312504   2.683520   3.835909
    24  H    5.144746   7.204909   5.885679   3.838000   4.320276
    25  H    3.829593   6.080396   5.439321   4.164554   4.978776
    26  H    4.477520   5.760224   4.571932   4.013734   4.157834
    27  H    1.094129   4.170181   4.969016   3.602875   5.148423
                   21         22         23         24         25
    21  H    0.000000
    22  H    1.765668   0.000000
    23  H    2.463404   3.062749   0.000000
    24  H    2.529360   2.464659   1.766368   0.000000
    25  H    4.310733   3.834930   2.451794   2.505544   0.000000
    26  H    3.835549   2.688069   3.058803   2.484975   1.769735
    27  H    5.675745   6.075691   4.120942   5.714038   4.465734
                   26         27
    26  H    0.000000
    27  H    5.367715   0.000000
 Symmetry turned off by external request.
 Stoichiometry    C9H13N3O2
 Framework group  C1[X(C9H13N3O2)]
 Deg. of freedom    75
 Full point group                 C1      NOp   1
 Rotational constants (GHZ):           1.6942475           0.4243065           0.3747041
 Standard basis: 6-31G(d) (6D, 7F)
   236 basis functions,   444 primitive gaussians,   236 cartesian basis functions
    52 alpha electrons       52 beta electrons
       nuclear repulsion energy       934.4746199571 Hartrees.
 NAtoms=   27 NActive=   27 NUniq=   27 SFac= 1.00D+00 NAtFMM=   60 NAOKFM=F Big=F
 Integral buffers will be    131072 words long.
 Raffenetti 1 integral format.
 Two-electron integral symmetry is turned off.
 One-electron integrals computed using PRISM.
 NBasis=   236 RedAO= T EigKep=  9.14D-04  NBF=   236
 NBsUse=   236 1.00D-06 EigRej= -1.00D+00 NBFU=   236
 Initial guess from the checkpoint file:  "/home/alexey/tmp/Gau-1202650.chk"
 B after Tr=     0.052969    0.010832   -0.000365
         Rot=    0.999996   -0.001711    0.000428    0.002293 Ang=  -0.33 deg.
 ExpMin= 1.61D-01 ExpMax= 5.48D+03 ExpMxC= 8.25D+02 IAcc=3 IRadAn=         5 AccDes= 0.00D+00
 Harris functional with IExCor=  205 and IRadAn=       5 diagonalized for initial guess.
 HarFok:  IExCor=  205 AccDes= 0.00D+00 IRadAn=         5 IDoV= 1 UseB2=F ITyADJ=14
 ICtDFT=  3500011 ScaDFX=  1.000000  1.000000  1.000000  1.000000
 FoFCou: FMM=F IPFlag=           0 FMFlag=      100000 FMFlg1=           0
         NFxFlg=           0 DoJE=T BraDBF=F KetDBF=T FulRan=T
         wScrn=  0.000000 ICntrl=       500 IOpCl=  0 I1Cent=   200000004 NGrid=           0
         NMat0=    1 NMatS0=      1 NMatT0=    0 NMatD0=    1 NMtDS0=    0 NMtDT0=    0
 Symmetry not used in FoFCou.
 Keep R1 ints in memory in canonical form, NReq=397720213.
 Requested convergence on RMS density matrix=1.00D-08 within 128 cycles.
 Requested convergence on MAX density matrix=1.00D-06.
 Requested convergence on             energy=1.00D-06.
 No special actions if energy rises.
 SCF Done:  E(RHF) =  -661.293489000     A.U. after   15 cycles
            NFock= 15  Conv=0.58D-08     -V/T= 2.0023
 ExpMin= 1.61D-01 ExpMax= 5.48D+03 ExpMxC= 8.25D+02 IAcc=3 IRadAn=         5 AccDes= 0.00D+00
 HarFok:  IExCor=  205 AccDes= 0.00D+00 IRadAn=         5 IDoV=-2 UseB2=F ITyADJ=14
 ICtDFT= 12500011 ScaDFX=  1.000000  1.000000  1.000000  1.000000
 Range of M.O.s used for correlation:    15   236
 NBasis=   236 NAE=    52 NBE=    52 NFC=    14 NFV=     0
 NROrb=    222 NOA=    38 NOB=    38 NVA=   184 NVB=   184
 Fully direct method using O(ONN) memory.
 JobTyp=1 Pass  1:  I=  15 to  52 NPSUse=  4 ParTrn=T ParDer=T DoDerP=T.
 Spin components of T(2) and E(2):
     alpha-alpha T2 =       0.9147105939D-01 E2=     -0.2729177691D+00
     alpha-beta  T2 =       0.4913347669D+00 E2=     -0.1488699703D+01
     beta-beta   T2 =       0.9147105939D-01 E2=     -0.2729177691D+00
 ANorm=    0.1293938517D+01
 E2 =    -0.2034535241D+01 EUMP2 =    -0.66332802424086D+03
          IDoAtm=111111111111111111111111111
          Differentiating once with respect to electric field.
                with respect to dipole field.
          Differentiating once with respect to nuclear coordinates.
 Keep R1 ints in memory in canonical form, NReq=397723379.
          There are     1 degrees of freedom in the 1st order CPHF.  IDoFFX=0 NUNeed=     1.
 LinEq1:  Iter=  0 NonCon=     1 RMS=4.60D-03 Max=9.77D-02 NDo=     1
[...]
    27  H    4.713558   4.409944   3.349224   3.650649   2.022035
                   16         17         18         19         20
    16  C    0.000000
    17  H    3.414628   0.000000
    18  H    4.065127   2.235959   0.000000
    19  H    2.981959   4.287064   3.521040   0.000000
    20  H    4.366899   4.451888   2.905084   1.769230   0.000000
    21  H    5.092867   6.502410   5.102550   2.499191   2.520922
    22  H    5.245876   6.099663   4.328675   3.070105   2.462237
    23  H    3.697729   6.212294   5.423835   2.703330   3.843383
    24  H    5.137099   7.186250   5.942327   3.848885   4.317541
    25  H    3.828925   6.067826   5.363273   4.170476   4.986820
    26  H    4.498125   5.773134   4.483923   4.035867   4.184961
    27  H    1.090455   4.176437   5.064883   3.574249   5.141535
                   21         22         23         24         25
    21  H    0.000000
    22  H    1.758848   0.000000
    23  H    2.469304   3.062297   0.000000
    24  H    2.516841   2.459514   1.764820   0.000000
    25  H    4.312021   3.840468   2.443301   2.520154   0.000000
    26  H    3.847632   2.705947   3.060229   2.491959   1.768203
    27  H    5.642422   6.051437   4.079065   5.684352   4.445673
                   26         27
    26  H    0.000000
    27  H    5.370606   0.000000
 Symmetry turned off by external request.
 Stoichiometry    C9H13N3O2
 Framework group  C1[X(C9H13N3O2)]
 Deg. of freedom    75
 Full point group                 C1      NOp   1
 Rotational constants (GHZ):           1.6840717           0.4216710           0.3745376

 **********************************************************************

            Population analysis using the SCF Density.

 **********************************************************************

 Alpha  occ. eigenvalues --  -20.59406 -20.59061 -15.84810 -15.64394 -15.55670
 Alpha  occ. eigenvalues --  -11.35215 -11.29563 -11.28877 -11.28384 -11.26939
 Alpha  occ. eigenvalues --  -11.23695 -11.23155 -11.22567 -11.21988  -1.57278
 Alpha  occ. eigenvalues --   -1.36883  -1.31247  -1.22931  -1.15041  -1.09757
 Alpha  occ. eigenvalues --   -1.02811  -1.01153  -0.94608  -0.90298  -0.85531
 Alpha  occ. eigenvalues --   -0.82718  -0.78888  -0.77388  -0.75280  -0.72394
 Alpha  occ. eigenvalues --   -0.69900  -0.69494  -0.67858  -0.64756  -0.63744
 Alpha  occ. eigenvalues --   -0.62384  -0.60427  -0.57717  -0.56897  -0.55097
 Alpha  occ. eigenvalues --   -0.54461  -0.50714  -0.50248  -0.48740  -0.48096
 Alpha  occ. eigenvalues --   -0.47438  -0.46153  -0.45967  -0.43791  -0.41756
 Alpha  occ. eigenvalues --   -0.39671  -0.33502
 Alpha virt. eigenvalues --    0.07391   0.11433   0.17237   0.21905   0.24171
 Alpha virt. eigenvalues --    0.25842   0.27235   0.28805   0.29103   0.29769
 Alpha virt. eigenvalues --    0.30708   0.31903   0.32087   0.32857   0.34023
 Alpha virt. eigenvalues --    0.34482   0.36041   0.37370   0.38673   0.40700
 Alpha virt. eigenvalues --    0.41529   0.42660   0.44994   0.46190   0.47053
 Alpha virt. eigenvalues --    0.47426   0.49050   0.54283   0.57880   0.59981
 Alpha virt. eigenvalues --    0.64050   0.69723   0.70214   0.72973   0.74300
 Alpha virt. eigenvalues --    0.74876   0.75864   0.76495   0.78831   0.79542
 Alpha virt. eigenvalues --    0.81542   0.84430   0.85910   0.86019   0.88645
 Alpha virt. eigenvalues --    0.89473   0.91288   0.92395   0.92854   0.94566
 Alpha virt. eigenvalues --    0.95711   0.98111   1.00128   1.01796   1.02513
 Alpha virt. eigenvalues --    1.03207   1.06022   1.07042   1.07934   1.09062
 Alpha virt. eigenvalues --    1.10182   1.11497   1.11891   1.12512   1.13996
 Alpha virt. eigenvalues --    1.14644   1.15050   1.15815   1.16994   1.18871
 Alpha virt. eigenvalues --    1.19237   1.21500   1.22943   1.23996   1.24957
 Alpha virt. eigenvalues --    1.25255   1.26152   1.27023   1.27931   1.30107
 Alpha virt. eigenvalues --    1.30319   1.33201   1.36001   1.37411   1.41017
 Alpha virt. eigenvalues --    1.41963   1.47019   1.48767   1.51514   1.54483
 Alpha virt. eigenvalues --    1.56617   1.59154   1.59609   1.63715   1.65487
 Alpha virt. eigenvalues --    1.67972   1.68758   1.73018   1.75488   1.77587
 Alpha virt. eigenvalues --    1.81986   1.84929   1.88217   1.90956   1.93588
 Alpha virt. eigenvalues --    1.95964   1.97921   1.99676   2.01258   2.02646
 Alpha virt. eigenvalues --    2.05284   2.05521   2.09314   2.09699   2.12362
 Alpha virt. eigenvalues --    2.13942   2.15961   2.19304   2.20125   2.22643
 Alpha virt. eigenvalues --    2.22877   2.24324   2.25549   2.28478   2.29724
 Alpha virt. eigenvalues --    2.31981   2.34046   2.35207   2.36588   2.38812
 Alpha virt. eigenvalues --    2.40782   2.42574   2.44596   2.44991   2.47421
 Alpha virt. eigenvalues --    2.50818   2.52652   2.53499   2.56076   2.61936
 Alpha virt. eigenvalues --    2.62467   2.65533   2.67832   2.70450   2.70857
 Alpha virt. eigenvalues --    2.72471   2.72726   2.77555   2.78449   2.83947
 Alpha virt. eigenvalues --    2.88939   2.89637   2.93181   2.94272   2.96268
 Alpha virt. eigenvalues --    2.99854   3.01651   3.04618   3.07302   3.08160
 Alpha virt. eigenvalues --    3.09708   3.15360   3.21286   3.25377   3.27527
 Alpha virt. eigenvalues --    3.33470   3.38065   3.39210   3.54161   3.69052
 Alpha virt. eigenvalues --    4.13880   4.27731   4.35115   4.39519   4.46748
 Alpha virt. eigenvalues --    4.57335   4.62374   4.63139   4.73645   4.79971
 Alpha virt. eigenvalues --    4.99989   5.01179   5.05917   5.11304
          Condensed to atoms (all electrons):
               1          2          3          4          5          6
     1  O    8.313094   0.308586  -0.083234  -0.085968   0.004702  -0.000015
     2  N    0.308586   5.728037   0.298959   0.265233  -0.053947   0.000993
     3  O   -0.083234   0.298959   8.355007  -0.091734   0.002362   0.000813
     4  C   -0.085968   0.265233  -0.091734   5.211673   0.555204  -0.047496
     5  C    0.004702  -0.053947   0.002362   0.555204   4.722239   0.320997
     6  N   -0.000015   0.000993   0.000813  -0.047496   0.320997   7.191091
     7  C    0.000004  -0.000145   0.000002   0.004706  -0.031114   0.167812
     8  H   -0.000000   0.000002  -0.000000  -0.000274   0.003198  -0.050766
     9  C   -0.000000  -0.000004  -0.000000   0.000970   0.000609  -0.060906
    10  C    0.000000   0.000000   0.000000  -0.000043  -0.000052   0.003700
    11  C   -0.000000  -0.000000  -0.000000  -0.000029   0.000027  -0.000192
    12  C   -0.000000   0.000002  -0.000000  -0.000168  -0.000187   0.003970
    13  C   -0.000025  -0.000049  -0.000004  -0.011244  -0.000820  -0.049395
    14  H   -0.000004  -0.000098   0.000001   0.002727   0.006723  -0.007583
    15  N    0.000382   0.002549  -0.000019  -0.064581  -0.007946   0.001688
    16  C    0.000286  -0.029522   0.002973   0.325017  -0.057969  -0.002053
    17  H    0.000227  -0.007578   0.017982  -0.022116   0.373141  -0.034006
    18  H    0.000001  -0.000051   0.000012   0.001545  -0.031547   0.338441
    19  H    0.000001  -0.000005   0.000000  -0.001410   0.001306  -0.000367
    20  H    0.000000  -0.000000   0.000000  -0.000089   0.000156  -0.000348
    21  H   -0.000000   0.000000   0.000000   0.000001   0.000001  -0.000076
    22  H   -0.000000   0.000000  -0.000000   0.000000  -0.000003  -0.000116
    23  H    0.000000  -0.000000   0.000000   0.000048   0.000000  -0.000031
    24  H    0.000000   0.000000   0.000000   0.000000  -0.000000   0.000006
    25  H    0.000000  -0.000000   0.000000   0.000025  -0.000001  -0.000092
    26  H    0.000000  -0.000000   0.000000   0.000008  -0.000002  -0.000060
    27  H    0.006716  -0.001969   0.000037  -0.067473   0.002600   0.000007
               7          8          9         10         11         12
     1  O    0.000004  -0.000000  -0.000000   0.000000  -0.000000  -0.000000
     2  N   -0.000145   0.000002  -0.000004   0.000000  -0.000000   0.000002
     3  O    0.000002  -0.000000  -0.000000   0.000000  -0.000000  -0.000000
     4  C    0.004706  -0.000274   0.000970  -0.000043  -0.000029  -0.000168
     5  C   -0.031114   0.003198   0.000609  -0.000052   0.000027  -0.000187
     6  N    0.167812  -0.050766  -0.060906   0.003700  -0.000192   0.003970
     7  C    5.027984   0.417171   0.350829  -0.054766  -0.009192  -0.061215
     8  H    0.417171   0.538146  -0.054562   0.000723  -0.000287  -0.002210
     9  C    0.350829  -0.054562   5.156557   0.325382  -0.050375  -0.005270
    10  C   -0.054766   0.000723   0.325382   5.118508   0.337247  -0.060943
    11  C   -0.009192  -0.000287  -0.050375   0.337247   5.119341   0.336405
    12  C   -0.061215  -0.002210  -0.005270  -0.060943   0.336405   5.117145
    13  C    0.336437  -0.037144  -0.060648  -0.000222  -0.050590   0.372324
    14  H   -0.048037  -0.000588   0.004418  -0.000402   0.004224  -0.036148
    15  N   -0.058967   0.003926  -0.015194   0.001540  -0.013279  -0.082375
    16  C   -0.001787  -0.000002  -0.001300  -0.000033   0.000031   0.002669
    17  H    0.001583  -0.000043  -0.000069   0.000001   0.000000   0.000000
    18  H   -0.020979  -0.004516   0.001379  -0.000083   0.000004  -0.000115
    19  H   -0.037085   0.004370   0.390133  -0.031936  -0.002191   0.000670
    20  H   -0.042528  -0.002066   0.399098  -0.035242   0.003922  -0.000424
    21  H    0.004622  -0.000077  -0.036440   0.402486  -0.034868   0.004347
    22  H   -0.004875   0.003555  -0.047000   0.397670  -0.045404  -0.000983
    23  H    0.000600   0.000033  -0.001977  -0.038901   0.399070  -0.037665
    24  H   -0.000133  -0.000100   0.004401  -0.038580   0.402234  -0.038795
    25  H    0.005186  -0.000032  -0.000418   0.004187  -0.033332   0.398034
    26  H   -0.003862   0.001670   0.000966  -0.002215  -0.041672   0.396684
    27  H   -0.000420   0.000009  -0.000063   0.000007   0.000012  -0.000034
              13         14         15         16         17         18
     1  O   -0.000025  -0.000004   0.000382   0.000286   0.000227   0.000001
     2  N   -0.000049  -0.000098   0.002549  -0.029522  -0.007578  -0.000051
     3  O   -0.000004   0.000001  -0.000019   0.002973   0.017982   0.000012
     4  C   -0.011244   0.002727  -0.064581   0.325017  -0.022116   0.001545
     5  C   -0.000820   0.006723  -0.007946  -0.057969   0.373141  -0.031547
     6  N   -0.049395  -0.007583   0.001688  -0.002053  -0.034006   0.338441
     7  C    0.336437  -0.048037  -0.058967  -0.001787   0.001583  -0.020979
     8  H   -0.037144  -0.000588   0.003926  -0.000002  -0.000043  -0.004516
     9  C   -0.060648   0.004418  -0.015194  -0.001300  -0.000069   0.001379
    10  C   -0.000222  -0.000402   0.001540  -0.000033   0.000001  -0.000083
    11  C   -0.050590   0.004224  -0.013279   0.000031   0.000000   0.000004
    12  C    0.372324  -0.036148  -0.082375   0.002669   0.000000  -0.000115
    13  C    5.043023   0.402884   0.247530  -0.072764  -0.000003   0.002986
    14  H    0.402884   0.531508  -0.037730  -0.004718   0.000094  -0.000119
    15  N    0.247530  -0.037730   6.976187   0.585894  -0.000065  -0.000137
    16  C   -0.072764  -0.004718   0.585894   4.742394   0.002177  -0.000221
    17  H   -0.000003   0.000094  -0.000065   0.002177   0.373404  -0.002813
    18  H    0.002986  -0.000119  -0.000137  -0.000221  -0.002813   0.309565
    19  H   -0.007466   0.000117   0.008052   0.003042   0.000016  -0.000150
    20  H    0.004351  -0.000065   0.000149  -0.000038   0.000002   0.000752
    21  H   -0.000432   0.000010  -0.000046   0.000004  -0.000000   0.000001
    22  H    0.000016  -0.000055   0.000020  -0.000002   0.000000   0.000001
    23  H   -0.007657   0.000005   0.008802   0.000116   0.000000   0.000000
    24  H    0.004721  -0.000056   0.000149   0.000007   0.000000  -0.000000
    25  H   -0.035396  -0.002829   0.000511  -0.000020  -0.000000   0.000002
    26  H   -0.047613  -0.001045   0.004915  -0.000065   0.000000   0.000000
    27  H    0.005231  -0.000161  -0.040291   0.406370  -0.000086   0.000001
              19         20         21         22         23         24
     1  O    0.000001   0.000000  -0.000000  -0.000000   0.000000   0.000000
     2  N   -0.000005  -0.000000   0.000000   0.000000  -0.000000   0.000000
     3  O    0.000000   0.000000   0.000000  -0.000000   0.000000   0.000000
     4  C   -0.001410  -0.000089   0.000001   0.000000   0.000048   0.000000
     5  C    0.001306   0.000156   0.000001  -0.000003   0.000000  -0.000000
     6  N   -0.000367  -0.000348  -0.000076  -0.000116  -0.000031   0.000006
     7  C   -0.037085  -0.042528   0.004622  -0.004875   0.000600  -0.000133
     8  H    0.004370  -0.002066  -0.000077   0.003555   0.000033  -0.000100
     9  C    0.390133   0.399098  -0.036440  -0.047000  -0.001977   0.004401
    10  C   -0.031936  -0.035242   0.402486   0.397670  -0.038901  -0.038580
    11  C   -0.002191   0.003922  -0.034868  -0.045404   0.399070   0.402234
    12  C    0.000670  -0.000424   0.004347  -0.000983  -0.037665  -0.038795
    13  C   -0.007466   0.004351  -0.000432   0.000016  -0.007657   0.004721
    14  H    0.000117  -0.000065   0.000010  -0.000055   0.000005  -0.000056
    15  N    0.008052   0.000149  -0.000046   0.000020   0.008802   0.000149
    16  C    0.003042  -0.000038   0.000004  -0.000002   0.000116   0.000007
    17  H    0.000016   0.000002  -0.000000   0.000000   0.000000   0.000000
    18  H   -0.000150   0.000752   0.000001   0.000001   0.000000  -0.000000
    19  H    0.504262  -0.024744  -0.002802   0.003960   0.001508  -0.000065
    20  H   -0.024744   0.541889  -0.002690  -0.002995  -0.000045  -0.000082
    21  H   -0.002802  -0.002690   0.524229  -0.027444  -0.002890  -0.002250
    22  H    0.003960  -0.002995  -0.027444   0.571838   0.004131  -0.003670
    23  H    0.001508  -0.000045  -0.002890   0.004131   0.498022  -0.025472
    24  H   -0.000065  -0.000082  -0.002250  -0.003670  -0.025472   0.539138
    25  H   -0.000029   0.000012  -0.000086  -0.000081  -0.002318  -0.002286
    26  H    0.000019  -0.000030  -0.000081   0.002386   0.004072  -0.003042
    27  H    0.000097   0.000000  -0.000000   0.000000  -0.000038  -0.000000
              25         26         27
     1  O    0.000000   0.000000   0.006716
     2  N   -0.000000  -0.000000  -0.001969
     3  O    0.000000   0.000000   0.000037
     4  C    0.000025   0.000008  -0.067473
     5  C   -0.000001  -0.000002   0.002600
     6  N   -0.000092  -0.000060   0.000007
     7  C    0.005186  -0.003862  -0.000420
     8  H   -0.000032   0.001670   0.000009
     9  C   -0.000418   0.000966  -0.000063
    10  C    0.004187  -0.002215   0.000007
    11  C   -0.033332  -0.041672   0.000012
    12  C    0.398034   0.396684  -0.000034
    13  C   -0.035396  -0.047613   0.005231
    14  H   -0.002829  -0.001045  -0.000161
    15  N    0.000511   0.004915  -0.040291
    16  C   -0.000020  -0.000065   0.406370
    17  H   -0.000000   0.000000  -0.000086
    18  H    0.000002   0.000000   0.000001
    19  H   -0.000029   0.000019   0.000097
    20  H    0.000012  -0.000030   0.000000
    21  H   -0.000086  -0.000081  -0.000000
    22  H   -0.000081   0.002386   0.000000
    23  H   -0.002318   0.004072  -0.000038
    24  H   -0.002286  -0.003042  -0.000000
    25  H    0.506502  -0.024194  -0.000014
    26  H   -0.024194   0.563963   0.000001
    27  H   -0.000014   0.000001   0.439538
 Mulliken charges:
               1
     1  O   -0.464751
     2  N    0.489007
     3  O   -0.503158
     4  C    0.025467
     5  C    0.190323
     6  N   -0.776016
     7  C    0.058171
     8  H    0.179863
     9  C   -0.300516
    10  C   -0.328034
    11  C   -0.321106
    12  C   -0.305721
    13  C   -0.038031
    14  H    0.186928
    15  N   -0.521664
    16  C    0.099514
    17  H    0.298151
    18  H    0.406041
    19  H    0.190698
    20  H    0.161054
    21  H    0.174482
    22  H    0.149050
    23  H    0.200583
    24  H    0.163874
    25  H    0.186668
    26  H    0.149197
    27  H    0.249924
 Sum of Mulliken charges =  -0.00000
 Mulliken charges with hydrogens summed into heavy atoms:
               1
     1  O   -0.464751
     2  N    0.489007
     3  O   -0.503158
     4  C    0.025467
     5  C    0.488474
     6  N   -0.369975
     7  C    0.238034
     9  C    0.051236
    10  C   -0.004502
    11  C    0.043352
    12  C    0.030145
    13  C    0.148897
    15  N   -0.521664
    16  C    0.349437
 Electronic spatial extent (au):  <R**2>=           2989.8840
 Charge=              0.0000 electrons
 Dipole moment (field-independent basis, Debye):
    X=              5.2422    Y=              4.9139    Z=              1.3678  Tot=              7.3142
 Quadrupole moment (field-independent basis, Debye-Ang):
   XX=           -105.6951   YY=            -79.2835   ZZ=            -81.4642
   XY=             -1.7845   XZ=             -0.4296   YZ=              1.9436
 Traceless Quadrupole moment (field-independent basis, Debye-Ang):
   XX=            -16.8808   YY=              9.5308   ZZ=              7.3500
   XY=             -1.7845   XZ=             -0.4296   YZ=              1.9436
 Octapole moment (field-independent basis, Debye-Ang**2):
  XXX=             88.7979  YYY=             36.3386  ZZZ=             -0.9299  XYY=             -4.9081
  XXY=              9.5204  XXZ=              5.9585  XZZ=            -10.1689  YZZ=             -0.0953
  YYZ=              8.6391  XYZ=              0.3023
 Hexadecapole moment (field-independent basis, Debye-Ang**3):
 XXXX=          -3354.3333 YYYY=           -597.9461 ZZZZ=           -305.6995 XXXY=            -22.6901
 XXXZ=            -21.2248 YYYX=            -11.0559 YYYZ=             25.1925 ZZZX=             -2.3969
 ZZZY=              6.6922 XXYY=           -623.7299 XXZZ=           -521.3780 YYZZ=           -156.7697
 XXYZ=             -4.1664 YYXZ=             -0.3022 ZZXY=              3.7683
 N-N= 9.334102702789D+02 E-N=-3.413628285287D+03  KE= 6.597497685952D+02
 Unable to Open any file for archive entry.
 1\1\GINC-LOTUS\FOpt\RMP2-FC\6-31G(d)\C9H13N3O2\ALEXEY\30-Jun-2023\0\\#
 MP2/6-31G* SCF=Tight Opt=(ModRedun, MaxCycle=20 ) NoSymm\\MolName:\\0,
 1\O,-3.4978180201,-1.3951947549,-0.3927843378\N,-3.105363219,-0.240180
 5912,-0.1397175863\O,-3.8743455394,0.7258604327,0.0275441738\C,-1.6631
 990321,-0.0403154453,-0.0214614354\C,-1.2925606089,1.2483150025,0.2816
 074041\N,-0.0551249928,1.7498757252,0.3989283313\C,1.2102417616,1.0307
 857685,0.3635882001\H,1.8611542267,1.5627916228,1.0739073683\C,1.90540
 90001,1.0372954743,-0.9960465032\C,3.3017837848,0.4241704923,-0.837649
 2883\C,3.2510866786,-0.9708735103,-0.2086211546\C,2.4627589391,-0.9769
 970325,1.1029133945\C,1.054644384,-0.417358795,0.8711374683\H,0.481058
 0665,-0.3906993959,1.8116542084\N,0.4019142507,-1.3043619855,-0.084466
 2224\C,-0.8510939505,-1.1117397044,-0.3745118832\H,-2.0952201291,1.965
 5354917,0.4268708896\H,-0.0059358266,2.732542105,0.6415905614\H,1.3046
 899413,0.4598219341,-1.7067548547\H,1.9738069485,2.0640276526,-1.37663
 13439\H,3.8004271272,0.3822744747,-1.8127647153\H,3.9078848026,1.08890
 59929,-0.2056961627\H,2.7666972502,-1.6664654528,-0.9008823488\H,4.269
 8818915,-1.337934274,-0.0365370374\H,2.3747901996,-1.998281376,1.48784
 68193\H,2.9790384819,-0.3805824259,1.8679474626\H,-1.305586416,-1.8782
 274258,-1.0030214075\\Version=ES64L-G16RevC.02\HF=-661.2964163\MP2=-66
 3.3322142\RMSD=5.482e-09\RMSF=7.162e-03\Dipole=1.925312,1.7343062,0.50
 1556\PG=C01 [X(C9H13N3O2)]\\@
 The archive entry for this job was punched.


 ONLY THE DAY DAWNS TO WHICH YOU ARE AWAKE.

                                 -- THOREAU
 Job cpu time:       0 days  1 hours 31 minutes 17.8 seconds.
 Elapsed time:       0 days  0 hours 27 minutes 11.1 seconds.
 File lengths (MBytes):  RWF=     36 Int=      0 D2E=      0 Chk=      7 Scr=      1
 Normal termination of Gaussian 16 at Fri Jun 30 20:55:02 2023.
