 Entering Gaussian System, Link 0=g16
 Initial command:
 /home/alexey/programs//g16/l1.exe "/home/alexey/tmp/Gau-1357864.inp" -scrdir="/home/alexey/tmp/"
 Entering Link 1 = /home/alexey/programs//g16/l1.exe PID=   1357866.
  
 Copyright (c) 1988-2021, Gaussian, Inc.  All Rights Reserved.
  
 This is part of the Gaussian(R) 16 program.  It is based on
 the Gaussian(R) 09 system (copyright 2009, Gaussian, Inc.),
 the Gaussian(R) 03 system (copyright 2003, Gaussian, Inc.),
 the Gaussian(R) 98 system (copyright 1998, Gaussian, Inc.),
 the Gaussian(R) 94 system (copyright 1995, Gaussian, Inc.),
 the Gaussian 92(TM) system (copyright 1992, Gaussian, Inc.),
 the Gaussian 90(TM) system (copyright 1990, Gaussian, Inc.),
 the Gaussian 88(TM) system (copyright 1988, Gaussian, Inc.),
 the Gaussian 86(TM) system (copyright 1986, Carnegie Mellon
 University), and the Gaussian 82(TM) system (copyright 1983,
 Carnegie Mellon University). Gaussian is a federally registered
 trademark of Gaussian, Inc.
  
 This software contains proprietary and confidential information,
 including trade secrets, belonging to Gaussian, Inc.
  
 This software is provided under written license and may be
 used, copied, transmitted, or stored only in accord with that
 written license.
  
 The following legend is applicable only to US Government
 contracts under FAR:
  
                    RESTRICTED RIGHTS LEGEND
  
 Use, reproduction and disclosure by the US Government is
 subject to restrictions as set forth in subparagraphs (a)
 and (c) of the Commercial Computer Software - Restricted
 Rights clause in FAR 52.227-19.
  
 Gaussian, Inc.
 340 Quinnipiac St., Bldg. 40, Wallingford CT 06492
  
  
 ---------------------------------------------------------------
 Warning -- This program may not be used in any manner that
 competes with the business of Gaussian, Inc. or will provide
 assistance to any competitor of Gaussian, Inc.  The licensee
 of this program is prohibited from giving any competitor of
 Gaussian, Inc. access to this program.  By using this program,
 the user acknowledges that Gaussian, Inc. is engaged in the
 business of creating and licensing software in the field of
 computational chemistry and represents and warrants to the
 licensee that it is not a competitor of Gaussian, Inc. and that
 it will not use this program in any manner prohibited above.
 ---------------------------------------------------------------
  

 Cite this work as:
 Gaussian 16, Revision C.02,
 M. J. Frisch, G. W. Trucks, H. B. Schlegel, G. E. Scuseria, 
 M. A. Robb, J. R. Cheeseman, G. Scalmani, V. Barone, 
 G. A. Petersson, H. Nakatsuji, X. Li, M. Caricato, A. V. Marenich, 
 J. Bloino, B. G. Janesko, R. Gomperts, B. Mennucci, H. P. Hratchian, 
 J. V. Ortiz, A. F. Izmaylov, J. L. Sonnenberg, D. Williams-Young, 
 F. Ding, F. Lipparini, F. Egidi, J. Goings, B. Peng, A. Petrone, 
 T. Henderson, D. Ranasinghe, V. G. Zakrzewski, J. Gao, N. Rega, 
 G. Zheng, W. Liang, M. Hada, M. Ehara, K. Toyota, R. Fukuda, 
 J. Hasegawa, M. Ishida, T. Nakajima, Y. Honda, O. Kitao, H. Nakai, 
 T. Vreven, K. Throssell, J. A. Montgomery, Jr., J. E. Peralta, 
 F. Ogliaro, M. J. Bearpark, J. J. Heyd, E. N. Brothers, K. N. Kudin, 
 V. N. Staroverov, T. A. Keith, R. Kobayashi, J. Normand, 
 K. Raghavachari, A. P. Rendell, J. C. Burant, S. S. Iyengar, 
 J. Tomasi, M. Cossi, J. M. Millam, M. Klene, C. Adamo, R. Cammi, 
 J. W. Ochterski, R. L. Martin, K. Morokuma, O. Farkas, 
 J. B. Foresman, and D. J. Fox, Gaussian, Inc., Wallingford CT, 2019.
 
 ******************************************
 Gaussian 16:  ES64L-G16RevC.02  7-Dec-2021
                 1-Jul-2023 
 ******************************************
 %mem=8GB
 %NPROCS=4
 Will use up to    4 processors via shared memory.
 %NoSave
 ---------------------------------------------------------
 #MP2/6-31G* SCF=Tight Opt=(ModRedun, MaxCycle=20 ) NoSymm
 ---------------------------------------------------------
 1/6=20,18=120,19=15,38=1/1,3;
 2/9=110,12=2,15=1,17=6,18=5,40=1/2;
 3/5=1,6=6,7=1,11=9,25=1,30=1,71=1/1,2,3;
 4//1;
 5/5=2,32=2,38=5/2;
 8/6=4,10=2/1;
 9/15=2,16=-3/6;
 10/5=1,31=1/2;
 6/7=2,8=2,9=2,10=2/1;
 7/12=2,30=1/1,2,3,16;
 1/6=20,18=20,19=15/3(2);
 2/9=110,15=1/2;
 99//99;
 2/9=110,15=1/2;
 3/5=1,6=6,7=1,11=9,25=1,30=1,71=1/1,2,3;
 4/5=5,16=3,69=1/1;
 5/5=2,32=2,38=5/2;
 8/6=4,10=2/1;
 9/15=2,16=-3/6;
 10/5=1,31=1/2;
 7/12=2,30=1/1,2,3,16;
 1/6=20,18=20,19=15/3(-8);
 2/9=110,15=1/2;
 6/7=2,8=2,9=2,10=2/1;
 99/9=10/99;
 --------
 MolName:
 --------
 Symbolic Z-matrix:
 Charge =  0 Multiplicity = 1
 8                    0    -3.55865  -1.50801  -0.21574 
 7                    0    -3.21819  -0.334    -0.05971 
 8                    0    -4.02332   0.58525   0.08532 
 6                    0    -1.7307    0.05772  -0.03614 
 6                    0    -1.36003   1.36499   0.27297 
 7                    0    -0.06836   1.79905   0.41053 
 6                    0     1.19997   1.00501   0.37322 
 1                    0     1.87376   1.49111   1.12556 
 6                    0     1.95712   1.05391  -0.97738 
 6                    0     3.36474   0.45341  -0.79933 
 6                    0     3.29393  -0.96428  -0.21021 
 6                    0     2.45393  -0.99537   1.0846 
 6                    0     1.01967  -0.44871   0.84663 
 1                    0     0.47646  -0.48519   1.81992 
 7                    0     0.3501   -1.3173   -0.12834 
 6                    0    -0.89232  -1.11253  -0.41927 
 1                    0    -2.15584   2.10151   0.47263 
 1                    0     0.17972   2.78024   0.26178 
 1                    0     1.39715   0.48466  -1.74967 
 1                    0     2.05119   2.10415  -1.32639 
 1                    0     3.8929    0.42838  -1.77761 
 1                    0     3.95239   1.09915  -0.10915 
 1                    0     2.83602  -1.64673  -0.96144 
 1                    0     4.32005  -1.33797  -0.00117 
 1                    0     2.39     -2.04227   1.45431 
 1                    0     2.95709  -0.39012   1.86749 
 1                    0    -1.39778  -1.86306  -1.0464 
 
 The following ModRedundant input section has been read:
 A       2       4      16 F                                                   
 D       1       2       4      16 F                                           
 D       7      13      15      16 F                                           
 D       7       9      10      11 F                                           
 D       9      10      11      12 F                                           
 D       6       7      13      15 F                                           
 

 GradGradGradGradGradGradGradGradGradGradGradGradGradGradGradGradGradGrad
 Berny optimization.
 Initialization pass.
                           ----------------------------
                           !    Initial Parameters    !
                           ! (Angstroms and Degrees)  !
 --------------------------                            --------------------------
 ! Name  Definition              Value          Derivative Info.                !
 --------------------------------------------------------------------------------
 ! R1    R(1,2)                  1.2323         estimate D2E/DX2                !
 ! R2    R(2,3)                  1.2306         estimate D2E/DX2                !
 ! R3    R(2,4)                  1.5384         estimate D2E/DX2                !
 ! R4    R(4,5)                  1.3935         estimate D2E/DX2                !
 ! R5    R(4,16)                 1.4897         estimate D2E/DX2                !
 ! R6    R(5,6)                  1.3696         estimate D2E/DX2                !
 ! R7    R(5,17)                 1.1026         estimate D2E/DX2                !
 ! R8    R(6,7)                  1.4968         estimate D2E/DX2                !
 ! R9    R(6,18)                 1.0229         estimate D2E/DX2                !
 ! R10   R(7,8)                  1.1208         estimate D2E/DX2                !
 ! R11   R(7,9)                  1.5491         estimate D2E/DX2                !
 ! R12   R(7,13)                 1.5395         estimate D2E/DX2                !
 ! R13   R(9,10)                 1.5407         estimate D2E/DX2                !
 ! R14   R(9,19)                 1.1109         estimate D2E/DX2                !
 ! R15   R(9,20)                 1.1107         estimate D2E/DX2                !
 ! R16   R(10,11)                1.5369         estimate D2E/DX2                !
 ! R17   R(10,21)                1.112          estimate D2E/DX2                !
 ! R18   R(10,22)                1.113          estimate D2E/DX2                !
 ! R19   R(11,12)                1.5437         estimate D2E/DX2                !
 ! R20   R(11,23)                1.1134         estimate D2E/DX2                !
 ! R21   R(11,24)                1.1119         estimate D2E/DX2                !
 ! R22   R(12,13)                1.5532         estimate D2E/DX2                !
 ! R23   R(12,25)                1.1121         estimate D2E/DX2                !
 ! R24   R(12,26)                1.1101         estimate D2E/DX2                !
 ! R25   R(13,14)                1.1152         estimate D2E/DX2                !
 ! R26   R(13,15)                1.4674         estimate D2E/DX2                !
 ! R27   R(15,16)                1.2924         estimate D2E/DX2                !
 ! R28   R(16,27)                1.1009         estimate D2E/DX2                !
 ! A1    A(1,2,3)              123.0821         estimate D2E/DX2                !
 ! A2    A(1,2,4)              120.7749         estimate D2E/DX2                !
 ! A3    A(3,2,4)              116.143          estimate D2E/DX2                !
 ! A4    A(2,4,5)              119.9646         estimate D2E/DX2                !
 ! A5    A(2,4,16)             109.8891         Frozen                          !
 ! A6    A(5,4,16)             130.113          estimate D2E/DX2                !
 ! A7    A(4,5,6)              124.7821         estimate D2E/DX2                !
 ! A8    A(4,5,17)             118.349          estimate D2E/DX2                !
 ! A9    A(6,5,17)             116.7966         estimate D2E/DX2                !
 ! A10   A(5,6,7)              128.9401         estimate D2E/DX2                !
 ! A11   A(5,6,18)             121.2056         estimate D2E/DX2                !
 ! A12   A(7,6,18)             107.44           estimate D2E/DX2                !
 ! A13   A(6,7,8)              105.223          estimate D2E/DX2                !
 ! A14   A(6,7,9)              114.7796         estimate D2E/DX2                !
 ! A15   A(6,7,13)             113.2053         estimate D2E/DX2                !
 ! A16   A(8,7,9)              106.123          estimate D2E/DX2                !
 ! A17   A(8,7,13)             105.8743         estimate D2E/DX2                !
 ! A18   A(9,7,13)             110.8032         estimate D2E/DX2                !
 ! A19   A(7,9,10)             109.4807         estimate D2E/DX2                !
 ! A20   A(7,9,19)             110.0943         estimate D2E/DX2                !
 ! A21   A(7,9,20)             110.1939         estimate D2E/DX2                !
 ! A22   A(10,9,19)            109.9476         estimate D2E/DX2                !
 ! A23   A(10,9,20)            109.1159         estimate D2E/DX2                !
 ! A24   A(19,9,20)            107.9857         estimate D2E/DX2                !
 ! A25   A(9,10,11)            111.2074         estimate D2E/DX2                !
 ! A26   A(9,10,21)            109.9402         estimate D2E/DX2                !
 ! A27   A(9,10,22)            109.1434         estimate D2E/DX2                !
 ! A28   A(11,10,21)           109.776          estimate D2E/DX2                !
 ! A29   A(11,10,22)           108.7736         estimate D2E/DX2                !
 ! A30   A(21,10,22)           107.9284         estimate D2E/DX2                !
 ! A31   A(10,11,12)           111.4179         estimate D2E/DX2                !
 ! A32   A(10,11,23)           109.0088         estimate D2E/DX2                !
 ! A33   A(10,11,24)           109.8512         estimate D2E/DX2                !
 ! A34   A(12,11,23)           109.2551         estimate D2E/DX2                !
 ! A35   A(12,11,24)           109.7374         estimate D2E/DX2                !
 ! A36   A(23,11,24)           107.4808         estimate D2E/DX2                !
 ! A37   A(11,12,13)           111.5222         estimate D2E/DX2                !
 ! A38   A(11,12,25)           109.2127         estimate D2E/DX2                !
 ! A39   A(11,12,26)           109.5056         estimate D2E/DX2                !
 ! A40   A(13,12,25)           109.218          estimate D2E/DX2                !
 ! A41   A(13,12,26)           109.5532         estimate D2E/DX2                !
 ! A42   A(25,12,26)           107.7489         estimate D2E/DX2                !
 ! A43   A(7,13,12)            105.7424         estimate D2E/DX2                !
 ! A44   A(7,13,14)            110.8743         estimate D2E/DX2                !
 ! A45   A(7,13,15)            114.0838         estimate D2E/DX2                !
 ! A46   A(12,13,14)           107.7313         estimate D2E/DX2                !
 ! A47   A(12,13,15)           108.3491         estimate D2E/DX2                !
 ! A48   A(14,13,15)           109.7696         estimate D2E/DX2                !
 ! A49   A(13,15,16)           119.6329         estimate D2E/DX2                !
 ! A50   A(4,16,15)            127.4176         estimate D2E/DX2                !
 ! A51   A(4,16,27)            115.0653         estimate D2E/DX2                !
 ! A52   A(15,16,27)           117.4899         estimate D2E/DX2                !
 ! D1    D(1,2,4,5)           -173.633          estimate D2E/DX2                !
 ! D2    D(1,2,4,16)             8.258          Frozen                          !
 ! D3    D(3,2,4,5)              6.3344         estimate D2E/DX2                !
 ! D4    D(3,2,4,16)          -171.7746         estimate D2E/DX2                !
 ! D5    D(2,4,5,6)            175.3784         estimate D2E/DX2                !
 ! D6    D(2,4,5,17)            -1.4244         estimate D2E/DX2                !
 ! D7    D(16,4,5,6)            -6.947          estimate D2E/DX2                !
 ! D8    D(16,4,5,17)          176.2503         estimate D2E/DX2                !
 ! D9    D(2,4,16,15)         -156.7004         estimate D2E/DX2                !
 ! D10   D(2,4,16,27)           25.257          estimate D2E/DX2                !
 ! D11   D(5,4,16,15)           25.4418         estimate D2E/DX2                !
 ! D12   D(5,4,16,27)         -152.6008         estimate D2E/DX2                !
 ! D13   D(4,5,6,7)             -5.0814         estimate D2E/DX2                !
 ! D14   D(4,5,6,18)           154.9687         estimate D2E/DX2                !
 ! D15   D(17,5,6,7)           171.7663         estimate D2E/DX2                !
 ! D16   D(17,5,6,18)          -28.1836         estimate D2E/DX2                !
 ! D17   D(5,6,7,8)           -143.9488         estimate D2E/DX2                !
 ! D18   D(5,6,7,9)             99.7809         estimate D2E/DX2                !
 ! D19   D(5,6,7,13)           -28.7925         estimate D2E/DX2                !
 ! D20   D(18,6,7,8)            53.8631         estimate D2E/DX2                !
 ! D21   D(18,6,7,9)           -62.4072         estimate D2E/DX2                !
 ! D22   D(18,6,7,13)          169.0194         estimate D2E/DX2                !
 ! D23   D(6,7,9,10)           168.3301         estimate D2E/DX2                !
 ! D24   D(6,7,9,19)           -70.6897         estimate D2E/DX2                !
 ! D25   D(6,7,9,20)            48.3153         estimate D2E/DX2                !
 ! D26   D(8,7,9,10)            52.5773         estimate D2E/DX2                !
 ! D27   D(8,7,9,19)           173.5575         estimate D2E/DX2                !
 ! D28   D(8,7,9,20)           -67.4376         estimate D2E/DX2                !
 ! D29   D(13,7,9,10)          -61.9049         estimate D2E/DX2                !
 ! D30   D(13,7,9,19)           59.0753         estimate D2E/DX2                !
 ! D31   D(13,7,9,20)          178.0802         estimate D2E/DX2                !
 ! D32   D(6,7,13,12)         -166.0143         estimate D2E/DX2                !
 ! D33   D(6,7,13,14)          -49.5175         estimate D2E/DX2                !
 ! D34   D(6,7,13,15)           75.0218         Frozen                          !
 ! D35   D(8,7,13,12)          -51.2472         estimate D2E/DX2                !
 ! D36   D(8,7,13,14)           65.2496         estimate D2E/DX2                !
 ! D37   D(8,7,13,15)         -170.2111         estimate D2E/DX2                !
 ! D38   D(9,7,13,12)           63.391          estimate D2E/DX2                !
 ! D39   D(9,7,13,14)          179.8878         estimate D2E/DX2                !
 ! D40   D(9,7,13,15)          -55.5729         estimate D2E/DX2                !
 ! D41   D(7,9,10,11)           54.812          Frozen                          !
 ! D42   D(7,9,10,21)          176.604          estimate D2E/DX2                !
 ! D43   D(7,9,10,22)          -65.1952         estimate D2E/DX2                !
 ! D44   D(19,9,10,11)         -66.2571         estimate D2E/DX2                !
 ! D45   D(19,9,10,21)          55.5349         estimate D2E/DX2                !
 ! D46   D(19,9,10,22)         173.7357         estimate D2E/DX2                !
 ! D47   D(20,9,10,11)         175.4846         estimate D2E/DX2                !
 ! D48   D(20,9,10,21)         -62.7234         estimate D2E/DX2                !
 ! D49   D(20,9,10,22)          55.4774         estimate D2E/DX2                !
 ! D50   D(9,10,11,12)         -52.8223         Frozen                          !
 ! D51   D(9,10,11,23)          67.8283         estimate D2E/DX2                !
 ! D52   D(9,10,11,24)        -174.6452         estimate D2E/DX2                !
 ! D53   D(21,10,11,12)       -174.7098         estimate D2E/DX2                !
 ! D54   D(21,10,11,23)        -54.0592         estimate D2E/DX2                !
 ! D55   D(21,10,11,24)         63.4673         estimate D2E/DX2                !
 ! D56   D(22,10,11,12)         67.4039         estimate D2E/DX2                !
 ! D57   D(22,10,11,23)       -171.9455         estimate D2E/DX2                !
 ! D58   D(22,10,11,24)        -54.419          estimate D2E/DX2                !
 ! D59   D(10,11,12,13)         56.7525         estimate D2E/DX2                !
 ! D60   D(10,11,12,25)        177.5585         estimate D2E/DX2                !
 ! D61   D(10,11,12,26)        -64.6713         estimate D2E/DX2                !
 ! D62   D(23,11,12,13)        -63.7534         estimate D2E/DX2                !
 ! D63   D(23,11,12,25)         57.0525         estimate D2E/DX2                !
 ! D64   D(23,11,12,26)        174.8227         estimate D2E/DX2                !
 ! D65   D(24,11,12,13)        178.6413         estimate D2E/DX2                !
 ! D66   D(24,11,12,25)        -60.5527         estimate D2E/DX2                !
 ! D67   D(24,11,12,26)         57.2175         estimate D2E/DX2                !
 ! D68   D(11,12,13,7)         -60.551          estimate D2E/DX2                !
 ! D69   D(11,12,13,14)       -179.1581         estimate D2E/DX2                !
 ! D70   D(11,12,13,15)         62.1448         estimate D2E/DX2                !
 ! D71   D(25,12,13,7)         178.6461         estimate D2E/DX2                !
 ! D72   D(25,12,13,14)         60.039          estimate D2E/DX2                !
 ! D73   D(25,12,13,15)        -58.6581         estimate D2E/DX2                !
 ! D74   D(26,12,13,7)          60.8452         estimate D2E/DX2                !
 ! D75   D(26,12,13,14)        -57.7619         estimate D2E/DX2                !
 ! D76   D(26,12,13,15)       -176.4591         estimate D2E/DX2                !
 ! D77   D(7,13,15,16)         -67.1599         Frozen                          !
 ! D78   D(12,13,15,16)        175.3657         estimate D2E/DX2                !
 ! D79   D(14,13,15,16)         57.9674         estimate D2E/DX2                !
 ! D80   D(13,15,16,4)          10.1701         estimate D2E/DX2                !
 ! D81   D(13,15,16,27)       -171.8287         estimate D2E/DX2                !
 --------------------------------------------------------------------------------
 Trust Radius=3.00D-01 FncErr=1.00D-07 GrdErr=1.00D-07 EigMax=2.50D+02 EigMin=1.00D-04
 Number of steps in this run=     20 maximum allowed number of steps=    162.
 GradGradGradGradGradGradGradGradGradGradGradGradGradGradGradGradGradGrad

                          Input orientation:                          
 ---------------------------------------------------------------------
 Center     Atomic      Atomic             Coordinates (Angstroms)
 Number     Number       Type             X           Y           Z
 ---------------------------------------------------------------------
      1          8           0       -3.558650   -1.508010   -0.215740
      2          7           0       -3.218190   -0.334000   -0.059710
      3          8           0       -4.023320    0.585250    0.085320
      4          6           0       -1.730700    0.057720   -0.036140
      5          6           0       -1.360030    1.364990    0.272970
      6          7           0       -0.068360    1.799050    0.410530
      7          6           0        1.199970    1.005010    0.373220
      8          1           0        1.873760    1.491110    1.125560
      9          6           0        1.957120    1.053910   -0.977380
     10          6           0        3.364740    0.453410   -0.799330
     11          6           0        3.293930   -0.964280   -0.210210
     12          6           0        2.453930   -0.995370    1.084600
     13          6           0        1.019670   -0.448710    0.846630
     14          1           0        0.476460   -0.485190    1.819920
     15          7           0        0.350100   -1.317300   -0.128340
     16          6           0       -0.892320   -1.112530   -0.419270
     17          1           0       -2.155840    2.101510    0.472630
     18          1           0        0.179720    2.780240    0.261780
     19          1           0        1.397150    0.484660   -1.749670
     20          1           0        2.051190    2.104150   -1.326390
     21          1           0        3.892900    0.428380   -1.777610
     22          1           0        3.952390    1.099150   -0.109150
     23          1           0        2.836020   -1.646730   -0.961440
     24          1           0        4.320050   -1.337970   -0.001170
     25          1           0        2.390000   -2.042270    1.454310
     26          1           0        2.957090   -0.390120    1.867490
     27          1           0       -1.397780   -1.863060   -1.046400
 ---------------------------------------------------------------------
                    Distance matrix (angstroms):
                    1          2          3          4          5
     1  O    0.000000
     2  N    1.232298   0.000000
     3  O    2.165247   1.230564   0.000000
     4  C    2.413538   1.538384   2.355663   0.000000
     5  C    3.650602   2.539685   2.781424   1.393521   0.000000
     6  N    4.848813   3.833074   4.149793   2.448493   1.369577
     7  C    5.413558   4.636865   5.248032   3.107050   2.587129
     8  H    6.348613   5.537495   6.056256   4.049233   3.346672
     9  C    6.129213   5.436198   6.092178   3.934253   3.558599
    10  C    7.219493   6.670983   7.442004   5.167450   4.929935
    11  C    6.874120   6.544281   7.485354   5.130467   5.226692
    12  C    6.172909   5.824071   6.741787   4.458272   4.558106
    13  C    4.817859   4.335213   5.203885   2.932625   3.046566
    14  H    4.633809   4.148048   4.939909   2.934496   3.031322
    15  N    3.914376   3.701930   4.774112   2.495778   3.206287
    16  C    2.703173   2.478924   3.597253   1.489683   2.614585
    17  H    3.933238   2.709923   2.436501   2.148643   1.102560
    18  H    5.708986   4.620351   4.744962   3.339248   2.091384
    19  H    5.557304   4.982723   5.723531   3.591923   3.531019
    20  H    6.763989   5.942678   6.418696   4.489467   3.839366
    21  H    7.855867   7.355271   8.133982   5.898727   5.716239
    22  H    7.951375   7.312563   7.994615   5.778185   5.332775
    23  H    6.439497   6.260179   7.288895   4.961478   5.310467
    24  H    7.883455   7.605028   8.562598   6.209730   6.296384
    25  H    6.201688   6.054935   7.064607   4.859174   5.202664
    26  H    6.931406   6.469261   7.270048   5.079345   4.925488
    27  H    2.342096   2.574000   3.764103   2.195645   3.487473
                    6          7          8          9         10
     6  N    0.000000
     7  C    1.496848   0.000000
     8  H    2.092349   1.120849   0.000000
     9  C    2.565950   1.549125   2.149523   0.000000
    10  C    3.880810   2.522968   2.646704   1.540680   0.000000
    11  C    4.396169   2.933115   3.135300   2.539429   1.536854
    12  C    3.824278   2.465765   2.553597   2.949259   2.545139
    13  C    2.535038   1.539457   2.137796   2.542379   3.003724
    14  H    2.738788   2.199342   2.518004   3.519385   4.010437
    15  N    3.190161   2.523285   3.432342   2.987644   3.560013
    16  C    3.137639   3.080535   4.100810   3.622742   4.551832
    17  H    2.110192   3.531806   4.127539   4.485135   5.900078
    18  H    1.022939   2.050554   2.297334   2.770358   4.084660
    19  H    2.922637   2.194608   3.083350   1.110875   2.185299
    20  H    2.757258   2.195759   2.533645   1.110703   2.174431
    21  H    4.728454   3.494345   3.692522   2.186070   1.112030
    22  H    4.114166   2.795954   2.449254   2.176459   1.112952
    23  H    4.710746   3.389646   3.889416   2.840101   2.171730
    24  H    5.410040   3.919773   3.906091   3.501073   2.181449
    25  H    4.678541   3.445409   3.585994   3.960661   3.501061
    26  H    4.008559   2.695682   2.294143   3.343419   2.826597
    27  H    4.159453   4.121826   5.164382   4.446215   5.301761
                   11         12         13         14         15
    11  C    0.000000
    12  C    1.543729   0.000000
    13  C    2.560270   1.553245   0.000000
    14  H    3.505580   2.170568   1.115214   0.000000
    15  N    2.966051   2.449686   1.467426   2.122284   0.000000
    16  C    4.194088   3.670523   2.387230   2.698349   1.292354
    17  H    6.290098   5.587052   4.089910   3.928767   4.281257
    18  H    4.893108   4.483781   3.387283   3.630274   4.119594
    19  H    2.840271   3.367545   2.784680   3.811857   2.640471
    20  H    3.493640   3.947416   3.507584   4.368492   4.004416
    21  H    2.180598   3.505702   3.988906   5.044690   4.280061
    22  H    2.168300   2.838562   3.451120   4.279431   4.337752
    23  H    1.113448   2.180950   2.829045   3.827880   2.642419
    24  H    1.111874   2.186018   3.521655   4.337832   3.972040
    25  H    2.179399   1.112103   2.187810   2.493954   2.681707
    26  H    2.181733   1.110142   2.190704   2.482907   3.411656
    27  H    4.849656   4.486615   3.380534   3.691489   2.048359
                   16         17         18         19         20
    16  C    0.000000
    17  H    3.566794   0.000000
    18  H    4.094723   2.441306   0.000000
    19  H    3.092354   4.491832   3.285994   0.000000
    20  H    4.453555   4.575542   2.545934   1.797132   0.000000
    21  H    5.207477   6.667098   4.845417   2.496541   2.530553
    22  H    5.334690   6.217207   4.146889   3.098089   2.471085
    23  H    3.805238   6.405039   5.305682   2.689698   3.849448
    24  H    5.233969   7.347902   5.845608   3.862975   4.330372
    25  H    3.892087   6.228906   5.437285   4.199597   5.003987
    26  H    4.535318   5.856271   4.510352   4.035158   4.152458
    27  H    1.100944   4.312763   5.075439   3.717259   5.264270
                   21         22         23         24         25
    21  H    0.000000
    22  H    1.799230   0.000000
    23  H    2.467633   3.084240   0.000000
    24  H    2.541297   2.467060   1.794379   0.000000
    25  H    4.336834   3.841092   2.488219   2.517847   0.000000
    26  H    3.851290   2.667518   3.097833   2.499594   1.794968
    27  H    5.811769   6.186877   4.240174   5.836249   4.542350
                   26         27
    26  H    0.000000
    27  H    5.442904   0.000000
 Symmetry turned off by external request.
 Stoichiometry    C9H13N3O2
 Framework group  C1[X(C9H13N3O2)]
 Deg. of freedom    75
 Full point group                 C1      NOp   1
 Rotational constants (GHZ):           1.6446134           0.4052871           0.3579047
 Standard basis: 6-31G(d) (6D, 7F)
   236 basis functions,   444 primitive gaussians,   236 cartesian basis functions
    52 alpha electrons       52 beta electrons
       nuclear repulsion energy       918.0915562647 Hartrees.
 NAtoms=   27 NActive=   27 NUniq=   27 SFac= 1.00D+00 NAtFMM=   60 NAOKFM=F Big=F
 Integral buffers will be    131072 words long.
 Raffenetti 1 integral format.
 Two-electron integral symmetry is turned off.
 One-electron integrals computed using PRISM.
 NBasis=   236 RedAO= T EigKep=  1.25D-03  NBF=   236
 NBsUse=   236 1.00D-06 EigRej= -1.00D+00 NBFU=   236
 ExpMin= 1.61D-01 ExpMax= 5.48D+03 ExpMxC= 8.25D+02 IAcc=3 IRadAn=         5 AccDes= 0.00D+00
 Harris functional with IExCor=  205 and IRadAn=       5 diagonalized for initial guess.
 HarFok:  IExCor=  205 AccDes= 0.00D+00 IRadAn=         5 IDoV= 1 UseB2=F ITyADJ=14
 ICtDFT=  3500011 ScaDFX=  1.000000  1.000000  1.000000  1.000000
 FoFCou: FMM=F IPFlag=           0 FMFlag=      100000 FMFlg1=           0
         NFxFlg=           0 DoJE=T BraDBF=F KetDBF=T FulRan=T
         wScrn=  0.000000 ICntrl=       500 IOpCl=  0 I1Cent=   200000004 NGrid=           0
         NMat0=    1 NMatS0=      1 NMatT0=    0 NMatD0=    1 NMtDS0=    0 NMtDT0=    0
 Symmetry not used in FoFCou.
 Keep R1 ints in memory in canonical form, NReq=397720213.
 Requested convergence on RMS density matrix=1.00D-08 within 128 cycles.
 Requested convergence on MAX density matrix=1.00D-06.
 Requested convergence on             energy=1.00D-06.
 No special actions if energy rises.
 SCF Done:  E(RHF) =  -661.277475552     A.U. after   16 cycles
            NFock= 16  Conv=0.97D-08     -V/T= 2.0037
 ExpMin= 1.61D-01 ExpMax= 5.48D+03 ExpMxC= 8.25D+02 IAcc=3 IRadAn=         5 AccDes= 0.00D+00
 HarFok:  IExCor=  205 AccDes= 0.00D+00 IRadAn=         5 IDoV=-2 UseB2=F ITyADJ=14
 ICtDFT= 12500011 ScaDFX=  1.000000  1.000000  1.000000  1.000000
 Range of M.O.s used for correlation:    15   236
 NBasis=   236 NAE=    52 NBE=    52 NFC=    14 NFV=     0
 NROrb=    222 NOA=    38 NOB=    38 NVA=   184 NVB=   184
 Fully direct method using O(ONN) memory.
 JobTyp=1 Pass  1:  I=  15 to  52 NPSUse=  4 ParTrn=T ParDer=T DoDerP=T.
 Spin components of T(2) and E(2):
     alpha-alpha T2 =       0.9199949028D-01 E2=     -0.2717706412D+00
     alpha-beta  T2 =       0.5001790305D+00 E2=     -0.1494296111D+01
     beta-beta   T2 =       0.9199949028D-01 E2=     -0.2717706412D+00
 ANorm=    0.1297758842D+01
 E2 =    -0.2037837393D+01 EUMP2 =    -0.66331531294489D+03
          IDoAtm=111111111111111111111111111
          Differentiating once with respect to electric field.
                with respect to dipole field.
          Differentiating once with respect to nuclear coordinates.
 Keep R1 ints in memory in canonical form, NReq=397723379.
          There are     1 degrees of freedom in the 1st order CPHF.  IDoFFX=0 NUNeed=     1.
 LinEq1:  Iter=  0 NonCon=     1 RMS=4.61D-03 Max=1.11D-01 NDo=     1
 AX will form     1 AO Fock derivatives at one time.
 LinEq1:  Iter=  1 NonCon=     1 RMS=1.57D-03 Max=2.71D-02 NDo=     1
 LinEq1:  Iter=  2 NonCon=     1 RMS=6.42D-04 Max=1.79D-02 NDo=     1
 LinEq1:  Iter=  3 NonCon=     1 RMS=2.94D-04 Max=8.86D-03 NDo=     1
 LinEq1:  Iter=  4 NonCon=     1 RMS=9.04D-05 Max=2.09D-03 NDo=     1
 LinEq1:  Iter=  5 NonCon=     1 RMS=3.73D-05 Max=1.84D-03 NDo=     1
 LinEq1:  Iter=  6 NonCon=     1 RMS=1.51D-05 Max=6.04D-04 NDo=     1
 LinEq1:  Iter=  7 NonCon=     1 RMS=5.71D-06 Max=9.06D-05 NDo=     1
 LinEq1:  Iter=  8 NonCon=     1 RMS=2.24D-06 Max=4.62D-05 NDo=     1
 LinEq1:  Iter=  9 NonCon=     1 RMS=7.50D-07 Max=1.80D-05 NDo=     1
 LinEq1:  Iter= 10 NonCon=     1 RMS=3.66D-07 Max=1.49D-05 NDo=     1
 LinEq1:  Iter= 11 NonCon=     1 RMS=1.44D-07 Max=5.15D-06 NDo=     1
 LinEq1:  Iter= 12 NonCon=     1 RMS=5.34D-08 Max=9.61D-07 NDo=     1
 LinEq1:  Iter= 13 NonCon=     1 RMS=1.69D-08 Max=3.36D-07 NDo=     1
 LinEq1:  Iter= 14 NonCon=     1 RMS=5.36D-09 Max=1.34D-07 NDo=     1
 LinEq1:  Iter= 15 NonCon=     1 RMS=1.97D-09 Max=4.64D-08 NDo=     1
 LinEq1:  Iter= 16 NonCon=     1 RMS=7.26D-10 Max=1.15D-08 NDo=     1
 LinEq1:  Iter= 17 NonCon=     1 RMS=2.42D-10 Max=3.54D-09 NDo=     1
 LinEq1:  Iter= 18 NonCon=     0 RMS=8.34D-11 Max=9.69D-10 NDo=     1
 Linear equations converged to 1.000D-10 1.000D-09 after    18 iterations.
 End of Minotr F.D. properties file   721 does not exist.
 End of Minotr F.D. properties file   722 does not exist.
 End of Minotr F.D. properties file   788 does not exist.

 **********************************************************************

            Population analysis using the SCF Density.

 **********************************************************************

 Alpha  occ. eigenvalues --  -20.59839 -20.59213 -15.85034 -15.63405 -15.56547
 Alpha  occ. eigenvalues --  -11.36092 -11.30205 -11.30138 -11.30114 -11.27677
 Alpha  occ. eigenvalues --  -11.24623 -11.23862 -11.23360 -11.22813  -1.58311
 Alpha  occ. eigenvalues --   -1.37756  -1.28606  -1.22562  -1.13209  -1.08180
 Alpha  occ. eigenvalues --   -1.01812  -1.00560  -0.94016  -0.88427  -0.84882
 Alpha  occ. eigenvalues --   -0.81502  -0.77824  -0.76881  -0.74503  -0.70994
 Alpha  occ. eigenvalues --   -0.70185  -0.69557  -0.67311  -0.64439  -0.63121
 Alpha  occ. eigenvalues --   -0.61684  -0.60556  -0.57429  -0.56424  -0.54793
 Alpha  occ. eigenvalues --   -0.53711  -0.50746  -0.49416  -0.48598  -0.47679
 Alpha  occ. eigenvalues --   -0.47584  -0.46085  -0.45598  -0.43863  -0.41987
 Alpha  occ. eigenvalues --   -0.39588  -0.33768
 Alpha virt. eigenvalues --    0.07179   0.12213   0.17948   0.21303   0.23425
 Alpha virt. eigenvalues --    0.24254   0.26180   0.27772   0.28551   0.28821
 Alpha virt. eigenvalues --    0.29724   0.31238   0.31820   0.32321   0.33390
 Alpha virt. eigenvalues --    0.33574   0.33990   0.35355   0.37615   0.38834
 Alpha virt. eigenvalues --    0.40611   0.41842   0.44745   0.45268   0.45417
 Alpha virt. eigenvalues --    0.46504   0.49757   0.53121   0.57341   0.59068
 Alpha virt. eigenvalues --    0.63149   0.68523   0.69169   0.72180   0.73857
 Alpha virt. eigenvalues --    0.74600   0.75832   0.75869   0.77789   0.79341
 Alpha virt. eigenvalues --    0.80889   0.83586   0.85128   0.85417   0.87991
 Alpha virt. eigenvalues --    0.89211   0.90296   0.90548   0.91731   0.94051
 Alpha virt. eigenvalues --    0.95301   0.97167   0.98856   1.00401   1.02213
 Alpha virt. eigenvalues --    1.02855   1.04749   1.06737   1.07008   1.08264
 Alpha virt. eigenvalues --    1.09871   1.10492   1.11046   1.12237   1.13281
 Alpha virt. eigenvalues --    1.13752   1.14151   1.15645   1.16542   1.17153
 Alpha virt. eigenvalues --    1.18035   1.20081   1.21179   1.22352   1.22442
 Alpha virt. eigenvalues --    1.23992   1.24256   1.25704   1.26915   1.27447
 Alpha virt. eigenvalues --    1.29466   1.31514   1.32938   1.36738   1.39561
 Alpha virt. eigenvalues --    1.41929   1.45867   1.48026   1.49428   1.52683
 Alpha virt. eigenvalues --    1.54937   1.55838   1.59545   1.61990   1.64911
 Alpha virt. eigenvalues --    1.68567   1.70148   1.72977   1.73832   1.77163
 Alpha virt. eigenvalues --    1.77301   1.81781   1.84387   1.88956   1.92306
 Alpha virt. eigenvalues --    1.94282   1.95708   1.97476   1.99004   2.00529
 Alpha virt. eigenvalues --    2.02617   2.03293   2.06102   2.08491   2.12141
 Alpha virt. eigenvalues --    2.12850   2.14097   2.17625   2.18908   2.19655
 Alpha virt. eigenvalues --    2.20572   2.21861   2.24106   2.25455   2.26386
 Alpha virt. eigenvalues --    2.29527   2.32206   2.33437   2.35352   2.35878
 Alpha virt. eigenvalues --    2.38849   2.39310   2.42007   2.42673   2.46184
 Alpha virt. eigenvalues --    2.49243   2.49806   2.50946   2.56629   2.57613
 Alpha virt. eigenvalues --    2.60616   2.62709   2.65597   2.68250   2.68481
 Alpha virt. eigenvalues --    2.69579   2.70157   2.74002   2.78583   2.81022
 Alpha virt. eigenvalues --    2.85731   2.87152   2.88903   2.91339   2.94846
 Alpha virt. eigenvalues --    2.97818   2.98402   3.01787   3.03501   3.05599
 Alpha virt. eigenvalues --    3.07245   3.12668   3.19413   3.22282   3.27597
 Alpha virt. eigenvalues --    3.30246   3.33612   3.36188   3.43287   3.60533
 Alpha virt. eigenvalues --    4.09938   4.22731   4.31988   4.35921   4.42738
 Alpha virt. eigenvalues --    4.52430   4.59347   4.60096   4.70770   4.77387
 Alpha virt. eigenvalues --    4.96730   4.99243   5.03058   5.09710
          Condensed to atoms (all electrons):
               1          2          3          4          5          6
     1  O    8.301914   0.314435  -0.091585  -0.071422   0.002849  -0.000010
     2  N    0.314435   5.696057   0.303077   0.263334  -0.037703   0.000787
     3  O   -0.091585   0.303077   8.332674  -0.090649   0.008445   0.000414
     4  C   -0.071422   0.263334  -0.090649   5.214353   0.586445  -0.050167
     5  C    0.002849  -0.037703   0.008445   0.586445   4.650806   0.309511
     6  N   -0.000010   0.000787   0.000414  -0.050167   0.309511   7.184715
     7  C    0.000002  -0.000102   0.000003   0.003792  -0.029444   0.198929
     8  H   -0.000000   0.000002  -0.000000  -0.000120   0.002284  -0.049418
     9  C   -0.000000  -0.000004   0.000000   0.000356   0.001859  -0.057094
    10  C   -0.000000   0.000000  -0.000000  -0.000015  -0.000070   0.003354
    11  C   -0.000000  -0.000000  -0.000000  -0.000019   0.000019  -0.000155
    12  C   -0.000000   0.000002  -0.000000  -0.000086  -0.000156   0.003529
    13  C   -0.000025  -0.000034  -0.000003  -0.010631   0.000536  -0.043387
    14  H   -0.000002  -0.000052   0.000001   0.002700   0.004677  -0.005434
    15  N    0.000192   0.001923  -0.000024  -0.064332  -0.004130   0.002233
    16  C    0.002206  -0.039740   0.002632   0.323332  -0.041284  -0.000960
    17  H    0.000090  -0.003817   0.011075  -0.025003   0.374528  -0.032592
    18  H    0.000000  -0.000033   0.000006   0.001074  -0.024137   0.327916
    19  H    0.000000   0.000001   0.000000  -0.000780   0.000679   0.000575
    20  H    0.000000  -0.000000   0.000000  -0.000031   0.000042  -0.001625
    21  H   -0.000000  -0.000000   0.000000   0.000000   0.000001  -0.000060
    22  H   -0.000000   0.000000  -0.000000  -0.000000  -0.000002  -0.000097
    23  H    0.000000  -0.000000   0.000000   0.000025   0.000000  -0.000024
    24  H    0.000000   0.000000   0.000000   0.000000  -0.000000   0.000004
    25  H    0.000000  -0.000000   0.000000   0.000020  -0.000000  -0.000069
    26  H    0.000000  -0.000000   0.000000   0.000005   0.000000  -0.000065
    27  H    0.005118  -0.000640  -0.000002  -0.060906   0.001579   0.000041
               7          8          9         10         11         12
     1  O    0.000002  -0.000000  -0.000000  -0.000000  -0.000000  -0.000000
     2  N   -0.000102   0.000002  -0.000004   0.000000  -0.000000   0.000002
     3  O    0.000003  -0.000000   0.000000  -0.000000  -0.000000  -0.000000
     4  C    0.003792  -0.000120   0.000356  -0.000015  -0.000019  -0.000086
     5  C   -0.029444   0.002284   0.001859  -0.000070   0.000019  -0.000156
     6  N    0.198929  -0.049418  -0.057094   0.003354  -0.000155   0.003529
     7  C    5.007920   0.416117   0.340560  -0.049176  -0.007735  -0.063805
     8  H    0.416117   0.546428  -0.060419   0.001379  -0.000318  -0.002928
     9  C    0.340560  -0.060419   5.181153   0.318135  -0.053035  -0.006099
    10  C   -0.049176   0.001379   0.318135   5.126725   0.332760  -0.060262
    11  C   -0.007735  -0.000318  -0.053035   0.332760   5.124153   0.330735
    12  C   -0.063805  -0.002928  -0.006099  -0.060262   0.330735   5.136360
    13  C    0.330044  -0.039565  -0.051057  -0.001664  -0.047989   0.368165
    14  H   -0.040465  -0.000934   0.003866  -0.000388   0.003974  -0.040801
    15  N   -0.058507   0.003951  -0.012405   0.001442  -0.007896  -0.073870
    16  C   -0.001384  -0.000035  -0.000657  -0.000039   0.000010   0.002376
    17  H    0.001346  -0.000024  -0.000060   0.000001   0.000000   0.000000
    18  H   -0.028227  -0.002735   0.000823  -0.000118   0.000011  -0.000134
    19  H   -0.035125   0.004096   0.386092  -0.032690  -0.002240   0.000610
    20  H   -0.041732  -0.001807   0.397207  -0.037354   0.004129  -0.000361
    21  H    0.004040  -0.000079  -0.035849   0.400127  -0.035858   0.004219
    22  H   -0.004259   0.003522  -0.045727   0.395906  -0.045582  -0.001240
    23  H    0.000430   0.000034  -0.002006  -0.040090   0.396679  -0.036603
    24  H   -0.000138  -0.000099   0.004397  -0.038505   0.400235  -0.037924
    25  H    0.004967  -0.000005  -0.000371   0.004099  -0.033834   0.395458
    26  H   -0.004433   0.001580   0.001051  -0.002437  -0.042345   0.394511
    27  H   -0.000380   0.000008  -0.000052   0.000004   0.000005  -0.000022
              13         14         15         16         17         18
     1  O   -0.000025  -0.000002   0.000192   0.002206   0.000090   0.000000
     2  N   -0.000034  -0.000052   0.001923  -0.039740  -0.003817  -0.000033
     3  O   -0.000003   0.000001  -0.000024   0.002632   0.011075   0.000006
     4  C   -0.010631   0.002700  -0.064332   0.323332  -0.025003   0.001074
     5  C    0.000536   0.004677  -0.004130  -0.041284   0.374528  -0.024137
     6  N   -0.043387  -0.005434   0.002233  -0.000960  -0.032592   0.327916
     7  C    0.330044  -0.040465  -0.058507  -0.001384   0.001346  -0.028227
     8  H   -0.039565  -0.000934   0.003951  -0.000035  -0.000024  -0.002735
     9  C   -0.051057   0.003866  -0.012405  -0.000657  -0.000060   0.000823
    10  C   -0.001664  -0.000388   0.001442  -0.000039   0.000001  -0.000118
    11  C   -0.047989   0.003974  -0.007896   0.000010   0.000000   0.000011
    12  C    0.368165  -0.040801  -0.073870   0.002376   0.000000  -0.000134
    13  C    5.021071   0.402496   0.242958  -0.069938  -0.000038   0.003572
    14  H    0.402496   0.519122  -0.035482  -0.004823   0.000061   0.000005
    15  N    0.242958  -0.035482   6.942551   0.582588  -0.000072  -0.000119
    16  C   -0.069938  -0.004823   0.582588   4.720003   0.001598  -0.000168
    17  H   -0.000038   0.000061  -0.000072   0.001598   0.384891  -0.001783
    18  H    0.003572   0.000005  -0.000119  -0.000168  -0.001783   0.324618
    19  H   -0.006236   0.000068   0.006975   0.002442   0.000011  -0.000124
    20  H    0.003855  -0.000051   0.000073  -0.000029  -0.000001   0.002819
    21  H   -0.000383   0.000009  -0.000030   0.000002  -0.000000  -0.000000
    22  H    0.000331  -0.000044   0.000003  -0.000001   0.000000   0.000002
    23  H   -0.005883   0.000010   0.006907   0.000066   0.000000   0.000000
    24  H    0.004157  -0.000059   0.000044   0.000005   0.000000  -0.000000
    25  H   -0.034321  -0.002674   0.000856  -0.000051  -0.000000   0.000002
    26  H   -0.044918  -0.000904   0.004181  -0.000051   0.000000  -0.000001
    27  H    0.004669  -0.000155  -0.038186   0.400473  -0.000057   0.000002
              19         20         21         22         23         24
     1  O    0.000000   0.000000  -0.000000  -0.000000   0.000000   0.000000
     2  N    0.000001  -0.000000  -0.000000   0.000000  -0.000000   0.000000
     3  O    0.000000   0.000000   0.000000  -0.000000   0.000000   0.000000
     4  C   -0.000780  -0.000031   0.000000  -0.000000   0.000025   0.000000
     5  C    0.000679   0.000042   0.000001  -0.000002   0.000000  -0.000000
     6  N    0.000575  -0.001625  -0.000060  -0.000097  -0.000024   0.000004
     7  C   -0.035125  -0.041732   0.004040  -0.004259   0.000430  -0.000138
     8  H    0.004096  -0.001807  -0.000079   0.003522   0.000034  -0.000099
     9  C    0.386092   0.397207  -0.035849  -0.045727  -0.002006   0.004397
    10  C   -0.032690  -0.037354   0.400127   0.395906  -0.040090  -0.038505
    11  C   -0.002240   0.004129  -0.035858  -0.045582   0.396679   0.400235
    12  C    0.000610  -0.000361   0.004219  -0.001240  -0.036603  -0.037924
    13  C   -0.006236   0.003855  -0.000383   0.000331  -0.005883   0.004157
    14  H    0.000068  -0.000051   0.000009  -0.000044   0.000010  -0.000059
    15  N    0.006975   0.000073  -0.000030   0.000003   0.006907   0.000044
    16  C    0.002442  -0.000029   0.000002  -0.000001   0.000066   0.000005
    17  H    0.000011  -0.000001  -0.000000   0.000000   0.000000   0.000000
    18  H   -0.000124   0.002819  -0.000000   0.000002   0.000000  -0.000000
    19  H    0.507109  -0.023969  -0.002589   0.003762   0.001648  -0.000070
    20  H   -0.023969   0.550265  -0.002637  -0.002953  -0.000049  -0.000090
    21  H   -0.002589  -0.002637   0.526260  -0.024718  -0.002813  -0.002069
    22  H    0.003762  -0.002953  -0.024718   0.569174   0.004058  -0.003601
    23  H    0.001648  -0.000049  -0.002813   0.004058   0.509107  -0.024972
    24  H   -0.000070  -0.000090  -0.002069  -0.003601  -0.024972   0.541392
    25  H   -0.000027   0.000011  -0.000086  -0.000083  -0.002082  -0.002386
    26  H    0.000023  -0.000035  -0.000074   0.002467   0.003822  -0.002753
    27  H    0.000069   0.000000  -0.000000   0.000000  -0.000021  -0.000000
              25         26         27
     1  O    0.000000   0.000000   0.005118
     2  N   -0.000000  -0.000000  -0.000640
     3  O    0.000000   0.000000  -0.000002
     4  C    0.000020   0.000005  -0.060906
     5  C   -0.000000   0.000000   0.001579
     6  N   -0.000069  -0.000065   0.000041
     7  C    0.004967  -0.004433  -0.000380
     8  H   -0.000005   0.001580   0.000008
     9  C   -0.000371   0.001051  -0.000052
    10  C    0.004099  -0.002437   0.000004
    11  C   -0.033834  -0.042345   0.000005
    12  C    0.395458   0.394511  -0.000022
    13  C   -0.034321  -0.044918   0.004669
    14  H   -0.002674  -0.000904  -0.000155
    15  N    0.000856   0.004181  -0.038186
    16  C   -0.000051  -0.000051   0.400473
    17  H   -0.000000   0.000000  -0.000057
    18  H    0.000002  -0.000001   0.000002
    19  H   -0.000027   0.000023   0.000069
    20  H    0.000011  -0.000035   0.000000
    21  H   -0.000086  -0.000074  -0.000000
    22  H   -0.000083   0.002467   0.000000
    23  H   -0.002082   0.003822  -0.000021
    24  H   -0.002386  -0.002753  -0.000000
    25  H    0.509570  -0.023151  -0.000010
    26  H   -0.023151   0.561862   0.000001
    27  H   -0.000010   0.000001   0.439735
 Mulliken charges:
               1
     1  O   -0.463764
     2  N    0.502507
     3  O   -0.476066
     4  C   -0.021273
     5  C    0.192664
     6  N   -0.790852
     7  C    0.056763
     8  H    0.179087
     9  C   -0.310663
    10  C   -0.321124
    11  C   -0.315703
    12  C   -0.311675
    13  C   -0.025781
    14  H    0.195277
    15  N   -0.501825
    16  C    0.121426
    17  H    0.289844
    18  H    0.396728
    19  H    0.189689
    20  H    0.154323
    21  H    0.172586
    22  H    0.149082
    23  H    0.191756
    24  H    0.162433
    25  H    0.184170
    26  H    0.151664
    27  H    0.248726
 Sum of Mulliken charges =  -0.00000
 Mulliken charges with hydrogens summed into heavy atoms:
               1
     1  O   -0.463764
     2  N    0.502507
     3  O   -0.476066
     4  C   -0.021273
     5  C    0.482508
     6  N   -0.394124
     7  C    0.235850
     9  C    0.033349
    10  C    0.000544
    11  C    0.038486
    12  C    0.024159
    13  C    0.169496
    15  N   -0.501825
    16  C    0.370152
 Electronic spatial extent (au):  <R**2>=           3105.9013
 Charge=             -0.0000 electrons
 Dipole moment (field-independent basis, Debye):
    X=              5.3151    Y=              4.7075    Z=              0.5653  Tot=              7.1225
 Quadrupole moment (field-independent basis, Debye-Ang):
   XX=           -105.0617   YY=            -79.9581   ZZ=            -82.2829
   XY=             -2.3277   XZ=              0.6661   YZ=              0.1967
 Traceless Quadrupole moment (field-independent basis, Debye-Ang):
   XX=            -15.9608   YY=              9.1428   ZZ=              6.8180
   XY=             -2.3277   XZ=              0.6661   YZ=              0.1967
 Octapole moment (field-independent basis, Debye-Ang**2):
  XXX=             98.0583  YYY=             39.3716  ZZZ=             -4.8126  XYY=             -2.1646
  XXY=             13.6773  XXZ=              1.0406  XZZ=             -8.5955  YZZ=             -2.7458
  YYZ=              1.4031  XYZ=             -1.4095
 Hexadecapole moment (field-independent basis, Debye-Ang**3):
 XXXX=          -3511.4901 YYYY=           -630.4492 ZZZZ=           -299.2654 XXXY=            -54.8928
 XXXZ=             14.3976 YYYX=            -31.7422 YYYZ=             11.3584 ZZZX=             14.8723
 ZZZY=              7.2512 XXYY=           -649.7596 XXZZ=           -537.3084 YYZZ=           -167.0423
 XXYZ=              2.5946 YYXZ=              7.3578 ZZXY=             -0.3292
 N-N= 9.180915562647D+02 E-N=-3.382244069494D+03  KE= 6.588473885216D+02
 Calling FoFJK, ICntrl=  10002127 FMM=F ISym2X=0 I1Cent= 0 IOpClX= 0 NMat=1 NMatS=1 NMatT=0.
 -------------------------------------------------------------------
 Center     Atomic                   Forces (Hartrees/Bohr)
 Number     Number              X              Y              Z
 -------------------------------------------------------------------
      1        8           0.010244362   -0.013381586   -0.002435524
      2        7           0.032398885    0.027259184    0.004461926
      3        8          -0.012497395    0.019282006    0.003260362
      4        6          -0.012402251   -0.024296998   -0.000043668
      5        6           0.001215726   -0.019362343   -0.005041777
      6        7           0.015856910   -0.008373791   -0.005728115
      7        6          -0.004858310    0.004826648    0.002498405
      8        1          -0.010360407   -0.001610685   -0.007544404
      9        6          -0.003960965    0.000210874   -0.002209385
     10        6           0.002850169   -0.000936081    0.000943882
     11        6          -0.000871783   -0.004603919   -0.002371062
     12        6           0.000653317   -0.008588052   -0.003129137
     13        6           0.007049602   -0.001209241    0.003445583
     14        1           0.000848401    0.004180229   -0.009926773
     15        7           0.003014813   -0.002993082    0.003190035
     16        6          -0.005212456    0.019372458    0.004181526
     17        1           0.008011394   -0.005491089   -0.005108370
     18        1          -0.017380699   -0.001841703    0.005347565
     19        1           0.003216537    0.005846108    0.007624169
     20        1          -0.003299636   -0.007363685    0.002596303
     21        1          -0.004275781    0.002434337    0.009649419
     22        1          -0.004088199   -0.003904791   -0.007372676
     23        1           0.004026111    0.006068253    0.009341473
     24        1          -0.009349359    0.002714087   -0.002086360
     25        1          -0.000846258    0.010675235   -0.002462731
     26        1          -0.004767929   -0.004722156   -0.004353277
     27        1           0.004785203    0.005809785    0.003272611
 -------------------------------------------------------------------
 Cartesian Forces:  Max     0.032398885 RMS     0.008927482

 GradGradGradGradGradGradGradGradGradGradGradGradGradGradGradGradGradGrad
 Berny optimization.
 FormGI is forming the generalized inverse of G from B-inverse, IUseBI=4.
 Internal  Forces:  Max     0.037672991 RMS     0.007450828
 Search for a local minimum.
 Step number   1 out of a maximum of   20
 All quantities printed in internal units (Hartrees-Bohrs-Radians)
 Mixed Optimization -- RFO/linear search
 Second derivative matrix not updated -- first step.
 ITU=  0
     Eigenvalues ---    0.00230   0.00767   0.01066   0.01164   0.01211
     Eigenvalues ---    0.01442   0.01526   0.01583   0.01977   0.02027
     Eigenvalues ---    0.02139   0.02664   0.03650   0.04507   0.04698
     Eigenvalues ---    0.04837   0.05067   0.05139   0.05299   0.05866
     Eigenvalues ---    0.06279   0.07229   0.07704   0.07719   0.07865
     Eigenvalues ---    0.07998   0.08042   0.08050   0.10464   0.11745
     Eigenvalues ---    0.12284   0.13497   0.15262   0.15810   0.15988
     Eigenvalues ---    0.16002   0.20113   0.21996   0.23445   0.25000
     Eigenvalues ---    0.25000   0.25295   0.26105   0.26657   0.27992
     Eigenvalues ---    0.28082   0.28409   0.28663   0.31407   0.31478
     Eigenvalues ---    0.32054   0.32238   0.32290   0.32378   0.32386
     Eigenvalues ---    0.32402   0.32508   0.32526   0.32585   0.33030
     Eigenvalues ---    0.33401   0.33578   0.35066   0.43872   0.45135
     Eigenvalues ---    0.49511   0.67159   0.90136   0.908521000.00000
     Eigenvalues --- 1000.000001000.000001000.000001000.000001000.00000
     Eigenvalues --- 1000.000001000.000001000.000001000.000001000.00000
     Eigenvalues --- 1000.000001000.000001000.000001000.000001000.00000
     Eigenvalues --- 1000.000001000.000001000.000001000.000001000.00000
     Eigenvalues --- 1000.000001000.000001000.000001000.000001000.00000
     Eigenvalues --- 1000.000001000.000001000.000001000.000001000.00000
     Eigenvalues --- 1000.000001000.000001000.000001000.000001000.00000
     Eigenvalues --- 1000.000001000.000001000.000001000.000001000.00000
     Eigenvalues --- 1000.000001000.000001000.000001000.000001000.00000
     Eigenvalues --- 1000.000001000.000001000.000001000.000001000.00000
     Eigenvalues --- 1000.000001000.000001000.000001000.000001000.00000
     Eigenvalues --- 1000.000001000.000001000.000001000.000001000.00000
     Eigenvalues --- 1000.000001000.000001000.000001000.000001000.00000
     Eigenvalues --- 1000.000001000.000001000.000001000.000001000.00000
     Eigenvalues --- 1000.000001000.000001000.000001000.000001000.00000
     Eigenvalues --- 1000.000001000.000001000.000001000.000001000.00000
     Eigenvalues --- 1000.000001000.000001000.000001000.000001000.00000
     Eigenvalues --- 1000.000001000.000001000.000001000.000001000.00000
     Eigenvalues --- 1000.00000
 RFO step:  Lambda=-2.45837445D-02 EMin= 2.30001130D-03
 Linear search not attempted -- first point.
 Iteration  1 RMS(Cart)=  0.05450849 RMS(Int)=  0.00098650
 Iteration  2 RMS(Cart)=  0.00105129 RMS(Int)=  0.00021640
 Iteration  3 RMS(Cart)=  0.00000075 RMS(Int)=  0.00021639
 Iteration  1 RMS(Cart)=  0.00007402 RMS(Int)=  0.00002445
 Iteration  2 RMS(Cart)=  0.00002927 RMS(Int)=  0.00002712
 Iteration  3 RMS(Cart)=  0.00001183 RMS(Int)=  0.00002985
 Iteration  4 RMS(Cart)=  0.00000537 RMS(Int)=  0.00003151
 Iteration  5 RMS(Cart)=  0.00000325 RMS(Int)=  0.00003256
 Iteration  6 RMS(Cart)=  0.00000253 RMS(Int)=  0.00003328
 Iteration  7 RMS(Cart)=  0.00000214 RMS(Int)=  0.00003384
 Iteration  8 RMS(Cart)=  0.00000183 RMS(Int)=  0.00003430
 Iteration  9 RMS(Cart)=  0.00000156 RMS(Int)=  0.00003469
 Iteration 10 RMS(Cart)=  0.00000133 RMS(Int)=  0.00003503
 Iteration 11 RMS(Cart)=  0.00000113 RMS(Int)=  0.00003531
 Iteration 12 RMS(Cart)=  0.00000096 RMS(Int)=  0.00003556
 Variable       Old X    -DE/DX   Delta X   Delta X   Delta X     New X
                                 (Linear)    (Quad)   (Total)
    R1        2.32871   0.01023   0.00000   0.01104   0.01104   2.33975
    R2        2.32543   0.02296   0.00000   0.02461   0.02461   2.35004
    R3        2.90713  -0.03767   0.00000  -0.12105  -0.12105   2.78607
    R4        2.63337  -0.03376   0.00000  -0.07470  -0.07450   2.55887
    R5        2.81509  -0.02022   0.00000  -0.06379  -0.06359   2.75151
    R6        2.58813  -0.02283   0.00000  -0.04423  -0.04415   2.54397
    R7        2.08354  -0.01038   0.00000  -0.02893  -0.02893   2.05460
    R8        2.82863  -0.02061   0.00000  -0.05343  -0.05351   2.77512
    R9        1.93307  -0.00676   0.00000  -0.01459  -0.01459   1.91849
   R10        2.11810  -0.01199   0.00000  -0.03533  -0.03533   2.08276
   R11        2.92742  -0.01283   0.00000  -0.04319  -0.04321   2.88421
   R12        2.90915  -0.00582   0.00000  -0.00898  -0.00894   2.90021
   R13        2.91146  -0.00462   0.00000  -0.01452  -0.01453   2.89693
   R14        2.09925  -0.00992   0.00000  -0.02836  -0.02836   2.07089
   R15        2.09892  -0.00806   0.00000  -0.02303  -0.02303   2.07589
   R16        2.90423  -0.00201   0.00000  -0.00749  -0.00753   2.89670
   R17        2.10143  -0.01057   0.00000  -0.03035  -0.03035   2.07109
   R18        2.10317  -0.00900   0.00000  -0.02589  -0.02589   2.07728
   R19        2.91723  -0.00904   0.00000  -0.02891  -0.02889   2.88833
   R20        2.10411  -0.01168   0.00000  -0.03366  -0.03366   2.07045
   R21        2.10114  -0.00993   0.00000  -0.02849  -0.02849   2.07265
   R22        2.93521  -0.01070   0.00000  -0.03643  -0.03642   2.89878
   R23        2.10157  -0.01082   0.00000  -0.03106  -0.03106   2.07051
   R24        2.09786  -0.00781   0.00000  -0.02227  -0.02227   2.07559
   R25        2.10745  -0.00921   0.00000  -0.02670  -0.02670   2.08075
   R26        2.77303  -0.00772   0.00000  -0.01433  -0.01465   2.75838
   R27        2.44219  -0.00374   0.00000  -0.00593  -0.00599   2.43621
   R28        2.08048  -0.00802   0.00000  -0.02226  -0.02226   2.05822
    A1        2.14819   0.01315   0.00000   0.04789   0.04789   2.19608
    A2        2.10792  -0.01854   0.00000  -0.06753  -0.06753   2.04039
    A3        2.02708   0.00539   0.00000   0.01964   0.01964   2.04672
    A4        2.09378  -0.02466   0.00000  -0.02744  -0.02795   2.06583
    A5        1.91793   0.02359   0.00000   0.00000  -0.00000   1.91793
    A6        2.27090   0.00103   0.00000   0.02640   0.02645   2.29735
    A7        2.17786   0.00998   0.00000   0.01850   0.01882   2.19668
    A8        2.06558  -0.00420   0.00000  -0.00468  -0.00488   2.06069
    A9        2.03849  -0.00573   0.00000  -0.01307  -0.01330   2.02518
   A10        2.25043  -0.00476   0.00000  -0.01863  -0.01864   2.23179
   A11        2.11544  -0.01255   0.00000  -0.06980  -0.07020   2.04524
   A12        1.87518   0.01750   0.00000   0.09626   0.09641   1.97159
   A13        1.83649  -0.00163   0.00000  -0.01778  -0.01760   1.81889
   A14        2.00328  -0.00089   0.00000  -0.01399  -0.01402   1.98926
   A15        1.97581   0.00059   0.00000   0.00226   0.00181   1.97762
   A16        1.85220   0.00258   0.00000   0.02446   0.02430   1.87650
   A17        1.84786   0.00099   0.00000   0.01933   0.01914   1.86700
   A18        1.93388  -0.00129   0.00000  -0.00964  -0.00936   1.92452
   A19        1.91080   0.00010   0.00000  -0.00464  -0.00475   1.90605
   A20        1.92151  -0.00071   0.00000  -0.01266  -0.01264   1.90887
   A21        1.92325  -0.00162   0.00000  -0.00694  -0.00694   1.91631
   A22        1.91895  -0.00035   0.00000   0.00558   0.00553   1.92448
   A23        1.90443   0.00302   0.00000   0.02419   0.02421   1.92864
   A24        1.88471  -0.00041   0.00000  -0.00514  -0.00539   1.87932
   A25        1.94094  -0.00112   0.00000   0.00502   0.00491   1.94585
   A26        1.91882  -0.00068   0.00000  -0.00688  -0.00689   1.91192
   A27        1.90491   0.00040   0.00000  -0.00285  -0.00290   1.90201
   A28        1.91595   0.00089   0.00000   0.00729   0.00733   1.92328
   A29        1.89846   0.00179   0.00000   0.01125   0.01128   1.90974
   A30        1.88371  -0.00126   0.00000  -0.01429  -0.01438   1.86933
   A31        1.94461   0.00067   0.00000   0.00471   0.00483   1.94944
   A32        1.90256   0.00053   0.00000   0.00630   0.00624   1.90880
   A33        1.91726   0.00047   0.00000   0.00503   0.00500   1.92227
   A34        1.90686  -0.00119   0.00000  -0.01456  -0.01460   1.89226
   A35        1.91528  -0.00046   0.00000   0.00053   0.00045   1.91573
   A36        1.87589  -0.00005   0.00000  -0.00235  -0.00238   1.87351
   A37        1.94643  -0.00285   0.00000  -0.01764  -0.01767   1.92876
   A38        1.90612   0.00240   0.00000   0.01651   0.01636   1.92248
   A39        1.91123   0.00146   0.00000   0.01317   0.01316   1.92439
   A40        1.90621   0.00018   0.00000  -0.00420  -0.00404   1.90217
   A41        1.91206  -0.00030   0.00000  -0.00396  -0.00390   1.90816
   A42        1.88057  -0.00081   0.00000  -0.00341  -0.00359   1.87698
   A43        1.84555   0.00461   0.00000   0.02173   0.02177   1.86732
   A44        1.93512  -0.00394   0.00000  -0.02965  -0.03002   1.90510
   A45        1.99114   0.00003   0.00000   0.01405   0.01425   2.00538
   A46        1.88027   0.00215   0.00000   0.02967   0.02993   1.91020
   A47        1.89105  -0.00369   0.00000  -0.02932  -0.02938   1.86167
   A48        1.91584   0.00109   0.00000  -0.00425  -0.00406   1.91178
   A49        2.08799  -0.00809   0.00000  -0.02451  -0.02481   2.06318
   A50        2.22386   0.00177   0.00000  -0.00943  -0.00938   2.21448
   A51        2.00827  -0.00009   0.00000   0.00856   0.00821   2.01647
   A52        2.05059  -0.00171   0.00000  -0.00025  -0.00063   2.04996
    D1       -3.03047  -0.00084   0.00000  -0.02876  -0.02824  -3.05870
    D2        0.14413   0.00012   0.00000   0.00000  -0.00000   0.14413
    D3        0.11056  -0.00081   0.00000  -0.02642  -0.02616   0.08439
    D4       -2.99803   0.00016   0.00000   0.00234   0.00207  -2.99596
    D5        3.06093   0.00052   0.00000   0.01715   0.01699   3.07792
    D6       -0.02486  -0.00029   0.00000   0.00115   0.00089  -0.02397
    D7       -0.12125  -0.00035   0.00000  -0.01912  -0.01950  -0.14075
    D8        3.07615  -0.00116   0.00000  -0.03513  -0.03560   3.04055
    D9       -2.73494  -0.00101   0.00000  -0.03683  -0.03743  -2.77237
   D10        0.44082  -0.00009   0.00000   0.00367   0.00320   0.44401
   D11        0.44404   0.00064   0.00000  -0.00283  -0.00271   0.44133
   D12       -2.66339   0.00157   0.00000   0.03768   0.03792  -2.62547
   D13       -0.08869  -0.00013   0.00000   0.01438   0.01456  -0.07413
   D14        2.70471   0.00371   0.00000   0.06265   0.06170   2.76641
   D15        2.99789   0.00071   0.00000   0.03038   0.03058   3.02847
   D16       -0.49190   0.00454   0.00000   0.07865   0.07772  -0.41417
   D17       -2.51238  -0.00057   0.00000  -0.00989  -0.00949  -2.52187
   D18        1.74150  -0.00219   0.00000  -0.02082  -0.02049   1.72102
   D19       -0.50252  -0.00008   0.00000   0.00371   0.00372  -0.49880
   D20        0.94009   0.00024   0.00000  -0.02932  -0.02982   0.91027
   D21       -1.08921  -0.00138   0.00000  -0.04025  -0.04082  -1.13003
   D22        2.94995   0.00073   0.00000  -0.01571  -0.01661   2.93333
   D23        2.93791   0.00235   0.00000   0.02492   0.02479   2.96270
   D24       -1.23377   0.00153   0.00000   0.02086   0.02074  -1.21302
   D25        0.84326  -0.00042   0.00000   0.00231   0.00226   0.84552
   D26        0.91765   0.00316   0.00000   0.03842   0.03843   0.95608
   D27        3.02915   0.00234   0.00000   0.03436   0.03439   3.06354
   D28       -1.17701   0.00038   0.00000   0.01581   0.01590  -1.16111
   D29       -1.08044   0.00121   0.00000   0.00697   0.00699  -1.07345
   D30        1.03106   0.00039   0.00000   0.00292   0.00295   1.03400
   D31        3.10809  -0.00156   0.00000  -0.01564  -0.01554   3.09255
   D32       -2.89750  -0.00098   0.00000  -0.01371  -0.01348  -2.91098
   D33       -0.86424   0.00218   0.00000   0.01874   0.01862  -0.84562
   D34        1.30938   0.00048   0.00000   0.00000  -0.00001   1.30937
   D35       -0.89443  -0.00205   0.00000  -0.02226  -0.02215  -0.91659
   D36        1.13882   0.00111   0.00000   0.01019   0.00995   1.14877
   D37       -2.97074  -0.00059   0.00000  -0.00855  -0.00868  -2.97943
   D38        1.10638   0.00090   0.00000   0.01239   0.01249   1.11887
   D39        3.13963   0.00406   0.00000   0.04484   0.04459  -3.09896
   D40       -0.96993   0.00236   0.00000   0.02610   0.02596  -0.94397
   D41        0.95665   0.00067   0.00000   0.00000   0.00000   0.95665
   D42        3.08232   0.00059   0.00000   0.00787   0.00783   3.09015
   D43       -1.13787  -0.00110   0.00000  -0.01526  -0.01523  -1.15310
   D44       -1.15640   0.00171   0.00000   0.01509   0.01516  -1.14124
   D45        0.96927   0.00162   0.00000   0.02296   0.02298   0.99225
   D46        3.03226  -0.00006   0.00000  -0.00016  -0.00007   3.03219
   D47        3.06278   0.00061   0.00000   0.00358   0.00355   3.06634
   D48       -1.09473   0.00052   0.00000   0.01145   0.01138  -1.08335
   D49        0.96826  -0.00117   0.00000  -0.01167  -0.01168   0.95658
   D50       -0.92192  -0.00079   0.00000   0.00000   0.00000  -0.92192
   D51        1.18383  -0.00150   0.00000  -0.01101  -0.01103   1.17280
   D52       -3.04813  -0.00097   0.00000  -0.00727  -0.00730  -3.05544
   D53       -3.04926   0.00020   0.00000   0.00038   0.00041  -3.04886
   D54       -0.94351  -0.00050   0.00000  -0.01063  -0.01063  -0.95414
   D55        1.10771   0.00002   0.00000  -0.00688  -0.00690   1.10081
   D56        1.17642   0.00017   0.00000   0.00686   0.00689   1.18331
   D57       -3.00101  -0.00054   0.00000  -0.00415  -0.00414  -3.00515
   D58       -0.94979  -0.00001   0.00000  -0.00041  -0.00041  -0.95021
   D59        0.99052  -0.00100   0.00000  -0.01006  -0.01011   0.98041
   D60        3.09898  -0.00100   0.00000  -0.01560  -0.01575   3.08323
   D61       -1.12873   0.00026   0.00000  -0.00244  -0.00241  -1.13114
   D62       -1.11271  -0.00131   0.00000  -0.01129  -0.01129  -1.12399
   D63        0.99575  -0.00130   0.00000  -0.01684  -0.01693   0.97882
   D64        3.05123  -0.00004   0.00000  -0.00367  -0.00359   3.04764
   D65        3.11788  -0.00028   0.00000  -0.00020  -0.00020   3.11768
   D66       -1.05684  -0.00028   0.00000  -0.00574  -0.00585  -1.06269
   D67        0.99863   0.00098   0.00000   0.00742   0.00749   1.00612
   D68       -1.05681   0.00026   0.00000  -0.00213  -0.00204  -1.05886
   D69       -3.12690   0.00139   0.00000   0.00633   0.00601  -3.12089
   D70        1.08463   0.00093   0.00000   0.01098   0.01089   1.09552
   D71        3.11796  -0.00104   0.00000  -0.00869  -0.00855   3.10941
   D72        1.04788   0.00009   0.00000  -0.00023  -0.00050   1.04738
   D73       -1.02378  -0.00037   0.00000   0.00442   0.00439  -1.01939
   D74        1.06195   0.00002   0.00000   0.00019   0.00037   1.06232
   D75       -1.00814   0.00115   0.00000   0.00866   0.00842  -0.99972
   D76       -3.07979   0.00068   0.00000   0.01330   0.01331  -3.06649
   D77       -1.17216   0.00365   0.00000   0.00000  -0.00001  -1.17217
   D78        3.06071   0.00036   0.00000  -0.01589  -0.01572   3.04499
   D79        1.01172  -0.00071   0.00000  -0.03224  -0.03246   0.97926
   D80        0.17750  -0.00047   0.00000   0.01392   0.01367   0.19117
   D81       -2.99898  -0.00139   0.00000  -0.02729  -0.02750  -3.02648
         Item               Value     Threshold  Converged?
 Maximum Force            0.037673     0.000450     NO 
 RMS     Force            0.007141     0.000300     NO 
 Maximum Displacement     0.334392     0.001800     NO 
 RMS     Displacement     0.054710     0.001200     NO 
 Predicted change in Energy=-1.365745D-02
 GradGradGradGradGradGradGradGradGradGradGradGradGradGradGradGradGradGrad

                          Input orientation:                          
 ---------------------------------------------------------------------
 Center     Atomic      Atomic             Coordinates (Angstroms)
 Number     Number       Type             X           Y           Z
 ---------------------------------------------------------------------
      1          8           0       -3.381697   -1.487114   -0.241230
      2          7           0       -3.094117   -0.295470   -0.067221
      3          8           0       -3.905768    0.636416    0.071782
      4          6           0       -1.660390    0.045335   -0.023464
      5          6           0       -1.311084    1.321968    0.262486
      6          7           0       -0.054350    1.781718    0.409246
      7          6           0        1.196134    1.012244    0.381306
      8          1           0        1.839380    1.514183    1.122271
      9          6           0        1.921290    1.055789   -0.960973
     10          6           0        3.317558    0.443759   -0.799995
     11          6           0        3.246564   -0.969953   -0.211725
     12          6           0        2.433245   -1.003432    1.081921
     13          6           0        1.025910   -0.440275    0.846704
     14          1           0        0.463150   -0.452843    1.793031
     15          7           0        0.377744   -1.322910   -0.118431
     16          6           0       -0.863817   -1.115001   -0.396462
     17          1           0       -2.106011    2.045675    0.425117
     18          1           0        0.091592    2.779186    0.289130
     19          1           0        1.344130    0.494271   -1.704281
     20          1           0        1.994508    2.094550   -1.310755
     21          1           0        3.823583    0.424153   -1.771955
     22          1           0        3.915051    1.085797   -0.137317
     23          1           0        2.772565   -1.641524   -0.936114
     24          1           0        4.257384   -1.352146   -0.024282
     25          1           0        2.348742   -2.032637    1.448097
     26          1           0        2.934758   -0.414684    1.861820
     27          1           0       -1.365055   -1.844056   -1.031693
 ---------------------------------------------------------------------
                    Distance matrix (angstroms):
                    1          2          3          4          5
     1  O    0.000000
     2  N    1.238142   0.000000
     3  O    2.209526   1.243588   0.000000
     4  C    2.314891   1.474326   2.323827   0.000000
     5  C    3.525919   2.429818   2.690489   1.354095   0.000000
     6  N    4.709525   3.712400   4.032247   2.404502   1.346213
     7  C    5.252702   4.507499   5.125081   3.042775   2.529069
     8  H    6.174672   5.387869   5.905991   3.964671   3.271331
     9  C    5.925037   5.270578   5.932711   3.837756   3.466402
    10  C    6.994320   6.495614   7.278294   5.053881   4.829539
    11  C    6.648472   6.378091   7.335984   5.014424   5.123469
    12  C    5.983162   5.689768   6.625146   4.368024   4.483186
    13  C    4.659021   4.222659   5.106977   2.865173   2.984686
    14  H    4.471105   4.017393   4.820438   2.838530   2.939460
    15  N    3.765029   3.621060   4.714193   2.456645   3.161110
    16  C    2.549958   2.398806   3.541212   1.456035   2.563801
    17  H    3.814707   2.588380   2.313003   2.097895   1.087249
    18  H    5.526874   4.441760   4.540660   3.262069   2.022794
    19  H    5.329151   4.796007   5.544009   3.471862   3.406378
    20  H    6.547960   5.757836   6.233042   4.383455   3.741512
    21  H    7.610002   7.160905   7.949044   5.768422   5.595519
    22  H    7.737778   7.144316   7.836510   5.672836   5.246724
    23  H    6.195293   6.081513   7.127763   4.830064   5.186050
    24  H    7.643353   7.427178   8.402420   6.080543   6.183927
    25  H    5.999113   5.910892   6.938082   4.749378   5.104250
    26  H    6.743184   6.331094   7.148556   4.988116   4.858087
    27  H    2.195242   2.513560   3.718283   2.161839   3.420748
                    6          7          8          9         10
     6  N    0.000000
     7  C    1.468530   0.000000
     8  H    2.041126   1.102151   0.000000
     9  C    2.511499   1.526257   2.134652   0.000000
    10  C    3.823894   2.493810   2.650646   1.532991   0.000000
    11  C    4.342043   2.912912   3.151292   2.534039   1.532867
    12  C    3.794428   2.466628   2.587023   2.945489   2.533373
    13  C    2.509101   1.534726   2.134849   2.511495   2.957158
    14  H    2.678793   2.162570   2.492613   3.462178   3.959208
    15  N    3.178658   2.524370   3.424152   2.958144   3.496878
    16  C    3.113741   3.061616   4.065272   3.576006   4.480677
    17  H    2.068632   3.460355   4.041611   4.372673   5.786375
    18  H    1.015219   2.085808   2.312817   2.807249   4.128834
    19  H    2.842579   2.154036   3.045470   1.095866   2.171337
    20  H    2.693341   2.161448   2.506093   1.098514   2.176339
    21  H    4.651772   3.447590   3.674476   2.162262   1.095971
    22  H    4.066840   2.768915   2.465459   2.157405   1.099251
    23  H    4.638968   3.356071   3.881529   2.828566   2.159617
    24  H    5.347906   3.889228   3.921373   3.483228   2.170317
    25  H    4.626377   3.426054   3.597991   3.940140   3.482105
    26  H    3.983582   2.692742   2.338229   3.340295   2.822893
    27  H    4.115883   4.088362   5.117200   4.383396   5.216766
                   11         12         13         14         15
    11  C    0.000000
    12  C    1.528440   0.000000
    13  C    2.516373   1.533970   0.000000
    14  H    3.468983   2.165664   1.101087   0.000000
    15  N    2.891956   2.401665   1.459674   2.101903   0.000000
    16  C    4.117086   3.615063   2.360463   2.644461   1.289186
    17  H    6.176539   5.507566   4.020773   3.835931   4.220409
    18  H    4.925520   4.518856   3.398348   3.584102   4.132213
    19  H    2.826824   3.345476   2.735354   3.728852   2.598263
    20  H    3.488079   3.938893   3.466720   4.297412   3.964164
    21  H    2.170438   3.480754   3.928306   4.977023   4.202402
    22  H    2.162988   2.836753   3.412379   4.243734   4.279576
    23  H    1.095637   2.143540   2.769881   3.767571   2.550547
    24  H    1.096797   2.161659   3.468796   4.302044   3.880892
    25  H    2.165731   1.095668   2.155730   2.483986   2.615827
    26  H    2.169133   1.098355   2.162133   2.472860   3.359254
    27  H    4.764812   4.427312   3.348983   3.640999   2.035433
                   16         17         18         19         20
    16  C    0.000000
    17  H    3.493983   0.000000
    18  H    4.067866   2.320773   0.000000
    19  H    3.029055   4.341043   3.280758   0.000000
    20  H    4.393992   4.453077   2.578652   1.771651   0.000000
    21  H    5.121787   6.528135   4.870525   2.481368   2.519613
    22  H    5.267661   6.122980   4.203364   3.068373   2.466380
    23  H    3.713721   6.264894   5.313334   2.681815   3.834576
    24  H    5.140180   7.227720   5.875369   3.836496   4.319183
    25  H    3.816410   6.125678   5.439813   4.163171   4.976989
    26  H    4.474311   5.790236   4.556068   4.009162   4.152778
    27  H    1.089164   4.219161   5.024018   3.641405   5.184318
                   21         22         23         24         25
    21  H    0.000000
    22  H    1.765837   0.000000
    23  H    2.463796   3.062944   0.000000
    24  H    2.529385   2.464454   1.766313   0.000000
    25  H    4.310419   3.832948   2.452969   2.504771   0.000000
    26  H    3.833795   2.684952   3.059392   2.487078   1.769845
    27  H    5.710931   6.104381   4.143676   5.733120   4.469587
                   26         27
    26  H    0.000000
    27  H    5.376236   0.000000
 Symmetry turned off by external request.
 Stoichiometry    C9H13N3O2
 Framework group  C1[X(C9H13N3O2)]
 Deg. of freedom    75
 Full point group                 C1      NOp   1
 Rotational constants (GHZ):           1.6603447           0.4269400           0.3749596
 Standard basis: 6-31G(d) (6D, 7F)
   236 basis functions,   444 primitive gaussians,   236 cartesian basis functions
    52 alpha electrons       52 beta electrons
       nuclear repulsion energy       932.9016247025 Hartrees.
 NAtoms=   27 NActive=   27 NUniq=   27 SFac= 1.00D+00 NAtFMM=   60 NAOKFM=F Big=F
 Integral buffers will be    131072 words long.
 Raffenetti 1 integral format.
 Two-electron integral symmetry is turned off.
 One-electron integrals computed using PRISM.
 NBasis=   236 RedAO= T EigKep=  9.78D-04  NBF=   236
 NBsUse=   236 1.00D-06 EigRej= -1.00D+00 NBFU=   236
 Initial guess from the checkpoint file:  "/home/alexey/tmp/Gau-1357866.chk"
 B after Tr=     0.055517    0.005029   -0.000683
         Rot=    0.999999   -0.000417    0.000851    0.000716 Ang=  -0.14 deg.
 ExpMin= 1.61D-01 ExpMax= 5.48D+03 ExpMxC= 8.25D+02 IAcc=3 IRadAn=         5 AccDes= 0.00D+00
 Harris functional with IExCor=  205 and IRadAn=       5 diagonalized for initial guess.
 HarFok:  IExCor=  205 AccDes= 0.00D+00 IRadAn=         5 IDoV= 1 UseB2=F ITyADJ=14
 ICtDFT=  3500011 ScaDFX=  1.000000  1.000000  1.000000  1.000000
 FoFCou: FMM=F IPFlag=           0 FMFlag=      100000 FMFlg1=           0
         NFxFlg=           0 DoJE=T BraDBF=F KetDBF=T FulRan=T
         wScrn=  0.000000 ICntrl=       500 IOpCl=  0 I1Cent=   200000004 NGrid=           0
         NMat0=    1 NMatS0=      1 NMatT0=    0 NMatD0=    1 NMtDS0=    0 NMtDT0=    0
 Symmetry not used in FoFCou.
 Keep R1 ints in memory in canonical form, NReq=397720213.
 Requested convergence on RMS density matrix=1.00D-08 within 128 cycles.
 Requested convergence on MAX density matrix=1.00D-06.
 Requested convergence on             energy=1.00D-06.
 No special actions if energy rises.
 SCF Done:  E(RHF) =  -661.294473738     A.U. after   15 cycles
            NFock= 15  Conv=0.37D-08     -V/T= 2.0024
 ExpMin= 1.61D-01 ExpMax= 5.48D+03 ExpMxC= 8.25D+02 IAcc=3 IRadAn=         5 AccDes= 0.00D+00
 HarFok:  IExCor=  205 AccDes= 0.00D+00 IRadAn=         5 IDoV=-2 UseB2=F ITyADJ=14
 ICtDFT= 12500011 ScaDFX=  1.000000  1.000000  1.000000  1.000000
 Range of M.O.s used for correlation:    15   236
 NBasis=   236 NAE=    52 NBE=    52 NFC=    14 NFV=     0
 NROrb=    222 NOA=    38 NOB=    38 NVA=   184 NVB=   184
 Fully direct method using O(ONN) memory.
 JobTyp=1 Pass  1:  I=  15 to  52 NPSUse=  4 ParTrn=T ParDer=T DoDerP=T.
 Spin components of T(2) and E(2):
     alpha-alpha T2 =       0.9132141467D-01 E2=     -0.2724222988D+00
     alpha-beta  T2 =       0.4918899697D+00 E2=     -0.1488771461D+01
     beta-beta   T2 =       0.9132141467D-01 E2=     -0.2724222988D+00
 ANorm=    0.1294037402D+01
 E2 =    -0.2033616058D+01 EUMP2 =    -0.66332808979597D+03
          IDoAtm=111111111111111111111111111
          Differentiating once with respect to electric field.
                with respect to dipole field.
          Differentiating once with respect to nuclear coordinates.
 Keep R1 ints in memory in canonical form, NReq=397723379.
          There are     1 degrees of freedom in the 1st order CPHF.  IDoFFX=0 NUNeed=     1.
 LinEq1:  Iter=  0 NonCon=     1 RMS=4.57D-03 Max=1.08D-01 NDo=     1
 AX will form     1 AO Fock derivatives at one time.
 LinEq1:  Iter=  1 NonCon=     1 RMS=1.54D-03 Max=2.66D-02 NDo=     1
 LinEq1:  Iter=  2 NonCon=     1 RMS=6.44D-04 Max=1.82D-02 NDo=     1
 LinEq1:  Iter=  3 NonCon=     1 RMS=2.81D-04 Max=7.91D-03 NDo=     1
 LinEq1:  Iter=  4 NonCon=     1 RMS=8.81D-05 Max=1.86D-03 NDo=     1
 LinEq1:  Iter=  5 NonCon=     1 RMS=3.69D-05 Max=1.75D-03 NDo=     1
 LinEq1:  Iter=  6 NonCon=     1 RMS=1.47D-05 Max=5.31D-04 NDo=     1
 LinEq1:  Iter=  7 NonCon=     1 RMS=5.69D-06 Max=1.01D-04 NDo=     1
 LinEq1:  Iter=  8 NonCon=     1 RMS=2.38D-06 Max=7.76D-05 NDo=     1
[...]
                   16         17         18         19         20
    16  C    0.000000
    17  H    3.488435   0.000000
    18  H    4.119153   2.258113   0.000000
    19  H    3.006653   4.311756   3.517719   0.000000
    20  H    4.391105   4.453113   2.876298   1.768496   0.000000
    21  H    5.108532   6.519573   5.082919   2.499127   2.520462
    22  H    5.258273   6.109579   4.305865   3.070198   2.461789
    23  H    3.697345   6.247554   5.426096   2.702412   3.841932
    24  H    5.135598   7.213935   5.936865   3.848442   4.316831
    25  H    3.816738   6.105003   5.375901   4.170678   4.983766
    26  H    4.492050   5.790758   4.480117   4.030974   4.176755
    27  H    1.086332   4.225861   5.102033   3.598980   5.161061
                   21         22         23         24         25
    21  H    0.000000
    22  H    1.758942   0.000000
    23  H    2.470218   3.062501   0.000000
    24  H    2.517770   2.460178   1.764714   0.000000
    25  H    4.311655   3.837340   2.444937   2.518248   0.000000
    26  H    3.844222   2.700450   3.060312   2.493419   1.768079
    27  H    5.669991   6.073174   4.103295   5.705889   4.460364
                   26         27
    26  H    0.000000
    27  H    5.381641   0.000000
 Symmetry turned off by external request.
 Stoichiometry    C9H13N3O2
 Framework group  C1[X(C9H13N3O2)]
 Deg. of freedom    75
 Full point group                 C1      NOp   1
 Rotational constants (GHZ):           1.6523424           0.4253956           0.3751025

 **********************************************************************

            Population analysis using the SCF Density.

 **********************************************************************

 Alpha  occ. eigenvalues --  -20.59419 -20.58771 -15.84599 -15.64023 -15.55950
 Alpha  occ. eigenvalues --  -11.35223 -11.29635 -11.29187 -11.28693 -11.27079
 Alpha  occ. eigenvalues --  -11.23672 -11.23149 -11.22626 -11.22023  -1.57079
 Alpha  occ. eigenvalues --   -1.36672  -1.30859  -1.22904  -1.14564  -1.09634
 Alpha  occ. eigenvalues --   -1.02772  -1.01116  -0.94896  -0.89169  -0.85453
 Alpha  occ. eigenvalues --   -0.82397  -0.78384  -0.77399  -0.75355  -0.71783
 Alpha  occ. eigenvalues --   -0.69753  -0.69332  -0.67721  -0.64904  -0.63590
 Alpha  occ. eigenvalues --   -0.62407  -0.60483  -0.57640  -0.56946  -0.55089
 Alpha  occ. eigenvalues --   -0.54493  -0.50740  -0.50106  -0.48820  -0.47971
 Alpha  occ. eigenvalues --   -0.47316  -0.45996  -0.45918  -0.43618  -0.41495
 Alpha  occ. eigenvalues --   -0.39675  -0.33868
 Alpha virt. eigenvalues --    0.07257   0.12128   0.17221   0.21846   0.24110
 Alpha virt. eigenvalues --    0.25621   0.27138   0.28626   0.29046   0.29490
 Alpha virt. eigenvalues --    0.30531   0.31980   0.32013   0.32817   0.34026
 Alpha virt. eigenvalues --    0.34463   0.35629   0.37038   0.38542   0.40545
 Alpha virt. eigenvalues --    0.41544   0.42450   0.45329   0.46160   0.46687
 Alpha virt. eigenvalues --    0.47356   0.49269   0.53649   0.57703   0.59583
 Alpha virt. eigenvalues --    0.63714   0.69092   0.69707   0.72923   0.74148
 Alpha virt. eigenvalues --    0.74493   0.75826   0.76807   0.78636   0.79476
 Alpha virt. eigenvalues --    0.81614   0.84616   0.85765   0.86209   0.88709
 Alpha virt. eigenvalues --    0.89568   0.90991   0.92020   0.92880   0.94712
 Alpha virt. eigenvalues --    0.95915   0.98008   0.99612   1.01696   1.02637
 Alpha virt. eigenvalues --    1.03229   1.05594   1.07075   1.07888   1.08893
 Alpha virt. eigenvalues --    1.10549   1.10888   1.11992   1.12690   1.13960
 Alpha virt. eigenvalues --    1.14832   1.15052   1.15958   1.17156   1.18783
 Alpha virt. eigenvalues --    1.19121   1.21398   1.22458   1.23846   1.23961
 Alpha virt. eigenvalues --    1.24638   1.25909   1.27322   1.27389   1.29165
 Alpha virt. eigenvalues --    1.30123   1.33294   1.36190   1.38227   1.40835
 Alpha virt. eigenvalues --    1.41331   1.47232   1.49110   1.51414   1.54242
 Alpha virt. eigenvalues --    1.56206   1.57902   1.59463   1.63595   1.65239
 Alpha virt. eigenvalues --    1.67710   1.68702   1.72820   1.75576   1.78257
 Alpha virt. eigenvalues --    1.81655   1.85117   1.88178   1.90337   1.93107
 Alpha virt. eigenvalues --    1.96029   1.96714   1.99940   2.01405   2.02492
 Alpha virt. eigenvalues --    2.04304   2.05526   2.08047   2.09463   2.12821
 Alpha virt. eigenvalues --    2.13686   2.15201   2.18950   2.20155   2.22161
 Alpha virt. eigenvalues --    2.23105   2.24395   2.25258   2.28349   2.29608
 Alpha virt. eigenvalues --    2.32648   2.33557   2.34898   2.36474   2.38151
 Alpha virt. eigenvalues --    2.40767   2.41555   2.43608   2.45874   2.47925
 Alpha virt. eigenvalues --    2.50867   2.51806   2.52852   2.56033   2.61470
 Alpha virt. eigenvalues --    2.62219   2.64889   2.67141   2.70461   2.70824
 Alpha virt. eigenvalues --    2.72284   2.72425   2.77237   2.79553   2.83282
 Alpha virt. eigenvalues --    2.89001   2.89311   2.91688   2.93104   2.95878
 Alpha virt. eigenvalues --    2.99772   3.01086   3.04025   3.05541   3.07563
 Alpha virt. eigenvalues --    3.09432   3.14735   3.21650   3.24343   3.27900
 Alpha virt. eigenvalues --    3.33326   3.37154   3.37788   3.52021   3.66177
 Alpha virt. eigenvalues --    4.13565   4.27060   4.36010   4.37759   4.46149
 Alpha virt. eigenvalues --    4.56023   4.61646   4.62374   4.73463   4.79338
 Alpha virt. eigenvalues --    4.99689   5.00921   5.05288   5.11009
          Condensed to atoms (all electrons):
               1          2          3          4          5          6
     1  O    8.322343   0.304990  -0.083816  -0.079680   0.004274  -0.000014
     2  N    0.304990   5.728098   0.300242   0.265654  -0.048140   0.000907
     3  O   -0.083816   0.300242   8.350816  -0.094330   0.007145   0.000634
     4  C   -0.079680   0.265654  -0.094330   5.197530   0.577749  -0.049721
     5  C    0.004274  -0.048140   0.007145   0.577749   4.687574   0.319186
     6  N   -0.000014   0.000907   0.000634  -0.049721   0.319186   7.193037
     7  C    0.000004  -0.000159   0.000004   0.004012  -0.030424   0.170398
     8  H   -0.000000   0.000003  -0.000000  -0.000187   0.002969  -0.050564
     9  C   -0.000000  -0.000005  -0.000000   0.000699   0.001009  -0.063059
    10  C    0.000000   0.000000   0.000000  -0.000033  -0.000067   0.003774
    11  C   -0.000000  -0.000000  -0.000000  -0.000038   0.000031  -0.000191
    12  C   -0.000000   0.000003  -0.000000  -0.000089  -0.000204   0.003781
    13  C   -0.000043  -0.000064  -0.000005  -0.012673  -0.000218  -0.045481
    14  H   -0.000003  -0.000098   0.000002   0.002513   0.006144  -0.006696
    15  N    0.000430   0.002736  -0.000026  -0.066217  -0.006782   0.002028
    16  C   -0.004596  -0.038529   0.003011   0.336637  -0.050893  -0.001234
    17  H    0.000165  -0.006318   0.015567  -0.021535   0.372511  -0.033337
    18  H    0.000001  -0.000048   0.000008   0.001582  -0.030543   0.337845
    19  H    0.000001  -0.000004   0.000000  -0.001188   0.001183  -0.000308
    20  H    0.000000  -0.000000   0.000000  -0.000087   0.000186  -0.000456
    21  H   -0.000000  -0.000000  -0.000000   0.000001   0.000001  -0.000078
    22  H   -0.000000   0.000000  -0.000000  -0.000000  -0.000003  -0.000118
    23  H    0.000000  -0.000000   0.000000   0.000041   0.000001  -0.000030
    24  H    0.000000   0.000000   0.000000   0.000000  -0.000000   0.000006
    25  H    0.000000  -0.000000   0.000000   0.000025   0.000001  -0.000088
    26  H   -0.000000  -0.000000   0.000000   0.000006  -0.000000  -0.000056
    27  H    0.004791  -0.002002  -0.000005  -0.058216   0.001751   0.000026
               7          8          9         10         11         12
     1  O    0.000004  -0.000000  -0.000000   0.000000  -0.000000  -0.000000
     2  N   -0.000159   0.000003  -0.000005   0.000000  -0.000000   0.000003
     3  O    0.000004  -0.000000  -0.000000   0.000000  -0.000000  -0.000000
     4  C    0.004012  -0.000187   0.000699  -0.000033  -0.000038  -0.000089
     5  C   -0.030424   0.002969   0.001009  -0.000067   0.000031  -0.000204
     6  N    0.170398  -0.050564  -0.063059   0.003774  -0.000191   0.003781
     7  C    5.019128   0.418279   0.349950  -0.054358  -0.008993  -0.060568
     8  H    0.418279   0.538057  -0.055122   0.000758  -0.000328  -0.002489
     9  C    0.349950  -0.055122   5.158948   0.324796  -0.050488  -0.005300
    10  C   -0.054358   0.000758   0.324796   5.119221   0.336872  -0.061204
    11  C   -0.008993  -0.000328  -0.050488   0.336872   5.120208   0.336234
    12  C   -0.060568  -0.002489  -0.005300  -0.061204   0.336234   5.118237
    13  C    0.336721  -0.037465  -0.060559  -0.000323  -0.050887   0.371511
    14  H   -0.046858  -0.000696   0.004429  -0.000403   0.004201  -0.036177
    15  N   -0.057482   0.003760  -0.013691   0.001583  -0.013196  -0.081361
    16  C   -0.001477  -0.000023  -0.001078  -0.000033   0.000030   0.002687
    17  H    0.001591  -0.000052  -0.000063   0.000001   0.000000  -0.000000
    18  H   -0.020961  -0.004481   0.001363  -0.000083   0.000004  -0.000111
    19  H   -0.036970   0.004370   0.390095  -0.032177  -0.002230   0.000671
    20  H   -0.042347  -0.001980   0.399497  -0.035351   0.003935  -0.000409
    21  H    0.004584  -0.000075  -0.036376   0.402386  -0.034930   0.004366
    22  H   -0.004881   0.003563  -0.046981   0.397749  -0.045350  -0.001089
    23  H    0.000557   0.000036  -0.001969  -0.039021   0.399242  -0.038000
    24  H   -0.000127  -0.000104   0.004394  -0.038455   0.402280  -0.038678
    25  H    0.005154  -0.000019  -0.000429   0.004211  -0.033382   0.398501
    26  H   -0.003995   0.001692   0.000978  -0.002294  -0.041528   0.396575
    27  H   -0.000395   0.000008  -0.000050   0.000006   0.000011  -0.000041
              13         14         15         16         17         18
     1  O   -0.000043  -0.000003   0.000430  -0.004596   0.000165   0.000001
     2  N   -0.000064  -0.000098   0.002736  -0.038529  -0.006318  -0.000048
     3  O   -0.000005   0.000002  -0.000026   0.003011   0.015567   0.000008
     4  C   -0.012673   0.002513  -0.066217   0.336637  -0.021535   0.001582
     5  C   -0.000218   0.006144  -0.006782  -0.050893   0.372511  -0.030543
     6  N   -0.045481  -0.006696   0.002028  -0.001234  -0.033337   0.337845
     7  C    0.336721  -0.046858  -0.057482  -0.001477   0.001591  -0.020961
     8  H   -0.037465  -0.000696   0.003760  -0.000023  -0.000052  -0.004481
     9  C   -0.060559   0.004429  -0.013691  -0.001078  -0.000063   0.001363
    10  C   -0.000323  -0.000403   0.001583  -0.000033   0.000001  -0.000083
    11  C   -0.050887   0.004201  -0.013196   0.000030   0.000000   0.000004
    12  C    0.371511  -0.036177  -0.081361   0.002687  -0.000000  -0.000111
    13  C    5.041653   0.402808   0.247415  -0.072302  -0.000005   0.002802
    14  H    0.402808   0.527255  -0.037181  -0.004979   0.000097  -0.000111
    15  N    0.247415  -0.037181   6.967504   0.578643  -0.000101  -0.000128
    16  C   -0.072302  -0.004979   0.578643   4.729785   0.001913  -0.000164
    17  H   -0.000005   0.000097  -0.000101   0.001913   0.378353  -0.002652
    18  H    0.002802  -0.000111  -0.000128  -0.000164  -0.002652   0.310865
    19  H   -0.007532   0.000115   0.007690   0.002941   0.000015  -0.000149
    20  H    0.004316  -0.000068   0.000114  -0.000034   0.000003   0.000789
    21  H   -0.000440   0.000010  -0.000039   0.000004  -0.000000   0.000001
    22  H    0.000093  -0.000054   0.000017  -0.000002   0.000000   0.000001
    23  H   -0.007482   0.000007   0.008666   0.000100   0.000000   0.000000
    24  H    0.004704  -0.000057   0.000132   0.000007   0.000000  -0.000000
    25  H   -0.035672  -0.002866   0.000452  -0.000019  -0.000000   0.000002
    26  H   -0.047291  -0.001050   0.004856  -0.000063   0.000000  -0.000000
    27  H    0.004925  -0.000155  -0.038479   0.402339  -0.000076   0.000000
              19         20         21         22         23         24
     1  O    0.000001   0.000000  -0.000000  -0.000000   0.000000   0.000000
     2  N   -0.000004  -0.000000  -0.000000   0.000000  -0.000000   0.000000
     3  O    0.000000   0.000000  -0.000000  -0.000000   0.000000   0.000000
     4  C   -0.001188  -0.000087   0.000001  -0.000000   0.000041   0.000000
     5  C    0.001183   0.000186   0.000001  -0.000003   0.000001  -0.000000
     6  N   -0.000308  -0.000456  -0.000078  -0.000118  -0.000030   0.000006
     7  C   -0.036970  -0.042347   0.004584  -0.004881   0.000557  -0.000127
     8  H    0.004370  -0.001980  -0.000075   0.003563   0.000036  -0.000104
     9  C    0.390095   0.399497  -0.036376  -0.046981  -0.001969   0.004394
    10  C   -0.032177  -0.035351   0.402386   0.397749  -0.039021  -0.038455
    11  C   -0.002230   0.003935  -0.034930  -0.045350   0.399242   0.402280
    12  C    0.000671  -0.000409   0.004366  -0.001089  -0.038000  -0.038678
    13  C   -0.007532   0.004316  -0.000440   0.000093  -0.007482   0.004704
    14  H    0.000115  -0.000068   0.000010  -0.000054   0.000007  -0.000057
    15  N    0.007690   0.000114  -0.000039   0.000017   0.008666   0.000132
    16  C    0.002941  -0.000034   0.000004  -0.000002   0.000100   0.000007
    17  H    0.000015   0.000003  -0.000000   0.000000   0.000000   0.000000
    18  H   -0.000149   0.000789   0.000001   0.000001   0.000000  -0.000000
    19  H    0.505843  -0.024720  -0.002778   0.003965   0.001528  -0.000066
    20  H   -0.024720   0.541262  -0.002715  -0.002977  -0.000045  -0.000083
    21  H   -0.002778  -0.002715   0.524564  -0.027448  -0.002894  -0.002250
    22  H    0.003965  -0.002977  -0.027448   0.571642   0.004132  -0.003648
    23  H    0.001528  -0.000045  -0.002894   0.004132   0.498595  -0.025404
    24  H   -0.000066  -0.000083  -0.002250  -0.003648  -0.025404   0.538413
    25  H   -0.000029   0.000012  -0.000087  -0.000081  -0.002299  -0.002320
    26  H    0.000019  -0.000030  -0.000081   0.002394   0.004071  -0.003005
    27  H    0.000072   0.000000  -0.000000   0.000000  -0.000033  -0.000000
              25         26         27
     1  O    0.000000  -0.000000   0.004791
     2  N   -0.000000  -0.000000  -0.002002
     3  O    0.000000   0.000000  -0.000005
     4  C    0.000025   0.000006  -0.058216
     5  C    0.000001  -0.000000   0.001751
     6  N   -0.000088  -0.000056   0.000026
     7  C    0.005154  -0.003995  -0.000395
     8  H   -0.000019   0.001692   0.000008
     9  C   -0.000429   0.000978  -0.000050
    10  C    0.004211  -0.002294   0.000006
    11  C   -0.033382  -0.041528   0.000011
    12  C    0.398501   0.396575  -0.000041
    13  C   -0.035672  -0.047291   0.004925
    14  H   -0.002866  -0.001050  -0.000155
    15  N    0.000452   0.004856  -0.038479
    16  C   -0.000019  -0.000063   0.402339
    17  H   -0.000000   0.000000  -0.000076
    18  H    0.000002  -0.000000   0.000000
    19  H   -0.000029   0.000019   0.000072
    20  H    0.000012  -0.000030   0.000000
    21  H   -0.000087  -0.000081  -0.000000
    22  H   -0.000081   0.002394   0.000000
    23  H   -0.002299   0.004071  -0.000033
    24  H   -0.002320  -0.003005  -0.000000
    25  H    0.505653  -0.024100  -0.000012
    26  H   -0.024100   0.563005   0.000001
    27  H   -0.000012   0.000001   0.427258
 Mulliken charges:
               1
     1  O   -0.468847
     2  N    0.492737
     3  O   -0.499248
     4  C   -0.002455
     5  C    0.185559
     6  N   -0.780189
     7  C    0.059612
     8  H    0.180087
     9  C   -0.300989
    10  C   -0.327557
    11  C   -0.321507
    12  C   -0.306847
    13  C   -0.038505
    14  H    0.189869
    15  N   -0.511342
    16  C    0.117330
    17  H    0.293925
    18  H    0.404169
    19  H    0.189640
    20  H    0.161188
    21  H    0.174273
    22  H    0.149075
    23  H    0.200199
    24  H    0.164262
    25  H    0.187390
    26  H    0.149897
    27  H    0.258275
 Sum of Mulliken charges =  -0.00000
 Mulliken charges with hydrogens summed into heavy atoms:
               1
     1  O   -0.468847
     2  N    0.492737
     3  O   -0.499248
     4  C   -0.002455
     5  C    0.479484
     6  N   -0.376021
     7  C    0.239699
     9  C    0.049839
    10  C   -0.004209
    11  C    0.042954
    12  C    0.030440
    13  C    0.151364
    15  N   -0.511342
    16  C    0.375605
 Electronic spatial extent (au):  <R**2>=           2983.7670
 Charge=             -0.0000 electrons
 Dipole moment (field-independent basis, Debye):
    X=              5.2773    Y=              4.9751    Z=              1.3046  Tot=              7.3691
 Quadrupole moment (field-independent basis, Debye-Ang):
   XX=           -105.5154   YY=            -79.0553   ZZ=            -81.4615
   XY=             -2.1371   XZ=             -0.1184   YZ=              2.0679
 Traceless Quadrupole moment (field-independent basis, Debye-Ang):
   XX=            -16.8380   YY=              9.6221   ZZ=              7.2159
   XY=             -2.1371   XZ=             -0.1184   YZ=              2.0679
 Octapole moment (field-independent basis, Debye-Ang**2):
  XXX=             87.8442  YYY=             39.2821  ZZZ=             -1.3705  XYY=             -5.5536
  XXY=             10.8916  XXZ=              4.9523  XZZ=            -10.4252  YZZ=             -0.1549
  YYZ=              8.4487  XYZ=             -0.1730
 Hexadecapole moment (field-independent basis, Debye-Ang**3):
 XXXX=          -3331.4982 YYYY=           -612.7372 ZZZZ=           -302.0950 XXXY=            -31.7194
 XXXZ=            -13.2346 YYYX=            -20.3550 YYYZ=             25.8581 ZZZX=              2.0404
 ZZZY=              7.0924 XXYY=           -620.1637 XXZZ=           -516.6108 YYZZ=           -159.1997
 XXYZ=             -2.2264 YYXZ=              1.6297 ZZXY=              2.4003
 N-N= 9.321139044544D+02 E-N=-3.410996943849D+03  KE= 6.596238511374D+02
 Unable to Open any file for archive entry.
 1\1\GINC-LOTUS\FOpt\RMP2-FC\6-31G(d)\C9H13N3O2\ALEXEY\01-Jul-2023\0\\#
 MP2/6-31G* SCF=Tight Opt=(ModRedun, MaxCycle=20 ) NoSymm\\MolName:\\0,
 1\O,-3.4112156432,-1.4644444884,-0.3535266268\N,-3.0816129133,-0.28701
 70946,-0.1230787527\O,-3.9060942701,0.6395934806,0.0218065218\C,-1.658
 6226746,0.0302801743,-0.0015672235\C,-1.2956462355,1.3143383049,0.2753
 327617\N,-0.0436032431,1.7876051806,0.3827091805\C,1.2049901364,1.0316
 81476,0.3615704848\H,1.8590086281,1.5454503976,1.0819450212\C,1.911515
 6807,1.0395969819,-0.9933642952\C,3.3045238714,0.420658479,-0.83082696
 69\C,3.243461846,-0.9765506308,-0.2084789939\C,2.447584152,-0.98213963
 51,1.0981759275\C,1.0401155908,-0.4224044449,0.8594091422\H,0.46390436
 61,-0.3997745724,1.7980053783\N,0.3884800605,-1.3207823138,-0.09240016
 98\C,-0.8599483434,-1.1257780779,-0.3777850578\H,-2.0931981894,2.03935
 15254,0.4160861919\H,0.0338406802,2.7686344938,0.6232706538\H,1.312552
 9537,0.4686939571,-1.7111491582\H,1.9863400034,2.0676219674,-1.3690698
 468\H,3.8084446686,0.3811881617,-1.8033580659\H,3.9098059832,1.0797740
 623,-0.192277165\H,2.759206512,-1.6671672562,-0.9059640779\H,4.2590645
 861,-1.3501926396,-0.0317970904\H,2.3554679506,-2.0034953181,1.4818375
 301\H,2.9605270791,-0.3873331102,1.8665809416\H,-1.3378932359,-1.86438
 9061,-1.0150762444\\Version=ES64L-G16RevC.02\HF=-661.2962868\MP2=-663.
 3313923\RMSD=4.713e-09\RMSF=5.030e-03\Dipole=1.9316453,1.7497958,0.478
 2788\PG=C01 [X(C9H13N3O2)]\\@
 The archive entry for this job was punched.


 THE MOST BEAUTIFUL EXPERIENCE WE CAN HAVE IS THE MYSTERIOUS.
 IT IS THE FUNDAMENTAL EMOTION WHICH STANDS AT AT THE CRADLE 
 OF TRUE ART AND TRUE SCIENCE.

                                    -- ALBERT EINSTEIN
 Job cpu time:       0 days  1 hours 17 minutes  8.7 seconds.
 Elapsed time:       0 days  0 hours 23 minutes  2.0 seconds.
 File lengths (MBytes):  RWF=     36 Int=      0 D2E=      0 Chk=      7 Scr=      1
 Normal termination of Gaussian 16 at Sat Jul  1 17:34:14 2023.
