 Entering Gaussian System, Link 0=g16
 Initial command:
 /home/alexey/programs//g16/l1.exe "/home/alexey/tmp/Gau-1355479.inp" -scrdir="/home/alexey/tmp/"
 Entering Link 1 = /home/alexey/programs//g16/l1.exe PID=   1355481.
  
 Copyright (c) 1988-2021, Gaussian, Inc.  All Rights Reserved.
  
 This is part of the Gaussian(R) 16 program.  It is based on
 the Gaussian(R) 09 system (copyright 2009, Gaussian, Inc.),
 the Gaussian(R) 03 system (copyright 2003, Gaussian, Inc.),
 the Gaussian(R) 98 system (copyright 1998, Gaussian, Inc.),
 the Gaussian(R) 94 system (copyright 1995, Gaussian, Inc.),
 the Gaussian 92(TM) system (copyright 1992, Gaussian, Inc.),
 the Gaussian 90(TM) system (copyright 1990, Gaussian, Inc.),
 the Gaussian 88(TM) system (copyright 1988, Gaussian, Inc.),
 the Gaussian 86(TM) system (copyright 1986, Carnegie Mellon
 University), and the Gaussian 82(TM) system (copyright 1983,
 Carnegie Mellon University). Gaussian is a federally registered
 trademark of Gaussian, Inc.
  
 This software contains proprietary and confidential information,
 including trade secrets, belonging to Gaussian, Inc.
  
 This software is provided under written license and may be
 used, copied, transmitted, or stored only in accord with that
 written license.
  
 The following legend is applicable only to US Government
 contracts under FAR:
  
                    RESTRICTED RIGHTS LEGEND
  
 Use, reproduction and disclosure by the US Government is
 subject to restrictions as set forth in subparagraphs (a)
 and (c) of the Commercial Computer Software - Restricted
 Rights clause in FAR 52.227-19.
  
 Gaussian, Inc.
 340 Quinnipiac St., Bldg. 40, Wallingford CT 06492
  
  
 ---------------------------------------------------------------
 Warning -- This program may not be used in any manner that
 competes with the business of Gaussian, Inc. or will provide
 assistance to any competitor of Gaussian, Inc.  The licensee
 of this program is prohibited from giving any competitor of
 Gaussian, Inc. access to this program.  By using this program,
 the user acknowledges that Gaussian, Inc. is engaged in the
 business of creating and licensing software in the field of
 computational chemistry and represents and warrants to the
 licensee that it is not a competitor of Gaussian, Inc. and that
 it will not use this program in any manner prohibited above.
 ---------------------------------------------------------------
  

 Cite this work as:
 Gaussian 16, Revision C.02,
 M. J. Frisch, G. W. Trucks, H. B. Schlegel, G. E. Scuseria, 
 M. A. Robb, J. R. Cheeseman, G. Scalmani, V. Barone, 
 G. A. Petersson, H. Nakatsuji, X. Li, M. Caricato, A. V. Marenich, 
 J. Bloino, B. G. Janesko, R. Gomperts, B. Mennucci, H. P. Hratchian, 
 J. V. Ortiz, A. F. Izmaylov, J. L. Sonnenberg, D. Williams-Young, 
 F. Ding, F. Lipparini, F. Egidi, J. Goings, B. Peng, A. Petrone, 
 T. Henderson, D. Ranasinghe, V. G. Zakrzewski, J. Gao, N. Rega, 
 G. Zheng, W. Liang, M. Hada, M. Ehara, K. Toyota, R. Fukuda, 
 J. Hasegawa, M. Ishida, T. Nakajima, Y. Honda, O. Kitao, H. Nakai, 
 T. Vreven, K. Throssell, J. A. Montgomery, Jr., J. E. Peralta, 
 F. Ogliaro, M. J. Bearpark, J. J. Heyd, E. N. Brothers, K. N. Kudin, 
 V. N. Staroverov, T. A. Keith, R. Kobayashi, J. Normand, 
 K. Raghavachari, A. P. Rendell, J. C. Burant, S. S. Iyengar, 
 J. Tomasi, M. Cossi, J. M. Millam, M. Klene, C. Adamo, R. Cammi, 
 J. W. Ochterski, R. L. Martin, K. Morokuma, O. Farkas, 
 J. B. Foresman, and D. J. Fox, Gaussian, Inc., Wallingford CT, 2019.
 
 ******************************************
 Gaussian 16:  ES64L-G16RevC.02  7-Dec-2021
                 1-Jul-2023 
 ******************************************
 %mem=8GB
 %NPROCS=4
 Will use up to    4 processors via shared memory.
 %NoSave
 ---------------------------------------------------------
 #MP2/6-31G* SCF=Tight Opt=(ModRedun, MaxCycle=20 ) NoSymm
 ---------------------------------------------------------
 1/6=20,18=120,19=15,38=1/1,3;
 2/9=110,12=2,15=1,17=6,18=5,40=1/2;
 3/5=1,6=6,7=1,11=9,25=1,30=1,71=1/1,2,3;
 4//1;
 5/5=2,32=2,38=5/2;
 8/6=4,10=2/1;
 9/15=2,16=-3/6;
 10/5=1,31=1/2;
 6/7=2,8=2,9=2,10=2/1;
 7/12=2,30=1/1,2,3,16;
 1/6=20,18=20,19=15/3(2);
 2/9=110,15=1/2;
 99//99;
 2/9=110,15=1/2;
 3/5=1,6=6,7=1,11=9,25=1,30=1,71=1/1,2,3;
 4/5=5,16=3,69=1/1;
 5/5=2,32=2,38=5/2;
 8/6=4,10=2/1;
 9/15=2,16=-3/6;
 10/5=1,31=1/2;
 7/12=2,30=1/1,2,3,16;
 1/6=20,18=20,19=15/3(-8);
 2/9=110,15=1/2;
 6/7=2,8=2,9=2,10=2/1;
 99/9=10/99;
 --------
 MolName:
 --------
 Symbolic Z-matrix:
 Charge =  0 Multiplicity = 1
 8                    0    -3.58852  -1.47492  -0.2055 
 7                    0    -3.23876  -0.30566  -0.04517 
 8                    0    -4.03105   0.62429   0.10642 
 6                    0    -1.7441    0.03185  -0.03824 
 6                    0    -1.36471   1.33918   0.27354 
 7                    0    -0.0748    1.78326   0.40177 
 6                    0     1.19903   1.00009   0.36786 
 1                    0     1.86788   1.49158   1.12124 
 6                    0     1.95975   1.05112  -0.98065 
 6                    0     3.36956   0.45739  -0.79746 
 6                    0     3.30308  -0.95991  -0.20683 
 6                    0     2.45897  -0.99318   1.08539 
 6                    0     1.02341  -0.4516    0.84351 
 1                    0     0.47742  -0.48995   1.81521 
 7                    0     0.36048  -1.31996  -0.13419 
 6                    0    -0.88145  -1.11616  -0.42826 
 1                    0    -2.15677   2.07722   0.48259 
 1                    0     0.16534   2.76529   0.24593 
 1                    0     1.40493   0.47884  -1.75436 
 1                    0     2.05001   2.10152  -1.33018 
 1                    0     3.90095   0.4336   -1.774 
 1                    0     3.95202   1.10659  -0.10613 
 1                    0     2.85041  -1.64515  -0.95869 
 1                    0     4.33011  -1.32897   0.00588 
 1                    0     2.39769  -2.04008   1.45553 
 1                    0     2.95772  -0.38568   1.86938 
 1                    0    -1.3866   -1.86659  -1.0556 
 
 The following ModRedundant input section has been read:
 A       2       4      16 F                                                   
 D       1       2       4      16 F                                           
 D       7      13      15      16 F                                           
 D       7       9      10      11 F                                           
 D       9      10      11      12 F                                           
 D       6       7      13      15 F                                           
 

 GradGradGradGradGradGradGradGradGradGradGradGradGradGradGradGradGradGrad
 Berny optimization.
 Initialization pass.
                           ----------------------------
                           !    Initial Parameters    !
                           ! (Angstroms and Degrees)  !
 --------------------------                            --------------------------
 ! Name  Definition              Value          Derivative Info.                !
 --------------------------------------------------------------------------------
 ! R1    R(1,2)                  1.2309         estimate D2E/DX2                !
 ! R2    R(2,3)                  1.2311         estimate D2E/DX2                !
 ! R3    R(2,4)                  1.5323         estimate D2E/DX2                !
 ! R4    R(4,5)                  1.3965         estimate D2E/DX2                !
 ! R5    R(4,16)                 1.488          estimate D2E/DX2                !
 ! R6    R(5,6)                  1.3702         estimate D2E/DX2                !
 ! R7    R(5,17)                 1.1026         estimate D2E/DX2                !
 ! R8    R(6,7)                  1.4957         estimate D2E/DX2                !
 ! R9    R(6,18)                 1.0229         estimate D2E/DX2                !
 ! R10   R(7,8)                  1.1209         estimate D2E/DX2                !
 ! R11   R(7,9)                  1.5491         estimate D2E/DX2                !
 ! R12   R(7,13)                 1.5377         estimate D2E/DX2                !
 ! R13   R(9,10)                 1.5407         estimate D2E/DX2                !
 ! R14   R(9,19)                 1.1108         estimate D2E/DX2                !
 ! R15   R(9,20)                 1.1107         estimate D2E/DX2                !
 ! R16   R(10,11)                1.5369         estimate D2E/DX2                !
 ! R17   R(10,21)                1.112          estimate D2E/DX2                !
 ! R18   R(10,22)                1.1129         estimate D2E/DX2                !
 ! R19   R(11,12)                1.5438         estimate D2E/DX2                !
 ! R20   R(11,23)                1.1134         estimate D2E/DX2                !
 ! R21   R(11,24)                1.1119         estimate D2E/DX2                !
 ! R22   R(12,13)                1.5533         estimate D2E/DX2                !
 ! R23   R(12,25)                1.1121         estimate D2E/DX2                !
 ! R24   R(12,26)                1.1102         estimate D2E/DX2                !
 ! R25   R(13,14)                1.1152         estimate D2E/DX2                !
 ! R26   R(13,15)                1.4661         estimate D2E/DX2                !
 ! R27   R(15,16)                1.2924         estimate D2E/DX2                !
 ! R28   R(16,27)                1.1009         estimate D2E/DX2                !
 ! A1    A(1,2,3)              123.4168         estimate D2E/DX2                !
 ! A2    A(1,2,4)              119.1419         estimate D2E/DX2                !
 ! A3    A(3,2,4)              117.4404         estimate D2E/DX2                !
 ! A4    A(2,4,5)              118.1772         estimate D2E/DX2                !
 ! A5    A(2,4,16)             113.2265         Frozen                          !
 ! A6    A(5,4,16)             128.5541         estimate D2E/DX2                !
 ! A7    A(4,5,6)              125.4529         estimate D2E/DX2                !
 ! A8    A(4,5,17)             118.2801         estimate D2E/DX2                !
 ! A9    A(6,5,17)             116.2038         estimate D2E/DX2                !
 ! A10   A(5,6,7)              129.0439         estimate D2E/DX2                !
 ! A11   A(5,6,18)             121.1906         estimate D2E/DX2                !
 ! A12   A(7,6,18)             107.4153         estimate D2E/DX2                !
 ! A13   A(6,7,8)              105.269          estimate D2E/DX2                !
 ! A14   A(6,7,9)              114.8792         estimate D2E/DX2                !
 ! A15   A(6,7,13)             112.9573         estimate D2E/DX2                !
 ! A16   A(8,7,9)              106.1173         estimate D2E/DX2                !
 ! A17   A(8,7,13)             105.9138         estimate D2E/DX2                !
 ! A18   A(9,7,13)             110.8825         estimate D2E/DX2                !
 ! A19   A(7,9,10)             109.4606         estimate D2E/DX2                !
 ! A20   A(7,9,19)             110.1253         estimate D2E/DX2                !
 ! A21   A(7,9,20)             110.1817         estimate D2E/DX2                !
 ! A22   A(10,9,19)            109.9575         estimate D2E/DX2                !
 ! A23   A(10,9,20)            109.1175         estimate D2E/DX2                !
 ! A24   A(19,9,20)            107.9755         estimate D2E/DX2                !
 ! A25   A(9,10,11)            111.1924         estimate D2E/DX2                !
 ! A26   A(9,10,21)            109.9442         estimate D2E/DX2                !
 ! A27   A(9,10,22)            109.1452         estimate D2E/DX2                !
 ! A28   A(11,10,21)           109.7811         estimate D2E/DX2                !
 ! A29   A(11,10,22)           108.7748         estimate D2E/DX2                !
 ! A30   A(21,10,22)           107.9318         estimate D2E/DX2                !
 ! A31   A(10,11,12)           111.4194         estimate D2E/DX2                !
 ! A32   A(10,11,23)           109.0032         estimate D2E/DX2                !
 ! A33   A(10,11,24)           109.8566         estimate D2E/DX2                !
 ! A34   A(12,11,23)           109.2477         estimate D2E/DX2                !
 ! A35   A(12,11,24)           109.7404         estimate D2E/DX2                !
 ! A36   A(23,11,24)           107.4838         estimate D2E/DX2                !
 ! A37   A(11,12,13)           111.5595         estimate D2E/DX2                !
 ! A38   A(11,12,25)           109.208          estimate D2E/DX2                !
 ! A39   A(11,12,26)           109.4915         estimate D2E/DX2                !
 ! A40   A(13,12,25)           109.2161         estimate D2E/DX2                !
 ! A41   A(13,12,26)           109.5352         estimate D2E/DX2                !
 ! A42   A(25,12,26)           107.7492         estimate D2E/DX2                !
 ! A43   A(7,13,12)            105.7705         estimate D2E/DX2                !
 ! A44   A(7,13,14)            110.9707         estimate D2E/DX2                !
 ! A45   A(7,13,15)            113.8617         estimate D2E/DX2                !
 ! A46   A(12,13,14)           107.7461         estimate D2E/DX2                !
 ! A47   A(12,13,15)           108.3753         estimate D2E/DX2                !
 ! A48   A(14,13,15)           109.8343         estimate D2E/DX2                !
 ! A49   A(13,15,16)           119.5275         estimate D2E/DX2                !
 ! A50   A(4,16,15)            128.2498         estimate D2E/DX2                !
 ! A51   A(4,16,27)            114.1585         estimate D2E/DX2                !
 ! A52   A(15,16,27)           117.5879         estimate D2E/DX2                !
 ! D1    D(1,2,4,5)           -173.9025         estimate D2E/DX2                !
 ! D2    D(1,2,4,16)             8.258          Frozen                          !
 ! D3    D(3,2,4,5)              6.4164         estimate D2E/DX2                !
 ! D4    D(3,2,4,16)          -171.423          estimate D2E/DX2                !
 ! D5    D(2,4,5,6)            175.8486         estimate D2E/DX2                !
 ! D6    D(2,4,5,17)            -1.1401         estimate D2E/DX2                !
 ! D7    D(16,4,5,6)            -6.6905         estimate D2E/DX2                !
 ! D8    D(16,4,5,17)          176.3208         estimate D2E/DX2                !
 ! D9    D(2,4,16,15)         -156.0345         estimate D2E/DX2                !
 ! D10   D(2,4,16,27)           24.7053         estimate D2E/DX2                !
 ! D11   D(5,4,16,15)           26.401          estimate D2E/DX2                !
 ! D12   D(5,4,16,27)         -152.8591         estimate D2E/DX2                !
 ! D13   D(4,5,6,7)             -5.9664         estimate D2E/DX2                !
 ! D14   D(4,5,6,18)           154.3366         estimate D2E/DX2                !
 ! D15   D(17,5,6,7)           171.078          estimate D2E/DX2                !
 ! D16   D(17,5,6,18)          -28.619          estimate D2E/DX2                !
 ! D17   D(5,6,7,8)           -143.3122         estimate D2E/DX2                !
 ! D18   D(5,6,7,9)            100.3415         estimate D2E/DX2                !
 ! D19   D(5,6,7,13)           -28.2053         estimate D2E/DX2                !
 ! D20   D(18,6,7,8)            54.2762         estimate D2E/DX2                !
 ! D21   D(18,6,7,9)           -62.0701         estimate D2E/DX2                !
 ! D22   D(18,6,7,13)          169.3831         estimate D2E/DX2                !
 ! D23   D(6,7,9,10)           168.5179         estimate D2E/DX2                !
 ! D24   D(6,7,9,19)           -70.4829         estimate D2E/DX2                !
 ! D25   D(6,7,9,20)            48.5213         estimate D2E/DX2                !
 ! D26   D(8,7,9,10)            52.6581         estimate D2E/DX2                !
 ! D27   D(8,7,9,19)           173.6573         estimate D2E/DX2                !
 ! D28   D(8,7,9,20)           -67.3386         estimate D2E/DX2                !
 ! D29   D(13,7,9,10)          -61.9063         estimate D2E/DX2                !
 ! D30   D(13,7,9,19)           59.0929         estimate D2E/DX2                !
 ! D31   D(13,7,9,20)          178.097          estimate D2E/DX2                !
 ! D32   D(6,7,13,12)         -166.0889         estimate D2E/DX2                !
 ! D33   D(6,7,13,14)          -49.5099         estimate D2E/DX2                !
 ! D34   D(6,7,13,15)           75.0224         Frozen                          !
 ! D35   D(8,7,13,12)          -51.3694         estimate D2E/DX2                !
 ! D36   D(8,7,13,14)           65.2096         estimate D2E/DX2                !
 ! D37   D(8,7,13,15)         -170.2581         estimate D2E/DX2                !
 ! D38   D(9,7,13,12)           63.3225         estimate D2E/DX2                !
 ! D39   D(9,7,13,14)          179.9014         estimate D2E/DX2                !
 ! D40   D(9,7,13,15)          -55.5663         estimate D2E/DX2                !
 ! D41   D(7,9,10,11)           54.8121         Frozen                          !
 ! D42   D(7,9,10,21)          176.6032         estimate D2E/DX2                !
 ! D43   D(7,9,10,22)          -65.1884         estimate D2E/DX2                !
 ! D44   D(19,9,10,11)         -66.2888         estimate D2E/DX2                !
 ! D45   D(19,9,10,21)          55.5024         estimate D2E/DX2                !
 ! D46   D(19,9,10,22)         173.7107         estimate D2E/DX2                !
 ! D47   D(20,9,10,11)         175.4585         estimate D2E/DX2                !
 ! D48   D(20,9,10,21)         -62.7504         estimate D2E/DX2                !
 ! D49   D(20,9,10,22)          55.4579         estimate D2E/DX2                !
 ! D50   D(9,10,11,12)         -52.8222         Frozen                          !
 ! D51   D(9,10,11,23)          67.8164         estimate D2E/DX2                !
 ! D52   D(9,10,11,24)        -174.6537         estimate D2E/DX2                !
 ! D53   D(21,10,11,12)       -174.7082         estimate D2E/DX2                !
 ! D54   D(21,10,11,23)        -54.0696         estimate D2E/DX2                !
 ! D55   D(21,10,11,24)         63.4603         estimate D2E/DX2                !
 ! D56   D(22,10,11,12)         67.3978         estimate D2E/DX2                !
 ! D57   D(22,10,11,23)       -171.9636         estimate D2E/DX2                !
 ! D58   D(22,10,11,24)        -54.4337         estimate D2E/DX2                !
 ! D59   D(10,11,12,13)         56.6794         estimate D2E/DX2                !
 ! D60   D(10,11,12,25)        177.5038         estimate D2E/DX2                !
 ! D61   D(10,11,12,26)        -64.7367         estimate D2E/DX2                !
 ! D62   D(23,11,12,13)        -63.8156         estimate D2E/DX2                !
 ! D63   D(23,11,12,25)         57.0087         estimate D2E/DX2                !
 ! D64   D(23,11,12,26)        174.7683         estimate D2E/DX2                !
 ! D65   D(24,11,12,13)        178.5782         estimate D2E/DX2                !
 ! D66   D(24,11,12,25)        -60.5974         estimate D2E/DX2                !
 ! D67   D(24,11,12,26)         57.1621         estimate D2E/DX2                !
 ! D68   D(11,12,13,7)         -60.4381         estimate D2E/DX2                !
 ! D69   D(11,12,13,14)       -179.179          estimate D2E/DX2                !
 ! D70   D(11,12,13,15)         62.0245         estimate D2E/DX2                !
 ! D71   D(25,12,13,7)         178.7422         estimate D2E/DX2                !
 ! D72   D(25,12,13,14)         60.0013         estimate D2E/DX2                !
 ! D73   D(25,12,13,15)        -58.7951         estimate D2E/DX2                !
 ! D74   D(26,12,13,7)          60.9526         estimate D2E/DX2                !
 ! D75   D(26,12,13,14)        -57.7884         estimate D2E/DX2                !
 ! D76   D(26,12,13,15)       -176.5848         estimate D2E/DX2                !
 ! D77   D(7,13,15,16)         -67.1604         Frozen                          !
 ! D78   D(12,13,15,16)        175.4468         estimate D2E/DX2                !
 ! D79   D(14,13,15,16)         57.9793         estimate D2E/DX2                !
 ! D80   D(13,15,16,4)           9.0986         estimate D2E/DX2                !
 ! D81   D(13,15,16,27)       -171.663          estimate D2E/DX2                !
 --------------------------------------------------------------------------------
 Trust Radius=3.00D-01 FncErr=1.00D-07 GrdErr=1.00D-07 EigMax=2.50D+02 EigMin=1.00D-04
 Number of steps in this run=     20 maximum allowed number of steps=    162.
 GradGradGradGradGradGradGradGradGradGradGradGradGradGradGradGradGradGrad

                          Input orientation:                          
 ---------------------------------------------------------------------
 Center     Atomic      Atomic             Coordinates (Angstroms)
 Number     Number       Type             X           Y           Z
 ---------------------------------------------------------------------
      1          8           0       -3.588520   -1.474920   -0.205500
      2          7           0       -3.238760   -0.305660   -0.045170
      3          8           0       -4.031050    0.624290    0.106420
      4          6           0       -1.744100    0.031850   -0.038240
      5          6           0       -1.364710    1.339180    0.273540
      6          7           0       -0.074800    1.783260    0.401770
      7          6           0        1.199030    1.000090    0.367860
      8          1           0        1.867880    1.491580    1.121240
      9          6           0        1.959750    1.051120   -0.980650
     10          6           0        3.369560    0.457390   -0.797460
     11          6           0        3.303080   -0.959910   -0.206830
     12          6           0        2.458970   -0.993180    1.085390
     13          6           0        1.023410   -0.451600    0.843510
     14          1           0        0.477420   -0.489950    1.815210
     15          7           0        0.360480   -1.319960   -0.134190
     16          6           0       -0.881450   -1.116160   -0.428260
     17          1           0       -2.156770    2.077220    0.482590
     18          1           0        0.165340    2.765290    0.245930
     19          1           0        1.404930    0.478840   -1.754360
     20          1           0        2.050010    2.101520   -1.330180
     21          1           0        3.900950    0.433600   -1.774000
     22          1           0        3.952020    1.106590   -0.106130
     23          1           0        2.850410   -1.645150   -0.958690
     24          1           0        4.330110   -1.328970    0.005880
     25          1           0        2.397690   -2.040080    1.455530
     26          1           0        2.957720   -0.385680    1.869380
     27          1           0       -1.386600   -1.866590   -1.055600
 ---------------------------------------------------------------------
                    Distance matrix (angstroms):
                    1          2          3          4          5
     1  O    0.000000
     2  N    1.230937   0.000000
     3  O    2.167904   1.231061   0.000000
     4  C    2.387513   1.532309   2.366865   0.000000
     5  C    3.618559   2.513790   2.765568   1.396515   0.000000
     6  N    4.830191   3.817589   4.133081   2.459189   1.370225
     7  C    5.419876   4.644304   5.250077   3.124807   2.587787
     8  H    6.350800   5.537902   6.048093   4.064678   3.345364
     9  C    6.145326   5.453483   6.103572   3.955446   3.564829
    10  C    7.245627   6.694631   7.457472   5.187197   4.933346
    11  C    6.910817   6.576462   7.509812   5.146459   5.225403
    12  C    6.202468   5.849357   6.759804   4.469791   4.551871
    13  C    4.839164   4.356276   5.220001   2.944540   3.038894
    14  H    4.645999   4.159924   4.948515   2.939847   3.019256
    15  N    3.952682   3.740489   4.808694   2.503169   3.195864
    16  C    2.739810   2.522019   3.637998   1.488021   2.598992
    17  H    3.891153   2.669710   2.401132   2.150604   1.102617
    18  H    5.681077   4.593840   4.713070   3.346402   2.091795
    19  H    5.581280   5.010053   5.747481   3.614036   3.538851
    20  H    6.771178   5.951206   6.420695   4.510866   3.848817
    21  H    7.886368   7.383144   8.154077   5.919532   5.721859
    22  H    7.970810   7.328402   8.000450   5.797021   5.335341
    23  H    6.485067   6.301329   7.323886   4.976854   5.309600
    24  H    7.922795   7.637903   8.586870   6.224934   6.294572
    25  H    6.238039   6.085218   7.088559   4.866073   5.193472
    26  H    6.953045   6.486006   7.278116   5.091214   4.919883
    27  H    2.392598   2.624494   3.814170   2.183324   3.470454
                    6          7          8          9         10
     6  N    0.000000
     7  C    1.495710   0.000000
     8  H    2.092061   1.120939   0.000000
     9  C    2.566419   1.549122   2.149508   0.000000
    10  C    3.880683   2.522636   2.646885   1.540662   0.000000
    11  C    4.393797   2.932387   3.135821   2.539207   1.536881
    12  C    3.820464   2.464837   2.554350   2.949051   2.545280
    13  C    2.528992   1.537690   2.136870   2.542137   3.003908
    14  H    2.733175   2.199037   2.518221   3.519806   4.010981
    15  N    3.179103   2.517509   3.428282   2.982646   3.557171
    16  C    3.121902   3.072575   4.093907   3.615889   4.547907
    17  H    2.104173   3.526296   4.116875   4.487727   5.899381
    18  H    1.022906   2.049223   2.299380   2.768174   4.084372
    19  H    2.922329   2.194975   3.083673   1.110836   2.185381
    20  H    2.759666   2.195599   2.532718   1.110702   2.174435
    21  H    4.728863   3.494116   3.692575   2.186091   1.112012
    22  H    4.114745   2.795525   2.449141   2.176465   1.112950
    23  H    4.707621   3.388818   3.889801   2.839653   2.171678
    24  H    5.407951   3.919083   3.906675   3.500954   2.181535
    25  H    4.673494   3.444190   3.586791   3.960086   3.501121
    26  H    4.006789   2.695906   2.295990   3.344101   2.827086
    27  H    4.143205   4.114556   5.158253   4.440350   5.299866
                   11         12         13         14         15
    11  C    0.000000
    12  C    1.543846   0.000000
    13  C    2.560955   1.553270   0.000000
    14  H    3.506260   2.170810   1.115247   0.000000
    15  N    2.965435   2.449045   1.466091   2.121969   0.000000
    16  C    4.193297   3.669423   2.384854   2.696632   1.292440
    17  H    6.285652   5.576359   4.079061   3.912185   4.272914
    18  H    4.891576   4.482357   3.382568   3.627206   4.107534
    19  H    2.840392   3.367792   2.785714   3.813222   2.636571
    20  H    3.493487   3.947074   3.506745   4.368322   3.998928
    21  H    2.180674   3.505869   3.989383   5.045387   4.277719
    22  H    2.168337   2.838653   3.450584   4.279408   4.334523
    23  H    1.113444   2.180952   2.830268   3.828850   2.642972
    24  H    1.111864   2.186152   3.522168   4.338300   3.972111
    25  H    2.179435   1.112096   2.187803   2.493935   2.682537
    26  H    2.181665   1.110157   2.190504   2.483082   3.410693
    27  H    4.851348   4.487214   3.378900   3.689344   2.049412
                   16         17         18         19         20
    16  C    0.000000
    17  H    3.557213   0.000000
    18  H    4.076267   2.433443   0.000000
    19  H    3.087086   4.499386   3.281097   0.000000
    20  H    4.445265   4.580799   2.544935   1.796983   0.000000
    21  H    5.204241   6.670057   4.844758   2.496507   2.530793
    22  H    5.329805   6.213375   4.148997   3.098128   2.470997
    23  H    3.806306   6.403529   5.302140   2.689579   3.849179
    24  H    5.233940   7.342275   5.845160   3.863069   4.330378
    25  H    3.892949   6.216259   5.434896   4.199277   5.003390
    26  H    4.533429   5.843550   4.512382   4.036093   4.152985
    27  H    1.100853   4.302654   5.055374   3.712404   5.256575
                   21         22         23         24         25
    21  H    0.000000
    22  H    1.799254   0.000000
    23  H    2.467705   3.084230   0.000000
    24  H    2.541418   2.467276   1.794402   0.000000
    25  H    4.336905   3.841387   2.487847   2.518216   0.000000
    26  H    3.851639   2.667985   3.097702   2.499176   1.794978
    27  H    5.810779   6.184024   4.243899   5.839225   4.544967
                   26         27
    26  H    0.000000
    27  H    5.442584   0.000000
 Symmetry turned off by external request.
 Stoichiometry    C9H13N3O2
 Framework group  C1[X(C9H13N3O2)]
 Deg. of freedom    75
 Full point group                 C1      NOp   1
 Rotational constants (GHZ):           1.6602724           0.4026192           0.3564918
 Standard basis: 6-31G(d) (6D, 7F)
   236 basis functions,   444 primitive gaussians,   236 cartesian basis functions
    52 alpha electrons       52 beta electrons
       nuclear repulsion energy       917.7581419807 Hartrees.
 NAtoms=   27 NActive=   27 NUniq=   27 SFac= 1.00D+00 NAtFMM=   60 NAOKFM=F Big=F
 Integral buffers will be    131072 words long.
 Raffenetti 1 integral format.
 Two-electron integral symmetry is turned off.
 One-electron integrals computed using PRISM.
 NBasis=   236 RedAO= T EigKep=  1.25D-03  NBF=   236
 NBsUse=   236 1.00D-06 EigRej= -1.00D+00 NBFU=   236
 ExpMin= 1.61D-01 ExpMax= 5.48D+03 ExpMxC= 8.25D+02 IAcc=3 IRadAn=         5 AccDes= 0.00D+00
 Harris functional with IExCor=  205 and IRadAn=       5 diagonalized for initial guess.
 HarFok:  IExCor=  205 AccDes= 0.00D+00 IRadAn=         5 IDoV= 1 UseB2=F ITyADJ=14
 ICtDFT=  3500011 ScaDFX=  1.000000  1.000000  1.000000  1.000000
 FoFCou: FMM=F IPFlag=           0 FMFlag=      100000 FMFlg1=           0
         NFxFlg=           0 DoJE=T BraDBF=F KetDBF=T FulRan=T
         wScrn=  0.000000 ICntrl=       500 IOpCl=  0 I1Cent=   200000004 NGrid=           0
         NMat0=    1 NMatS0=      1 NMatT0=    0 NMatD0=    1 NMtDS0=    0 NMtDT0=    0
 Symmetry not used in FoFCou.
 Keep R1 ints in memory in canonical form, NReq=397720213.
 Requested convergence on RMS density matrix=1.00D-08 within 128 cycles.
 Requested convergence on MAX density matrix=1.00D-06.
 Requested convergence on             energy=1.00D-06.
 No special actions if energy rises.
 SCF Done:  E(RHF) =  -661.280356924     A.U. after   16 cycles
            NFock= 16  Conv=0.88D-08     -V/T= 2.0037
 ExpMin= 1.61D-01 ExpMax= 5.48D+03 ExpMxC= 8.25D+02 IAcc=3 IRadAn=         5 AccDes= 0.00D+00
 HarFok:  IExCor=  205 AccDes= 0.00D+00 IRadAn=         5 IDoV=-2 UseB2=F ITyADJ=14
 ICtDFT= 12500011 ScaDFX=  1.000000  1.000000  1.000000  1.000000
 Range of M.O.s used for correlation:    15   236
 NBasis=   236 NAE=    52 NBE=    52 NFC=    14 NFV=     0
 NROrb=    222 NOA=    38 NOB=    38 NVA=   184 NVB=   184
 Fully direct method using O(ONN) memory.
 JobTyp=1 Pass  1:  I=  15 to  52 NPSUse=  4 ParTrn=T ParDer=T DoDerP=T.
 Spin components of T(2) and E(2):
     alpha-alpha T2 =       0.9197218541D-01 E2=     -0.2717477268D+00
     alpha-beta  T2 =       0.4998320388D+00 E2=     -0.1493904128D+01
     beta-beta   T2 =       0.9197218541D-01 E2=     -0.2717477268D+00
 ANorm=    0.1297604104D+01
 E2 =    -0.2037399582D+01 EUMP2 =    -0.66331775650604D+03
          IDoAtm=111111111111111111111111111
          Differentiating once with respect to electric field.
                with respect to dipole field.
          Differentiating once with respect to nuclear coordinates.
 Keep R1 ints in memory in canonical form, NReq=397723379.
          There are     1 degrees of freedom in the 1st order CPHF.  IDoFFX=0 NUNeed=     1.
 LinEq1:  Iter=  0 NonCon=     1 RMS=4.61D-03 Max=1.12D-01 NDo=     1
 AX will form     1 AO Fock derivatives at one time.
 LinEq1:  Iter=  1 NonCon=     1 RMS=1.56D-03 Max=2.79D-02 NDo=     1
 LinEq1:  Iter=  2 NonCon=     1 RMS=6.41D-04 Max=1.80D-02 NDo=     1
 LinEq1:  Iter=  3 NonCon=     1 RMS=2.94D-04 Max=8.99D-03 NDo=     1
 LinEq1:  Iter=  4 NonCon=     1 RMS=9.03D-05 Max=2.10D-03 NDo=     1
 LinEq1:  Iter=  5 NonCon=     1 RMS=3.74D-05 Max=1.86D-03 NDo=     1
 LinEq1:  Iter=  6 NonCon=     1 RMS=1.52D-05 Max=5.92D-04 NDo=     1
 LinEq1:  Iter=  7 NonCon=     1 RMS=5.80D-06 Max=9.56D-05 NDo=     1
 LinEq1:  Iter=  8 NonCon=     1 RMS=2.30D-06 Max=5.20D-05 NDo=     1
 LinEq1:  Iter=  9 NonCon=     1 RMS=8.19D-07 Max=2.18D-05 NDo=     1
 LinEq1:  Iter= 10 NonCon=     1 RMS=4.07D-07 Max=1.53D-05 NDo=     1
 LinEq1:  Iter= 11 NonCon=     1 RMS=1.50D-07 Max=5.52D-06 NDo=     1
 LinEq1:  Iter= 12 NonCon=     1 RMS=5.35D-08 Max=8.44D-07 NDo=     1
 LinEq1:  Iter= 13 NonCon=     1 RMS=1.69D-08 Max=3.30D-07 NDo=     1
 LinEq1:  Iter= 14 NonCon=     1 RMS=5.33D-09 Max=1.38D-07 NDo=     1
 LinEq1:  Iter= 15 NonCon=     1 RMS=1.96D-09 Max=4.73D-08 NDo=     1
 LinEq1:  Iter= 16 NonCon=     1 RMS=7.37D-10 Max=1.26D-08 NDo=     1
 LinEq1:  Iter= 17 NonCon=     1 RMS=2.47D-10 Max=3.74D-09 NDo=     1
 LinEq1:  Iter= 18 NonCon=     1 RMS=8.52D-11 Max=1.01D-09 NDo=     1
 LinEq1:  Iter= 19 NonCon=     0 RMS=2.87D-11 Max=3.76D-10 NDo=     1
 Linear equations converged to 1.000D-10 1.000D-09 after    19 iterations.
 End of Minotr F.D. properties file   721 does not exist.
 End of Minotr F.D. properties file   722 does not exist.
 End of Minotr F.D. properties file   788 does not exist.

 **********************************************************************

            Population analysis using the SCF Density.

 **********************************************************************

 Alpha  occ. eigenvalues --  -20.59838 -20.59307 -15.85168 -15.63386 -15.56683
 Alpha  occ. eigenvalues --  -11.35985 -11.30302 -11.30111 -11.30109 -11.27684
 Alpha  occ. eigenvalues --  -11.24627 -11.23872 -11.23380 -11.22833  -1.58407
 Alpha  occ. eigenvalues --   -1.37885  -1.28601  -1.22643  -1.13246  -1.08285
 Alpha  occ. eigenvalues --   -1.01810  -1.00621  -0.93804  -0.88698  -0.84909
 Alpha  occ. eigenvalues --   -0.81526  -0.77927  -0.76925  -0.74414  -0.71058
 Alpha  occ. eigenvalues --   -0.70277  -0.69681  -0.67356  -0.64395  -0.63197
 Alpha  occ. eigenvalues --   -0.61667  -0.60455  -0.57429  -0.56450  -0.54841
 Alpha  occ. eigenvalues --   -0.53659  -0.50733  -0.49389  -0.48557  -0.47733
 Alpha  occ. eigenvalues --   -0.47657  -0.46124  -0.45646  -0.43943  -0.42045
 Alpha  occ. eigenvalues --   -0.39769  -0.33768
 Alpha virt. eigenvalues --    0.07269   0.11996   0.18053   0.21359   0.23440
 Alpha virt. eigenvalues --    0.24267   0.26242   0.27793   0.28557   0.28845
 Alpha virt. eigenvalues --    0.29835   0.31164   0.31834   0.32300   0.33369
 Alpha virt. eigenvalues --    0.33773   0.34113   0.35457   0.37611   0.38738
 Alpha virt. eigenvalues --    0.40636   0.41770   0.44569   0.45266   0.45493
 Alpha virt. eigenvalues --    0.46212   0.49746   0.53153   0.57450   0.59023
 Alpha virt. eigenvalues --    0.63250   0.68833   0.69192   0.72193   0.73950
 Alpha virt. eigenvalues --    0.74749   0.75752   0.75852   0.77782   0.79296
 Alpha virt. eigenvalues --    0.80713   0.83627   0.85053   0.85370   0.87984
 Alpha virt. eigenvalues --    0.89150   0.90265   0.90650   0.91782   0.93986
 Alpha virt. eigenvalues --    0.95218   0.97185   0.98879   1.00391   1.02085
 Alpha virt. eigenvalues --    1.02783   1.04923   1.06614   1.06999   1.08482
 Alpha virt. eigenvalues --    1.09735   1.10488   1.11218   1.12089   1.13269
 Alpha virt. eigenvalues --    1.13791   1.14154   1.15545   1.16446   1.17207
 Alpha virt. eigenvalues --    1.18009   1.20044   1.21231   1.22372   1.22710
 Alpha virt. eigenvalues --    1.23917   1.24229   1.25696   1.26954   1.27482
 Alpha virt. eigenvalues --    1.29422   1.31382   1.33005   1.36423   1.39651
 Alpha virt. eigenvalues --    1.42440   1.46058   1.47695   1.49468   1.52717
 Alpha virt. eigenvalues --    1.54866   1.55598   1.59988   1.61736   1.65448
 Alpha virt. eigenvalues --    1.68520   1.70209   1.72884   1.73708   1.77053
 Alpha virt. eigenvalues --    1.77478   1.80831   1.84376   1.89041   1.92471
 Alpha virt. eigenvalues --    1.94064   1.95958   1.97503   1.99045   2.00628
 Alpha virt. eigenvalues --    2.02851   2.03565   2.06003   2.08663   2.12031
 Alpha virt. eigenvalues --    2.12859   2.13897   2.17693   2.18887   2.19550
 Alpha virt. eigenvalues --    2.20614   2.21955   2.24053   2.25278   2.26360
 Alpha virt. eigenvalues --    2.29362   2.32237   2.33442   2.35695   2.35737
 Alpha virt. eigenvalues --    2.38705   2.39571   2.41859   2.42935   2.46322
 Alpha virt. eigenvalues --    2.48944   2.50057   2.50861   2.56770   2.57310
 Alpha virt. eigenvalues --    2.60689   2.62814   2.65761   2.68514   2.68713
 Alpha virt. eigenvalues --    2.69604   2.70048   2.74304   2.77885   2.81011
 Alpha virt. eigenvalues --    2.85177   2.86921   2.89524   2.91221   2.94997
 Alpha virt. eigenvalues --    2.97728   2.98399   3.02040   3.03619   3.05679
 Alpha virt. eigenvalues --    3.07145   3.12723   3.19335   3.22580   3.27401
 Alpha virt. eigenvalues --    3.30563   3.33820   3.37135   3.42798   3.60281
 Alpha virt. eigenvalues --    4.09868   4.23024   4.32059   4.36335   4.42934
 Alpha virt. eigenvalues --    4.52523   4.59488   4.60123   4.70804   4.77488
 Alpha virt. eigenvalues --    4.96579   4.99234   5.02947   5.09817
          Condensed to atoms (all electrons):
               1          2          3          4          5          6
     1  O    8.300765   0.314077  -0.090753  -0.075475   0.003189  -0.000011
     2  N    0.314077   5.687102   0.306543   0.264629  -0.042093   0.000818
     3  O   -0.090753   0.306543   8.331764  -0.089203   0.008328   0.000439
     4  C   -0.075475   0.264629  -0.089203   5.230361   0.577241  -0.048994
     5  C    0.003189  -0.042093   0.008328   0.577241   4.660039   0.308652
     6  N   -0.000011   0.000818   0.000439  -0.048994   0.308652   7.186761
     7  C    0.000003  -0.000098   0.000002   0.004012  -0.029376   0.198666
     8  H   -0.000000   0.000002  -0.000000  -0.000154   0.002304  -0.049649
     9  C   -0.000000  -0.000003   0.000000   0.000420   0.001747  -0.056670
    10  C   -0.000000   0.000000  -0.000000  -0.000017  -0.000066   0.003345
    11  C   -0.000000  -0.000000  -0.000000  -0.000017   0.000017  -0.000155
    12  C   -0.000000   0.000002  -0.000000  -0.000095  -0.000144   0.003568
    13  C   -0.000022  -0.000028  -0.000003  -0.010518   0.000494  -0.043925
    14  H   -0.000002  -0.000054   0.000001   0.002808   0.004744  -0.005506
    15  N    0.000193   0.001771  -0.000018  -0.062734  -0.003966   0.002065
    16  C    0.002906  -0.032620   0.002279   0.320678  -0.041152  -0.001090
    17  H    0.000107  -0.003977   0.011571  -0.025994   0.375783  -0.033173
    18  H    0.000000  -0.000034   0.000007   0.001008  -0.024269   0.328175
    19  H    0.000000   0.000000   0.000000  -0.000782   0.000678   0.000598
    20  H    0.000000  -0.000000   0.000000  -0.000029   0.000036  -0.001656
    21  H   -0.000000  -0.000000   0.000000   0.000000   0.000001  -0.000059
    22  H   -0.000000   0.000000  -0.000000  -0.000000  -0.000002  -0.000097
    23  H    0.000000  -0.000000   0.000000   0.000025  -0.000000  -0.000024
    24  H    0.000000   0.000000   0.000000   0.000000  -0.000000   0.000004
    25  H    0.000000  -0.000000   0.000000   0.000019  -0.000000  -0.000070
    26  H    0.000000  -0.000000   0.000000   0.000005  -0.000000  -0.000066
    27  H    0.005306  -0.000371   0.000001  -0.063570   0.001844   0.000041
               7          8          9         10         11         12
     1  O    0.000003  -0.000000  -0.000000  -0.000000  -0.000000  -0.000000
     2  N   -0.000098   0.000002  -0.000003   0.000000  -0.000000   0.000002
     3  O    0.000002  -0.000000   0.000000  -0.000000  -0.000000  -0.000000
     4  C    0.004012  -0.000154   0.000420  -0.000017  -0.000017  -0.000095
     5  C   -0.029376   0.002304   0.001747  -0.000066   0.000017  -0.000144
     6  N    0.198666  -0.049649  -0.056670   0.003345  -0.000155   0.003568
     7  C    5.006236   0.416372   0.340683  -0.049254  -0.007728  -0.063991
     8  H    0.416372   0.546864  -0.060459   0.001418  -0.000323  -0.002892
     9  C    0.340683  -0.060459   5.181153   0.318048  -0.053049  -0.006149
    10  C   -0.049254   0.001418   0.318048   5.126738   0.332757  -0.060218
    11  C   -0.007728  -0.000323  -0.053049   0.332757   5.124077   0.330694
    12  C   -0.063991  -0.002892  -0.006149  -0.060218   0.330694   5.136702
    13  C    0.330975  -0.039917  -0.050800  -0.001684  -0.047939   0.368235
    14  H   -0.040386  -0.000936   0.003865  -0.000389   0.003965  -0.040772
    15  N   -0.058423   0.003999  -0.012647   0.001451  -0.007818  -0.074036
    16  C   -0.001815  -0.000010  -0.000760  -0.000033   0.000008   0.002434
    17  H    0.001383  -0.000022  -0.000062   0.000001   0.000000   0.000001
    18  H   -0.028352  -0.002723   0.000836  -0.000120   0.000011  -0.000135
    19  H   -0.035063   0.004095   0.386045  -0.032632  -0.002250   0.000618
    20  H   -0.041698  -0.001828   0.397219  -0.037357   0.004134  -0.000362
    21  H    0.004042  -0.000080  -0.035842   0.400135  -0.035848   0.004215
    22  H   -0.004243   0.003516  -0.045708   0.395938  -0.045601  -0.001234
    23  H    0.000430   0.000033  -0.002005  -0.040091   0.396688  -0.036610
    24  H   -0.000140  -0.000099   0.004396  -0.038494   0.400266  -0.037896
    25  H    0.004977  -0.000005  -0.000370   0.004098  -0.033874   0.395437
    26  H   -0.004444   0.001589   0.001048  -0.002421  -0.042332   0.394590
    27  H   -0.000390   0.000008  -0.000055   0.000005   0.000005  -0.000021
              13         14         15         16         17         18
     1  O   -0.000022  -0.000002   0.000193   0.002906   0.000107   0.000000
     2  N   -0.000028  -0.000054   0.001771  -0.032620  -0.003977  -0.000034
     3  O   -0.000003   0.000001  -0.000018   0.002279   0.011571   0.000007
     4  C   -0.010518   0.002808  -0.062734   0.320678  -0.025994   0.001008
     5  C    0.000494   0.004744  -0.003966  -0.041152   0.375783  -0.024269
     6  N   -0.043925  -0.005506   0.002065  -0.001090  -0.033173   0.328175
     7  C    0.330975  -0.040386  -0.058423  -0.001815   0.001383  -0.028352
     8  H   -0.039917  -0.000936   0.003999  -0.000010  -0.000022  -0.002723
     9  C   -0.050800   0.003865  -0.012647  -0.000760  -0.000062   0.000836
    10  C   -0.001684  -0.000389   0.001451  -0.000033   0.000001  -0.000120
    11  C   -0.047939   0.003965  -0.007818   0.000008   0.000000   0.000011
    12  C    0.368235  -0.040772  -0.074036   0.002434   0.000001  -0.000135
    13  C    5.022310   0.402481   0.241548  -0.069809  -0.000040   0.003629
    14  H    0.402481   0.519198  -0.035646  -0.004850   0.000061   0.000007
    15  N    0.241548  -0.035646   6.939590   0.585234  -0.000065  -0.000119
    16  C   -0.069809  -0.004850   0.585234   4.708895   0.001622  -0.000190
    17  H   -0.000040   0.000061  -0.000065   0.001622   0.385291  -0.001833
    18  H    0.003629   0.000007  -0.000119  -0.000190  -0.001833   0.324526
    19  H   -0.006248   0.000067   0.006972   0.002484   0.000011  -0.000126
    20  H    0.003860  -0.000050   0.000076  -0.000030  -0.000001   0.002836
    21  H   -0.000380   0.000009  -0.000030   0.000002  -0.000000  -0.000000
    22  H    0.000325  -0.000044   0.000003  -0.000001   0.000000   0.000002
    23  H   -0.005876   0.000009   0.006839   0.000064   0.000000   0.000000
    24  H    0.004150  -0.000058   0.000044   0.000005   0.000000  -0.000000
    25  H   -0.034390  -0.002667   0.000820  -0.000056  -0.000000   0.000002
    26  H   -0.044870  -0.000903   0.004185  -0.000053   0.000000  -0.000001
    27  H    0.004763  -0.000163  -0.038936   0.401413  -0.000058   0.000002
              19         20         21         22         23         24
     1  O    0.000000   0.000000  -0.000000  -0.000000   0.000000   0.000000
     2  N    0.000000  -0.000000  -0.000000   0.000000  -0.000000   0.000000
     3  O    0.000000   0.000000   0.000000  -0.000000   0.000000   0.000000
     4  C   -0.000782  -0.000029   0.000000  -0.000000   0.000025   0.000000
     5  C    0.000678   0.000036   0.000001  -0.000002  -0.000000  -0.000000
     6  N    0.000598  -0.001656  -0.000059  -0.000097  -0.000024   0.000004
     7  C   -0.035063  -0.041698   0.004042  -0.004243   0.000430  -0.000140
     8  H    0.004095  -0.001828  -0.000080   0.003516   0.000033  -0.000099
     9  C    0.386045   0.397219  -0.035842  -0.045708  -0.002005   0.004396
    10  C   -0.032632  -0.037357   0.400135   0.395938  -0.040091  -0.038494
    11  C   -0.002250   0.004134  -0.035848  -0.045601   0.396688   0.400266
    12  C    0.000618  -0.000362   0.004215  -0.001234  -0.036610  -0.037896
    13  C   -0.006248   0.003860  -0.000380   0.000325  -0.005876   0.004150
    14  H    0.000067  -0.000050   0.000009  -0.000044   0.000009  -0.000058
    15  N    0.006972   0.000076  -0.000030   0.000003   0.006839   0.000044
    16  C    0.002484  -0.000030   0.000002  -0.000001   0.000064   0.000005
    17  H    0.000011  -0.000001  -0.000000   0.000000   0.000000   0.000000
    18  H   -0.000126   0.002836  -0.000000   0.000002   0.000000  -0.000000
    19  H    0.506929  -0.023992  -0.002590   0.003759   0.001644  -0.000070
    20  H   -0.023992   0.550187  -0.002627  -0.002959  -0.000049  -0.000090
    21  H   -0.002590  -0.002627   0.526151  -0.024704  -0.002813  -0.002065
    22  H    0.003759  -0.002959  -0.024704   0.569016   0.004059  -0.003598
    23  H    0.001644  -0.000049  -0.002813   0.004059   0.509340  -0.024981
    24  H   -0.000070  -0.000090  -0.002065  -0.003598  -0.024981   0.541210
    25  H   -0.000027   0.000011  -0.000086  -0.000083  -0.002086  -0.002383
    26  H    0.000023  -0.000035  -0.000074   0.002466   0.003821  -0.002759
    27  H    0.000072   0.000000  -0.000000   0.000000  -0.000021  -0.000000
              25         26         27
     1  O    0.000000   0.000000   0.005306
     2  N   -0.000000  -0.000000  -0.000371
     3  O    0.000000   0.000000   0.000001
     4  C    0.000019   0.000005  -0.063570
     5  C   -0.000000  -0.000000   0.001844
     6  N   -0.000070  -0.000066   0.000041
     7  C    0.004977  -0.004444  -0.000390
     8  H   -0.000005   0.001589   0.000008
     9  C   -0.000370   0.001048  -0.000055
    10  C    0.004098  -0.002421   0.000005
    11  C   -0.033874  -0.042332   0.000005
    12  C    0.395437   0.394590  -0.000021
    13  C   -0.034390  -0.044870   0.004763
    14  H   -0.002667  -0.000903  -0.000163
    15  N    0.000820   0.004185  -0.038936
    16  C   -0.000056  -0.000053   0.401413
    17  H   -0.000000   0.000000  -0.000058
    18  H    0.000002  -0.000001   0.000002
    19  H   -0.000027   0.000023   0.000072
    20  H    0.000011  -0.000035   0.000000
    21  H   -0.000086  -0.000074  -0.000000
    22  H   -0.000083   0.002466   0.000000
    23  H   -0.002086   0.003821  -0.000021
    24  H   -0.002383  -0.002759  -0.000000
    25  H    0.509948  -0.023127  -0.000010
    26  H   -0.023127   0.561453   0.000001
    27  H   -0.000010   0.000001   0.445674
 Mulliken charges:
               1
     1  O   -0.460283
     2  N    0.504334
     3  O   -0.480960
     4  C   -0.023627
     5  C    0.195971
     6  N   -0.791985
     7  C    0.057621
     8  H    0.178895
     9  C   -0.310879
    10  C   -0.321158
    11  C   -0.315691
    12  C   -0.311943
    13  C   -0.026319
    14  H    0.195214
    15  N   -0.500352
    16  C    0.124444
    17  H    0.289394
    18  H    0.396859
    19  H    0.189784
    20  H    0.154404
    21  H    0.172641
    22  H    0.149190
    23  H    0.191601
    24  H    0.162557
    25  H    0.183923
    26  H    0.151904
    27  H    0.244460
 Sum of Mulliken charges =  -0.00000
 Mulliken charges with hydrogens summed into heavy atoms:
               1
     1  O   -0.460283
     2  N    0.504334
     3  O   -0.480960
     4  C   -0.023627
     5  C    0.485365
     6  N   -0.395126
     7  C    0.236516
     9  C    0.033308
    10  C    0.000673
    11  C    0.038468
    12  C    0.023885
    13  C    0.168895
    15  N   -0.500352
    16  C    0.368904
 Electronic spatial extent (au):  <R**2>=           3116.2737
 Charge=             -0.0000 electrons
 Dipole moment (field-independent basis, Debye):
    X=              5.3375    Y=              4.6052    Z=              0.5451  Tot=              7.0706
 Quadrupole moment (field-independent basis, Debye-Ang):
   XX=           -105.2582   YY=            -80.0917   ZZ=            -82.2794
   XY=             -2.0766   XZ=              0.7542   YZ=              0.1231
 Traceless Quadrupole moment (field-independent basis, Debye-Ang):
   XX=            -16.0484   YY=              9.1181   ZZ=              6.9304
   XY=             -2.0766   XZ=              0.7542   YZ=              0.1231
 Octapole moment (field-independent basis, Debye-Ang**2):
  XXX=             99.7567  YYY=             38.0098  ZZZ=             -4.9718  XYY=             -1.8209
  XXY=             12.6239  XXZ=              0.4950  XZZ=             -8.4259  YZZ=             -2.8073
  YYZ=              1.1663  XYZ=             -1.3767
 Hexadecapole moment (field-independent basis, Debye-Ang**3):
 XXXX=          -3536.8355 YYYY=           -624.7681 ZZZZ=           -299.1825 XXXY=            -47.4152
 XXXZ=             18.9251 YYYX=            -25.7881 YYYZ=             11.3901 ZZZX=             17.3235
 ZZZY=              7.8873 XXYY=           -653.3526 XXZZ=           -540.5667 YYZZ=           -165.7787
 XXYZ=              2.3521 YYXZ=              8.4557 ZZXY=              1.0902
 N-N= 9.177581419807D+02 E-N=-3.381551860302D+03  KE= 6.588512554608D+02
 Calling FoFJK, ICntrl=  10002127 FMM=F ISym2X=0 I1Cent= 0 IOpClX= 0 NMat=1 NMatS=1 NMatT=0.
 -------------------------------------------------------------------
 Center     Atomic                   Forces (Hartrees/Bohr)
 Number     Number              X              Y              Z
 -------------------------------------------------------------------
      1        8           0.006166288   -0.016385406   -0.002878978
      2        7           0.036495411    0.020326274    0.001679219
      3        8          -0.008748328    0.017511903    0.003379753
      4        6          -0.007860621   -0.007697325    0.004561857
      5        6           0.002260039   -0.017931295   -0.005124422
      6        7           0.015213298   -0.009185954   -0.006139986
      7        6          -0.004757966    0.005011932    0.002712618
      8        1          -0.010257153   -0.001659244   -0.007598001
      9        6          -0.003952796    0.000213216   -0.002167197
     10        6           0.002840502   -0.000914332    0.000965509
     11        6          -0.000948664   -0.004599426   -0.002386944
     12        6           0.000731598   -0.008684840   -0.003006771
     13        6           0.007992084   -0.001526464    0.003973659
     14        1           0.000868717    0.004305581   -0.009900241
     15        7           0.001528107   -0.001114980    0.002435085
     16        6          -0.013657583    0.013554442    0.003918753
     17        1           0.007634034   -0.005741401   -0.005621897
     18        1          -0.017505018   -0.001781473    0.005730915
     19        1           0.003163252    0.005861191    0.007659822
     20        1          -0.003270003   -0.007358279    0.002600221
     21        1          -0.004309622    0.002418414    0.009633010
     22        1          -0.004042720   -0.003940840   -0.007386216
     23        1           0.004005372    0.006096215    0.009316965
     24        1          -0.009368217    0.002665916   -0.002101556
     25        1          -0.000818136    0.010637042   -0.002438262
     26        1          -0.004773999   -0.004761487   -0.004357470
     27        1           0.005372124    0.004680618    0.002540557
 -------------------------------------------------------------------
 Cartesian Forces:  Max     0.036495411 RMS     0.008305930

 GradGradGradGradGradGradGradGradGradGradGradGradGradGradGradGradGradGrad
 Berny optimization.
 FormGI is forming the generalized inverse of G from B-inverse, IUseBI=4.
 Internal  Forces:  Max     0.037815223 RMS     0.007002167
 Search for a local minimum.
 Step number   1 out of a maximum of   20
 All quantities printed in internal units (Hartrees-Bohrs-Radians)
 Mixed Optimization -- RFO/linear search
 Second derivative matrix not updated -- first step.
 ITU=  0
     Eigenvalues ---    0.00230   0.00769   0.01059   0.01155   0.01202
     Eigenvalues ---    0.01463   0.01529   0.01593   0.01977   0.02022
     Eigenvalues ---    0.02114   0.02676   0.03658   0.04507   0.04697
     Eigenvalues ---    0.04838   0.05074   0.05138   0.05302   0.05879
     Eigenvalues ---    0.06272   0.07231   0.07702   0.07721   0.07868
     Eigenvalues ---    0.07995   0.08048   0.08050   0.10461   0.11742
     Eigenvalues ---    0.12277   0.13501   0.15267   0.15800   0.15991
     Eigenvalues ---    0.16000   0.20104   0.21985   0.23406   0.25000
     Eigenvalues ---    0.25000   0.25335   0.26152   0.26654   0.27986
     Eigenvalues ---    0.28083   0.28438   0.29211   0.31469   0.31496
     Eigenvalues ---    0.32051   0.32238   0.32290   0.32379   0.32388
     Eigenvalues ---    0.32403   0.32512   0.32526   0.32583   0.33188
     Eigenvalues ---    0.33394   0.33588   0.35208   0.43878   0.44673
     Eigenvalues ---    0.49349   0.67091   0.90646   0.906971000.00000
     Eigenvalues --- 1000.000001000.000001000.000001000.000001000.00000
     Eigenvalues --- 1000.000001000.000001000.000001000.000001000.00000
     Eigenvalues --- 1000.000001000.000001000.000001000.000001000.00000
     Eigenvalues --- 1000.000001000.000001000.000001000.000001000.00000
     Eigenvalues --- 1000.000001000.000001000.000001000.000001000.00000
     Eigenvalues --- 1000.000001000.000001000.000001000.000001000.00000
     Eigenvalues --- 1000.000001000.000001000.000001000.000001000.00000
     Eigenvalues --- 1000.000001000.000001000.000001000.000001000.00000
     Eigenvalues --- 1000.000001000.000001000.000001000.000001000.00000
     Eigenvalues --- 1000.000001000.000001000.000001000.000001000.00000
     Eigenvalues --- 1000.000001000.000001000.000001000.000001000.00000
     Eigenvalues --- 1000.000001000.000001000.000001000.000001000.00000
     Eigenvalues --- 1000.000001000.000001000.000001000.000001000.00000
     Eigenvalues --- 1000.000001000.000001000.000001000.000001000.00000
     Eigenvalues --- 1000.000001000.000001000.000001000.000001000.00000
     Eigenvalues --- 1000.000001000.000001000.000001000.000001000.00000
     Eigenvalues --- 1000.000001000.000001000.000001000.000001000.00000
     Eigenvalues --- 1000.000001000.000001000.000001000.000001000.00000
     Eigenvalues --- 1000.00000
 RFO step:  Lambda=-2.39630525D-02 EMin= 2.30110353D-03
 Linear search not attempted -- first point.
 Iteration  1 RMS(Cart)=  0.05483224 RMS(Int)=  0.00102225
 Iteration  2 RMS(Cart)=  0.00109048 RMS(Int)=  0.00022292
 Iteration  3 RMS(Cart)=  0.00000084 RMS(Int)=  0.00022292
 Iteration  1 RMS(Cart)=  0.00008484 RMS(Int)=  0.00002707
 Iteration  2 RMS(Cart)=  0.00003367 RMS(Int)=  0.00003010
 Iteration  3 RMS(Cart)=  0.00001352 RMS(Int)=  0.00003308
 Iteration  4 RMS(Cart)=  0.00000579 RMS(Int)=  0.00003477
 Iteration  5 RMS(Cart)=  0.00000303 RMS(Int)=  0.00003573
 Iteration  6 RMS(Cart)=  0.00000211 RMS(Int)=  0.00003632
 Iteration  7 RMS(Cart)=  0.00000173 RMS(Int)=  0.00003673
 Iteration  8 RMS(Cart)=  0.00000147 RMS(Int)=  0.00003703
 Iteration  9 RMS(Cart)=  0.00000126 RMS(Int)=  0.00003728
 Iteration 10 RMS(Cart)=  0.00000108 RMS(Int)=  0.00003749
 Iteration 11 RMS(Cart)=  0.00000092 RMS(Int)=  0.00003767
 Variable       Old X    -DE/DX   Delta X   Delta X   Delta X     New X
                                 (Linear)    (Quad)   (Total)
    R1        2.32613   0.01419   0.00000   0.01524   0.01524   2.34137
    R2        2.32637   0.01928   0.00000   0.02072   0.02072   2.34708
    R3        2.89564  -0.03782   0.00000  -0.11964  -0.11964   2.77600
    R4        2.63903  -0.03423   0.00000  -0.07461  -0.07437   2.56466
    R5        2.81195  -0.02121   0.00000  -0.06342  -0.06320   2.74876
    R6        2.58935  -0.02379   0.00000  -0.04604  -0.04594   2.54341
    R7        2.08364  -0.01039   0.00000  -0.02904  -0.02904   2.05461
    R8        2.82648  -0.02001   0.00000  -0.05385  -0.05394   2.77255
    R9        1.93301  -0.00669   0.00000  -0.01446  -0.01446   1.91855
   R10        2.11827  -0.01195   0.00000  -0.03530  -0.03530   2.08297
   R11        2.92742  -0.01291   0.00000  -0.04376  -0.04378   2.88363
   R12        2.90581  -0.00508   0.00000  -0.00900  -0.00901   2.89680
   R13        2.91143  -0.00463   0.00000  -0.01444  -0.01446   2.89697
   R14        2.09918  -0.00993   0.00000  -0.02846  -0.02846   2.07072
   R15        2.09892  -0.00804   0.00000  -0.02303  -0.02303   2.07589
   R16        2.90428  -0.00191   0.00000  -0.00733  -0.00737   2.89692
   R17        2.10140  -0.01057   0.00000  -0.03039  -0.03039   2.07101
   R18        2.10317  -0.00900   0.00000  -0.02595  -0.02595   2.07722
   R19        2.91745  -0.00906   0.00000  -0.02885  -0.02883   2.88862
   R20        2.10410  -0.01167   0.00000  -0.03370  -0.03370   2.07041
   R21        2.10112  -0.00994   0.00000  -0.02856  -0.02856   2.07255
   R22        2.93525  -0.01064   0.00000  -0.03645  -0.03643   2.89882
   R23        2.10156  -0.01078   0.00000  -0.03100  -0.03100   2.07056
   R24        2.09789  -0.00783   0.00000  -0.02238  -0.02238   2.07551
   R25        2.10751  -0.00920   0.00000  -0.02671  -0.02671   2.08081
   R26        2.77051  -0.00646   0.00000  -0.01280  -0.01314   2.75737
   R27        2.44236  -0.00472   0.00000  -0.00683  -0.00688   2.43547
   R28        2.08031  -0.00710   0.00000  -0.01974  -0.01974   2.06057
    A1        2.15403   0.01195   0.00000   0.04362   0.04361   2.19764
    A2        2.07942  -0.01283   0.00000  -0.04680  -0.04682   2.03260
    A3        2.04972   0.00088   0.00000   0.00323   0.00321   2.05294
    A4        2.06258  -0.01580   0.00000  -0.02923  -0.02982   2.03276
    A5        1.97618   0.00974   0.00000   0.00000  -0.00000   1.97618
    A6        2.24369   0.00601   0.00000   0.02798   0.02803   2.27172
    A7        2.18957   0.00801   0.00000   0.01967   0.02003   2.20960
    A8        2.06438  -0.00369   0.00000  -0.00785  -0.00809   2.05629
    A9        2.02814  -0.00428   0.00000  -0.01104  -0.01130   2.01684
   A10        2.25224  -0.00523   0.00000  -0.01892  -0.01893   2.23331
   A11        2.11517  -0.01250   0.00000  -0.07087  -0.07127   2.04391
   A12        1.87475   0.01792   0.00000   0.09749   0.09764   1.97239
   A13        1.83729  -0.00163   0.00000  -0.01784  -0.01765   1.81964
   A14        2.00502  -0.00100   0.00000  -0.01323  -0.01325   1.99177
   A15        1.97148   0.00082   0.00000   0.00168   0.00120   1.97268
   A16        1.85210   0.00264   0.00000   0.02431   0.02415   1.87625
   A17        1.84854   0.00091   0.00000   0.01897   0.01879   1.86734
   A18        1.93527  -0.00140   0.00000  -0.00943  -0.00913   1.92614
   A19        1.91045   0.00012   0.00000  -0.00475  -0.00488   1.90557
   A20        1.92205  -0.00072   0.00000  -0.01288  -0.01285   1.90920
   A21        1.92303  -0.00164   0.00000  -0.00696  -0.00696   1.91608
   A22        1.91912  -0.00038   0.00000   0.00564   0.00559   1.92471
   A23        1.90446   0.00304   0.00000   0.02442   0.02443   1.92889
   A24        1.88453  -0.00040   0.00000  -0.00505  -0.00530   1.87923
   A25        1.94067  -0.00099   0.00000   0.00532   0.00520   1.94588
   A26        1.91889  -0.00069   0.00000  -0.00689  -0.00690   1.91199
   A27        1.90494   0.00035   0.00000  -0.00290  -0.00295   1.90199
   A28        1.91604   0.00084   0.00000   0.00721   0.00726   1.92330
   A29        1.89848   0.00175   0.00000   0.01123   0.01126   1.90974
   A30        1.88377  -0.00124   0.00000  -0.01446  -0.01454   1.86922
   A31        1.94464   0.00066   0.00000   0.00493   0.00506   1.94970
   A32        1.90247   0.00058   0.00000   0.00609   0.00603   1.90850
   A33        1.91736   0.00042   0.00000   0.00518   0.00515   1.92251
   A34        1.90673  -0.00117   0.00000  -0.01442  -0.01447   1.89226
   A35        1.91533  -0.00047   0.00000   0.00034   0.00026   1.91559
   A36        1.87595  -0.00005   0.00000  -0.00248  -0.00251   1.87343
   A37        1.94708  -0.00291   0.00000  -0.01788  -0.01790   1.92918
   A38        1.90604   0.00247   0.00000   0.01671   0.01656   1.92260
   A39        1.91099   0.00142   0.00000   0.01323   0.01321   1.92420
   A40        1.90618   0.00018   0.00000  -0.00359  -0.00343   1.90275
   A41        1.91175  -0.00025   0.00000  -0.00437  -0.00431   1.90744
   A42        1.88058  -0.00084   0.00000  -0.00362  -0.00380   1.87677
   A43        1.84604   0.00458   0.00000   0.02269   0.02273   1.86877
   A44        1.93680  -0.00414   0.00000  -0.03030  -0.03068   1.90612
   A45        1.98726   0.00046   0.00000   0.01251   0.01269   1.99995
   A46        1.88052   0.00219   0.00000   0.02996   0.03024   1.91076
   A47        1.89151  -0.00381   0.00000  -0.02889  -0.02893   1.86258
   A48        1.91697   0.00094   0.00000  -0.00369  -0.00353   1.91344
   A49        2.08615  -0.00717   0.00000  -0.01931  -0.01961   2.06653
   A50        2.23838  -0.00176   0.00000  -0.01490  -0.01487   2.22352
   A51        1.99244   0.00287   0.00000   0.01809   0.01765   2.01009
   A52        2.05230  -0.00112   0.00000  -0.00366  -0.00410   2.04820
    D1       -3.03517  -0.00087   0.00000  -0.03128  -0.03071  -3.06588
    D2        0.14413   0.00017   0.00000   0.00000  -0.00000   0.14413
    D3        0.11199  -0.00120   0.00000  -0.04138  -0.04109   0.07089
    D4       -2.99190  -0.00016   0.00000  -0.01010  -0.01038  -3.00228
    D5        3.06914   0.00055   0.00000   0.01697   0.01682   3.08595
    D6       -0.01990  -0.00035   0.00000  -0.00131  -0.00154  -0.02143
    D7       -0.11677  -0.00070   0.00000  -0.02078  -0.02116  -0.13794
    D8        3.07738  -0.00160   0.00000  -0.03906  -0.03952   3.03786
    D9       -2.72332  -0.00150   0.00000  -0.04029  -0.04095  -2.76426
   D10        0.43119   0.00022   0.00000   0.00505   0.00463   0.43582
   D11        0.46079   0.00024   0.00000  -0.00341  -0.00329   0.45749
   D12       -2.66789   0.00196   0.00000   0.04192   0.04228  -2.62561
   D13       -0.10413  -0.00015   0.00000   0.01803   0.01820  -0.08593
   D14        2.69368   0.00374   0.00000   0.06618   0.06522   2.75890
   D15        2.98587   0.00074   0.00000   0.03603   0.03626   3.02213
   D16       -0.49950   0.00463   0.00000   0.08418   0.08327  -0.41622
   D17       -2.50127  -0.00064   0.00000  -0.01363  -0.01322  -2.51449
   D18        1.75129  -0.00228   0.00000  -0.02470  -0.02435   1.72694
   D19       -0.49228  -0.00012   0.00000  -0.00073  -0.00071  -0.49298
   D20        0.94730   0.00009   0.00000  -0.03297  -0.03348   0.91382
   D21       -1.08333  -0.00155   0.00000  -0.04404  -0.04461  -1.12793
   D22        2.95629   0.00061   0.00000  -0.02007  -0.02096   2.93533
   D23        2.94119   0.00235   0.00000   0.02548   0.02537   2.96656
   D24       -1.23016   0.00150   0.00000   0.02127   0.02118  -1.20898
   D25        0.84686  -0.00046   0.00000   0.00268   0.00265   0.84951
   D26        0.91906   0.00317   0.00000   0.03871   0.03871   0.95777
   D27        3.03089   0.00232   0.00000   0.03450   0.03452   3.06541
   D28       -1.17528   0.00036   0.00000   0.01591   0.01600  -1.15928
   D29       -1.08047   0.00133   0.00000   0.00758   0.00758  -1.07289
   D30        1.03136   0.00048   0.00000   0.00338   0.00339   1.03475
   D31        3.10838  -0.00148   0.00000  -0.01522  -0.01514   3.09324
   D32       -2.89880  -0.00100   0.00000  -0.01349  -0.01326  -2.91206
   D33       -0.86411   0.00211   0.00000   0.01957   0.01943  -0.84468
   D34        1.30939   0.00040   0.00000   0.00000  -0.00001   1.30938
   D35       -0.89657  -0.00199   0.00000  -0.02269  -0.02259  -0.91915
   D36        1.13812   0.00111   0.00000   0.01037   0.01011   1.14823
   D37       -2.97157  -0.00060   0.00000  -0.00920  -0.00934  -2.98090
   D38        1.10519   0.00093   0.00000   0.01177   0.01187   1.11706
   D39        3.13987   0.00403   0.00000   0.04482   0.04456  -3.09875
   D40       -0.96981   0.00233   0.00000   0.02526   0.02512  -0.94469
   D41        0.95665   0.00066   0.00000   0.00000   0.00001   0.95666
   D42        3.08231   0.00059   0.00000   0.00797   0.00793   3.09024
   D43       -1.13775  -0.00111   0.00000  -0.01539  -0.01536  -1.15311
   D44       -1.15696   0.00172   0.00000   0.01540   0.01547  -1.14149
   D45        0.96870   0.00165   0.00000   0.02337   0.02340   0.99209
   D46        3.03182  -0.00006   0.00000   0.00001   0.00011   3.03193
   D47        3.06233   0.00061   0.00000   0.00361   0.00358   3.06590
   D48       -1.09520   0.00054   0.00000   0.01158   0.01150  -1.08370
   D49        0.96792  -0.00117   0.00000  -0.01178  -0.01179   0.95613
   D50       -0.92192  -0.00079   0.00000   0.00000   0.00001  -0.92191
   D51        1.18362  -0.00145   0.00000  -0.01084  -0.01086   1.17276
   D52       -3.04828  -0.00093   0.00000  -0.00729  -0.00732  -3.05560
   D53       -3.04923   0.00017   0.00000   0.00024   0.00027  -3.04897
   D54       -0.94369  -0.00049   0.00000  -0.01060  -0.01060  -0.95429
   D55        1.10759   0.00003   0.00000  -0.00704  -0.00706   1.10053
   D56        1.17631   0.00016   0.00000   0.00697   0.00700   1.18332
   D57       -3.00133  -0.00050   0.00000  -0.00387  -0.00386  -3.00519
   D58       -0.95005   0.00002   0.00000  -0.00031  -0.00032  -0.95037
   D59        0.98924  -0.00091   0.00000  -0.01101  -0.01106   0.97818
   D60        3.09803  -0.00090   0.00000  -0.01581  -0.01596   3.08206
   D61       -1.12987   0.00035   0.00000  -0.00276  -0.00274  -1.13261
   D62       -1.11379  -0.00128   0.00000  -0.01222  -0.01221  -1.12601
   D63        0.99499  -0.00127   0.00000  -0.01701  -0.01711   0.97788
   D64        3.05028  -0.00002   0.00000  -0.00397  -0.00389   3.04639
   D65        3.11678  -0.00026   0.00000  -0.00094  -0.00094   3.11584
   D66       -1.05762  -0.00024   0.00000  -0.00574  -0.00584  -1.06347
   D67        0.99767   0.00101   0.00000   0.00731   0.00738   1.00505
   D68       -1.05484   0.00014   0.00000  -0.00106  -0.00096  -1.05580
   D69       -3.12726   0.00149   0.00000   0.00744   0.00710  -3.12017
   D70        1.08253   0.00124   0.00000   0.01103   0.01093   1.09346
   D71        3.11964  -0.00121   0.00000  -0.00811  -0.00795   3.11169
   D72        1.04722   0.00014   0.00000   0.00039   0.00010   1.04732
   D73       -1.02617  -0.00011   0.00000   0.00397   0.00393  -1.02223
   D74        1.06382  -0.00015   0.00000   0.00090   0.00110   1.06492
   D75       -1.00860   0.00119   0.00000   0.00940   0.00916  -0.99944
   D76       -3.08199   0.00095   0.00000   0.01298   0.01298  -3.06900
   D77       -1.17217   0.00374   0.00000   0.00000  -0.00001  -1.17218
   D78        3.06212   0.00030   0.00000  -0.01652  -0.01637   3.04575
   D79        1.01193  -0.00066   0.00000  -0.03373  -0.03398   0.97795
   D80        0.15880   0.00062   0.00000   0.01520   0.01492   0.17372
   D81       -2.99609  -0.00113   0.00000  -0.03134  -0.03138  -3.02747
         Item               Value     Threshold  Converged?
 Maximum Force            0.037815     0.000450     NO 
 RMS     Force            0.007025     0.000300     NO 
 Maximum Displacement     0.285751     0.001800     NO 
 RMS     Displacement     0.055013     0.001200     NO 
 Predicted change in Energy=-1.334209D-02
 GradGradGradGradGradGradGradGradGradGradGradGradGradGradGradGradGradGrad

                          Input orientation:                          
 ---------------------------------------------------------------------
 Center     Atomic      Atomic             Coordinates (Angstroms)
 Number     Number       Type             X           Y           Z
 ---------------------------------------------------------------------
      1          8           0       -3.437307   -1.450703   -0.237898
      2          7           0       -3.112788   -0.268754   -0.056759
      3          8           0       -3.892630    0.684288    0.105045
      4          6           0       -1.672211    0.017211   -0.026510
      5          6           0       -1.314947    1.294286    0.262149
      6          7           0       -0.061767    1.764918    0.401897
      7          6           0        1.194689    1.007796    0.376098
      8          1           0        1.833075    1.515889    1.117233
      9          6           0        1.922551    1.052977   -0.964314
     10          6           0        3.321486    0.448336   -0.798447
     11          6           0        3.256111   -0.964793   -0.207833
     12          6           0        2.439432   -1.000551    1.083813
     13          6           0        1.030672   -0.442307    0.845303
     14          1           0        0.465579   -0.455677    1.790261
     15          7           0        0.387877   -1.324691   -0.122837
     16          6           0       -0.852941   -1.122938   -0.406852
     17          1           0       -2.109076    2.017751    0.429694
     18          1           0        0.073941    2.763375    0.277785
     19          1           0        1.350227    0.487575   -1.708284
     20          1           0        1.991173    2.091643   -1.315308
     21          1           0        3.830333    0.429653   -1.768907
     22          1           0        3.913862    1.094567   -0.135311
     23          1           0        2.787469   -1.639770   -0.932501
     24          1           0        4.268212   -1.341763   -0.017043
     25          1           0        2.358274   -2.029750    1.450834
     26          1           0        2.936657   -0.409176    1.864414
     27          1           0       -1.345954   -1.855383   -1.046733
 ---------------------------------------------------------------------
                    Distance matrix (angstroms):
                    1          2          3          4          5
     1  O    0.000000
     2  N    1.239002   0.000000
     3  O    2.209776   1.242023   0.000000
     4  C    2.305433   1.468998   2.322188   0.000000
     5  C    3.505627   2.403545   2.653531   1.357159   0.000000
     6  N    4.705723   3.695256   3.991415   2.414858   1.345914
     7  C    5.279829   4.513459   5.104796   3.059815   2.528504
     8  H    6.197900   5.387464   5.873651   3.980102   3.269605
     9  C    5.960216   5.284437   5.924170   3.856760   3.470423
    10  C    7.042858   6.516457   7.274300   5.071367   4.830839
    11  C    6.711100   6.408601   7.343150   5.028476   5.120439
    12  C    6.040333   5.715206   6.625079   4.378843   4.476245
    13  C    4.706700   4.244067   5.104518   2.876942   2.976198
    14  H    4.509548   4.031270   4.809725   2.845071   2.927075
    15  N    3.828989   3.657052   4.733991   2.460477   3.147517
    16  C    2.610541   2.441128   3.573207   1.454580   2.550290
    17  H    3.773599   2.544048   2.250463   2.097888   1.087251
    18  H    5.509378   4.411459   4.481755   3.268495   2.021751
    19  H    5.370236   4.818513   5.551072   3.490664   3.411237
    20  H    6.570954   5.762452   6.214273   4.402800   3.748944
    21  H    7.661483   7.185134   7.951143   5.786539   5.598811
    22  H    7.780014   7.158117   7.820960   5.690057   5.247696
    23  H    6.266263   6.120429   7.148529   4.843052   5.183212
    24  H    7.709454   7.458693   8.409467   6.093893   6.180483
    25  H    6.064311   5.941924   6.946290   4.755776   5.094579
    26  H    6.792048   6.348734   7.136540   4.999907   4.852337
    27  H    2.278539   2.572770   3.776517   2.157292   3.410945
                    6          7          8          9         10
     6  N    0.000000
     7  C    1.467168   0.000000
     8  H    2.040624   1.102259   0.000000
     9  C    2.512153   1.525952   2.134275   0.000000
    10  C    3.823692   2.493154   2.650447   1.533011   0.000000
    11  C    4.339517   2.912309   3.151922   2.534174   1.532982
    12  C    3.790623   2.466516   2.588679   2.946008   2.533810
    13  C    2.502374   1.532923   2.133618   2.511182   2.956854
    14  H    2.671459   2.161761   2.492004   3.462151   3.959149
    15  N    3.165946   2.518011   3.419834   2.952391   3.493728
    16  C    3.101571   3.057094   4.062132   3.570535   4.477509
    17  H    2.063049   3.455104   4.033005   4.373564   5.784670
    18  H    1.015252   2.085137   2.314183   2.808136   4.130887
    19  H    2.842216   2.153943   3.045343   1.095776   2.171452
    20  H    2.696314   2.161011   2.504744   1.098514   2.176542
    21  H    4.652286   3.447015   3.674064   2.162298   1.095931
    22  H    4.067381   2.768207   2.464965   2.157382   1.099215
    23  H    4.635803   3.355441   3.882069   2.828423   2.159474
    24  H    5.345625   3.888642   3.922073   3.483422   2.170562
    25  H    4.621296   3.425737   3.599817   3.940305   3.482521
    26  H    3.981983   2.693946   2.341378   3.341857   2.823872
    27  H    4.105392   4.083762   5.114142   4.375897   5.210927
                   11         12         13         14         15
    11  C    0.000000
    12  C    1.528591   0.000000
    13  C    2.516876   1.533991   0.000000
    14  H    3.469675   2.166115   1.101115   0.000000
    15  N    2.891974   2.402071   1.459138   2.102657   0.000000
    16  C    4.116907   3.616183   2.362022   2.647836   1.288797
    17  H    6.171486   5.497904   4.010316   3.820712   4.208561
    18  H    4.925572   4.518004   3.393200   3.578165   4.119628
    19  H    2.827211   3.346145   2.736348   3.729899   2.593081
    20  H    3.488319   3.939338   3.465791   4.296608   3.957763
    21  H    2.170521   3.481106   3.928423   4.977254   4.199734
    22  H    2.163067   2.837204   3.411212   4.242846   4.276159
    23  H    1.095611   2.143654   2.771433   3.769176   2.552033
    24  H    1.096748   2.161654   3.469053   4.302501   3.881815
    25  H    2.165969   1.095693   2.156194   2.484997   2.618398
    26  H    2.169094   1.098315   2.161588   2.472628   3.359109
    27  H    4.761922   4.427088   3.350364   3.645458   2.035040
                   16         17         18         19         20
    16  C    0.000000
    17  H    3.484481   0.000000
    18  H    4.053549   2.311839   0.000000
    19  H    3.023479   4.345016   3.279121   0.000000
    20  H    4.387233   4.456741   2.581655   1.771518   0.000000
    21  H    5.118475   6.529355   4.872954   2.481523   2.520014
    22  H    5.264359   6.119419   4.207203   3.068372   2.466432
    23  H    3.714298   6.261724   5.311846   2.681996   3.834589
    24  H    5.140627   7.221892   5.876307   3.836850   4.319569
    25  H    3.819058   6.114099   5.437671   4.163305   4.977167
    26  H    4.475395   5.779950   4.558247   4.010623   4.154356
    27  H    1.090407   4.214660   5.010327   3.632697   5.175671
                   21         22         23         24         25
    21  H    0.000000
    22  H    1.765708   0.000000
    23  H    2.463666   3.062821   0.000000
    24  H    2.529561   2.464803   1.766203   0.000000
    25  H    4.310725   3.833676   2.452872   2.505166   0.000000
    26  H    3.834490   2.686089   3.059306   2.486491   1.769700
    27  H    5.704109   6.099062   4.140618   5.730875   4.470967
                   26         27
    26  H    0.000000
    27  H    5.376528   0.000000
 Symmetry turned off by external request.
 Stoichiometry    C9H13N3O2
 Framework group  C1[X(C9H13N3O2)]
 Deg. of freedom    75
 Full point group                 C1      NOp   1
 Rotational constants (GHZ):           1.6748673           0.4240142           0.3734689
 Standard basis: 6-31G(d) (6D, 7F)
   236 basis functions,   444 primitive gaussians,   236 cartesian basis functions
    52 alpha electrons       52 beta electrons
       nuclear repulsion energy       932.4841171843 Hartrees.
 NAtoms=   27 NActive=   27 NUniq=   27 SFac= 1.00D+00 NAtFMM=   60 NAOKFM=F Big=F
 Integral buffers will be    131072 words long.
 Raffenetti 1 integral format.
 Two-electron integral symmetry is turned off.
 One-electron integrals computed using PRISM.
 NBasis=   236 RedAO= T EigKep=  9.91D-04  NBF=   236
 NBsUse=   236 1.00D-06 EigRej= -1.00D+00 NBFU=   236
 Initial guess from the checkpoint file:  "/home/alexey/tmp/Gau-1355481.chk"
 B after Tr=     0.055174    0.005893   -0.000161
         Rot=    0.999999   -0.000706    0.000742    0.001122 Ang=  -0.17 deg.
 ExpMin= 1.61D-01 ExpMax= 5.48D+03 ExpMxC= 8.25D+02 IAcc=3 IRadAn=         5 AccDes= 0.00D+00
 Harris functional with IExCor=  205 and IRadAn=       5 diagonalized for initial guess.
 HarFok:  IExCor=  205 AccDes= 0.00D+00 IRadAn=         5 IDoV= 1 UseB2=F ITyADJ=14
 ICtDFT=  3500011 ScaDFX=  1.000000  1.000000  1.000000  1.000000
 FoFCou: FMM=F IPFlag=           0 FMFlag=      100000 FMFlg1=           0
         NFxFlg=           0 DoJE=T BraDBF=F KetDBF=T FulRan=T
         wScrn=  0.000000 ICntrl=       500 IOpCl=  0 I1Cent=   200000004 NGrid=           0
         NMat0=    1 NMatS0=      1 NMatT0=    0 NMatD0=    1 NMtDS0=    0 NMtDT0=    0
 Symmetry not used in FoFCou.
 Keep R1 ints in memory in canonical form, NReq=397720213.
 Requested convergence on RMS density matrix=1.00D-08 within 128 cycles.
 Requested convergence on MAX density matrix=1.00D-06.
 Requested convergence on             energy=1.00D-06.
 No special actions if energy rises.
 SCF Done:  E(RHF) =  -661.297440991     A.U. after   14 cycles
            NFock= 14  Conv=0.92D-08     -V/T= 2.0024
 ExpMin= 1.61D-01 ExpMax= 5.48D+03 ExpMxC= 8.25D+02 IAcc=3 IRadAn=         5 AccDes= 0.00D+00
 HarFok:  IExCor=  205 AccDes= 0.00D+00 IRadAn=         5 IDoV=-2 UseB2=F ITyADJ=14
 ICtDFT= 12500011 ScaDFX=  1.000000  1.000000  1.000000  1.000000
 Range of M.O.s used for correlation:    15   236
 NBasis=   236 NAE=    52 NBE=    52 NFC=    14 NFV=     0
 NROrb=    222 NOA=    38 NOB=    38 NVA=   184 NVB=   184
 Fully direct method using O(ONN) memory.
 JobTyp=1 Pass  1:  I=  15 to  52 NPSUse=  4 ParTrn=T ParDer=T DoDerP=T.
 Spin components of T(2) and E(2):
     alpha-alpha T2 =       0.9126698535D-01 E2=     -0.2723524964D+00
     alpha-beta  T2 =       0.4914678514D+00 E2=     -0.1488263131D+01
     beta-beta   T2 =       0.9126698535D-01 E2=     -0.2723524964D+00
 ANorm=    0.1293832223D+01
 E2 =    -0.2032968123D+01 EUMP2 =    -0.66333040911434D+03
          IDoAtm=111111111111111111111111111
          Differentiating once with respect to electric field.
                with respect to dipole field.
          Differentiating once with respect to nuclear coordinates.
 Keep R1 ints in memory in canonical form, NReq=397723379.
          There are     1 degrees of freedom in the 1st order CPHF.  IDoFFX=0 NUNeed=     1.
 LinEq1:  Iter=  0 NonCon=     1 RMS=4.57D-03 Max=1.08D-01 NDo=     1
 AX will form     1 AO Fock derivatives at one time.
 LinEq1:  Iter=  1 NonCon=     1 RMS=1.53D-03 Max=2.72D-02 NDo=     1
 LinEq1:  Iter=  2 NonCon=     1 RMS=6.42D-04 Max=1.81D-02 NDo=     1
 LinEq1:  Iter=  3 NonCon=     1 RMS=2.80D-04 Max=8.06D-03 NDo=     1
 LinEq1:  Iter=  4 NonCon=     1 RMS=8.74D-05 Max=1.91D-03 NDo=     1
 LinEq1:  Iter=  5 NonCon=     1 RMS=3.66D-05 Max=1.77D-03 NDo=     1
 LinEq1:  Iter=  6 NonCon=     1 RMS=1.43D-05 Max=5.31D-04 NDo=     1
 LinEq1:  Iter=  7 NonCon=     1 RMS=5.49D-06 Max=9.86D-05 NDo=     1
 LinEq1:  Iter=  8 NonCon=     1 RMS=2.24D-06 Max=6.47D-05 NDo=     1
[...]
    26  H    2.175658   1.098771   2.167791   2.497395   3.363738
    27  H    4.730589   4.421690   3.355271   3.651254   2.031004
                   16         17         18         19         20
    16  C    0.000000
    17  H    3.475988   0.000000
    18  H    4.103907   2.247591   0.000000
    19  H    2.997905   4.305622   3.514569   0.000000
    20  H    4.382592   4.449484   2.878761   1.768531   0.000000
    21  H    5.101644   6.514015   5.084402   2.498962   2.520710
    22  H    5.252990   6.104920   4.309467   3.070121   2.461656
    23  H    3.695249   6.240582   5.423473   2.703196   3.842458
    24  H    5.133979   7.207423   5.936687   3.848916   4.317043
    25  H    3.819034   6.097811   5.372759   4.171072   4.984376
    26  H    4.493242   5.787057   4.482242   4.033087   4.179116
    27  H    1.088084   4.219809   5.091485   3.592739   5.155953
                   21         22         23         24         25
    21  H    0.000000
    22  H    1.758868   0.000000
    23  H    2.469881   3.062398   0.000000
    24  H    2.517686   2.460095   1.764615   0.000000
    25  H    4.311829   3.838334   2.444585   2.518831   0.000000
    26  H    3.845334   2.702233   3.060363   2.492737   1.768027
    27  H    5.662705   6.067872   4.097536   5.700837   4.457453
                   26         27
    26  H    0.000000
    27  H    5.380136   0.000000
 Symmetry turned off by external request.
 Stoichiometry    C9H13N3O2
 Framework group  C1[X(C9H13N3O2)]
 Deg. of freedom    75
 Full point group                 C1      NOp   1
 Rotational constants (GHZ):           1.6659737           0.4223872           0.3736925

 **********************************************************************

            Population analysis using the SCF Density.

 **********************************************************************

 Alpha  occ. eigenvalues --  -20.59326 -20.58834 -15.84660 -15.64087 -15.56023
 Alpha  occ. eigenvalues --  -11.35125 -11.29630 -11.29365 -11.28640 -11.27104
 Alpha  occ. eigenvalues --  -11.23700 -11.23178 -11.22657 -11.22054  -1.57105
 Alpha  occ. eigenvalues --   -1.36700  -1.30922  -1.22989  -1.14638  -1.09731
 Alpha  occ. eigenvalues --   -1.02789  -1.01212  -0.94686  -0.89427  -0.85508
 Alpha  occ. eigenvalues --   -0.82427  -0.78504  -0.77408  -0.75279  -0.71907
 Alpha  occ. eigenvalues --   -0.69768  -0.69394  -0.67772  -0.64895  -0.63697
 Alpha  occ. eigenvalues --   -0.62391  -0.60378  -0.57671  -0.56972  -0.55086
 Alpha  occ. eigenvalues --   -0.54542  -0.50744  -0.50110  -0.48748  -0.48041
 Alpha  occ. eigenvalues --   -0.47352  -0.46077  -0.45982  -0.43651  -0.41604
 Alpha  occ. eigenvalues --   -0.39764  -0.33843
 Alpha virt. eigenvalues --    0.07365   0.11957   0.17266   0.21854   0.24123
 Alpha virt. eigenvalues --    0.25658   0.27142   0.28669   0.29046   0.29561
 Alpha virt. eigenvalues --    0.30616   0.31888   0.32019   0.32793   0.33988
 Alpha virt. eigenvalues --    0.34431   0.35768   0.37188   0.38569   0.40484
 Alpha virt. eigenvalues --    0.41591   0.42421   0.45174   0.46122   0.46680
 Alpha virt. eigenvalues --    0.47146   0.49122   0.53858   0.57631   0.59486
 Alpha virt. eigenvalues --    0.63854   0.69347   0.69768   0.72899   0.74213
 Alpha virt. eigenvalues --    0.74655   0.75802   0.76744   0.78641   0.79451
 Alpha virt. eigenvalues --    0.81495   0.84700   0.85768   0.85939   0.88624
 Alpha virt. eigenvalues --    0.89490   0.91047   0.92051   0.92863   0.94620
 Alpha virt. eigenvalues --    0.95767   0.98025   0.99637   1.01679   1.02547
 Alpha virt. eigenvalues --    1.03188   1.05751   1.07034   1.07882   1.08941
 Alpha virt. eigenvalues --    1.10436   1.11156   1.11926   1.12564   1.13936
 Alpha virt. eigenvalues --    1.14796   1.15022   1.15912   1.17038   1.18753
 Alpha virt. eigenvalues --    1.19125   1.21375   1.22566   1.23907   1.24262
 Alpha virt. eigenvalues --    1.24705   1.25937   1.27105   1.27460   1.29354
 Alpha virt. eigenvalues --    1.30044   1.33239   1.36155   1.37709   1.40940
 Alpha virt. eigenvalues --    1.41483   1.46834   1.48921   1.51660   1.54242
 Alpha virt. eigenvalues --    1.56298   1.58416   1.59483   1.63538   1.65497
 Alpha virt. eigenvalues --    1.67915   1.68592   1.72932   1.75420   1.77777
 Alpha virt. eigenvalues --    1.81606   1.84829   1.88020   1.90474   1.93347
 Alpha virt. eigenvalues --    1.95931   1.96834   1.99903   2.01658   2.02412
 Alpha virt. eigenvalues --    2.04722   2.05536   2.08176   2.09505   2.12593
 Alpha virt. eigenvalues --    2.13527   2.15214   2.18892   2.20083   2.22405
 Alpha virt. eigenvalues --    2.22840   2.24426   2.25331   2.28282   2.29586
 Alpha virt. eigenvalues --    2.32328   2.33614   2.34779   2.36445   2.38352
 Alpha virt. eigenvalues --    2.40654   2.41743   2.43929   2.45355   2.47649
 Alpha virt. eigenvalues --    2.50775   2.51889   2.52970   2.55829   2.61504
 Alpha virt. eigenvalues --    2.62255   2.65050   2.67409   2.70501   2.70627
 Alpha virt. eigenvalues --    2.72329   2.72487   2.77221   2.78817   2.83611
 Alpha virt. eigenvalues --    2.88747   2.89073   2.92374   2.93046   2.95936
 Alpha virt. eigenvalues --    2.99623   3.01225   3.04195   3.05717   3.07648
 Alpha virt. eigenvalues --    3.09422   3.14907   3.21466   3.24870   3.27649
 Alpha virt. eigenvalues --    3.33488   3.37586   3.38296   3.52098   3.66016
 Alpha virt. eigenvalues --    4.13554   4.27601   4.35374   4.38359   4.46258
 Alpha virt. eigenvalues --    4.56159   4.61748   4.62370   4.73471   4.79551
 Alpha virt. eigenvalues --    4.99554   5.00909   5.05165   5.11095
          Condensed to atoms (all electrons):
               1          2          3          4          5          6
     1  O    8.318745   0.306227  -0.083293  -0.082654   0.004478  -0.000015
     2  N    0.306227   5.722823   0.301029   0.265423  -0.050970   0.000937
     3  O   -0.083293   0.301029   8.352257  -0.093629   0.005520   0.000708
     4  C   -0.082654   0.265423  -0.093629   5.212293   0.569113  -0.048473
     5  C    0.004478  -0.050970   0.005520   0.569113   4.697960   0.318378
     6  N   -0.000015   0.000937   0.000708  -0.048473   0.318378   7.194143
     7  C    0.000004  -0.000150   0.000003   0.004357  -0.030316   0.169862
     8  H   -0.000000   0.000002  -0.000000  -0.000228   0.003038  -0.050570
     9  C   -0.000000  -0.000004  -0.000000   0.000785   0.000806  -0.062416
    10  C    0.000000   0.000000   0.000000  -0.000036  -0.000059   0.003763
    11  C   -0.000000  -0.000000  -0.000000  -0.000033   0.000028  -0.000191
    12  C   -0.000000   0.000002  -0.000000  -0.000108  -0.000193   0.003828
    13  C   -0.000033  -0.000049  -0.000004  -0.012081  -0.000409  -0.046589
    14  H   -0.000003  -0.000103   0.000001   0.002561   0.006122  -0.006832
    15  N    0.000413   0.002534  -0.000021  -0.064819  -0.006621   0.001828
    16  C   -0.001670  -0.032329   0.002790   0.332490  -0.050616  -0.001530
    17  H    0.000193  -0.006775   0.016548  -0.022331   0.373455  -0.033741
    18  H    0.000001  -0.000049   0.000010   0.001541  -0.030961   0.338230
    19  H    0.000001  -0.000004   0.000000  -0.001218   0.001219  -0.000338
    20  H    0.000000  -0.000000   0.000000  -0.000084   0.000170  -0.000439
    21  H   -0.000000   0.000000  -0.000000   0.000001   0.000001  -0.000077
    22  H   -0.000000   0.000000  -0.000000  -0.000000  -0.000003  -0.000117
    23  H    0.000000  -0.000000   0.000000   0.000041   0.000001  -0.000030
    24  H    0.000000   0.000000   0.000000   0.000000  -0.000000   0.000006
    25  H    0.000000  -0.000000   0.000000   0.000024   0.000001  -0.000089
    26  H    0.000000  -0.000000   0.000000   0.000006  -0.000001  -0.000058
    27  H    0.005715  -0.001360   0.000010  -0.060850   0.001965   0.000021
               7          8          9         10         11         12
     1  O    0.000004  -0.000000  -0.000000   0.000000  -0.000000  -0.000000
     2  N   -0.000150   0.000002  -0.000004   0.000000  -0.000000   0.000002
     3  O    0.000003  -0.000000  -0.000000   0.000000  -0.000000  -0.000000
     4  C    0.004357  -0.000228   0.000785  -0.000036  -0.000033  -0.000108
     5  C   -0.030316   0.003038   0.000806  -0.000059   0.000028  -0.000193
     6  N    0.169862  -0.050570  -0.062416   0.003763  -0.000191   0.003828
     7  C    5.018603   0.418288   0.350284  -0.054530  -0.009020  -0.060833
     8  H    0.418288   0.537972  -0.055066   0.000766  -0.000325  -0.002361
     9  C    0.350284  -0.055066   5.158665   0.324804  -0.050448  -0.005322
    10  C   -0.054530   0.000766   0.324804   5.119228   0.336951  -0.061114
    11  C   -0.009020  -0.000325  -0.050448   0.336951   5.120114   0.336119
    12  C   -0.060833  -0.002361  -0.005322  -0.061114   0.336119   5.118447
    13  C    0.337543  -0.037649  -0.060461  -0.000291  -0.050800   0.371772
    14  H   -0.046750  -0.000716   0.004427  -0.000404   0.004200  -0.036254
    15  N   -0.057740   0.003828  -0.014173   0.001575  -0.013170  -0.081750
    16  C   -0.001625  -0.000007  -0.001172  -0.000031   0.000031   0.002653
    17  H    0.001602  -0.000049  -0.000066   0.000001   0.000000   0.000000
    18  H   -0.021081  -0.004476   0.001347  -0.000083   0.000004  -0.000112
    19  H   -0.036908   0.004364   0.390174  -0.032130  -0.002220   0.000680
    20  H   -0.042394  -0.002027   0.399484  -0.035314   0.003932  -0.000413
    21  H    0.004593  -0.000076  -0.036376   0.402412  -0.034907   0.004358
    22  H   -0.004865   0.003561  -0.046970   0.397751  -0.045371  -0.001054
    23  H    0.000569   0.000035  -0.001963  -0.039011   0.399213  -0.037927
    24  H   -0.000129  -0.000103   0.004391  -0.038436   0.402308  -0.038688
    25  H    0.005155  -0.000022  -0.000426   0.004201  -0.033389   0.398390
    26  H   -0.003956   0.001689   0.000975  -0.002266  -0.041502   0.396661
    27  H   -0.000400   0.000009  -0.000054   0.000006   0.000012  -0.000038
              13         14         15         16         17         18
     1  O   -0.000033  -0.000003   0.000413  -0.001670   0.000193   0.000001
     2  N   -0.000049  -0.000103   0.002534  -0.032329  -0.006775  -0.000049
     3  O   -0.000004   0.000001  -0.000021   0.002790   0.016548   0.000010
     4  C   -0.012081   0.002561  -0.064819   0.332490  -0.022331   0.001541
     5  C   -0.000409   0.006122  -0.006621  -0.050616   0.373455  -0.030961
     6  N   -0.046589  -0.006832   0.001828  -0.001530  -0.033741   0.338230
     7  C    0.337543  -0.046750  -0.057740  -0.001625   0.001602  -0.021081
     8  H   -0.037649  -0.000716   0.003828  -0.000007  -0.000049  -0.004476
     9  C   -0.060461   0.004427  -0.014173  -0.001172  -0.000066   0.001347
    10  C   -0.000291  -0.000404   0.001575  -0.000031   0.000001  -0.000083
    11  C   -0.050800   0.004200  -0.013170   0.000031   0.000000   0.000004
    12  C    0.371772  -0.036254  -0.081750   0.002653   0.000000  -0.000112
    13  C    5.040829   0.402987   0.246228  -0.071683  -0.000007   0.002883
    14  H    0.402987   0.527032  -0.037282  -0.004773   0.000095  -0.000110
    15  N    0.246228  -0.037282   6.966292   0.582001  -0.000091  -0.000130
    16  C   -0.071683  -0.004773   0.582001   4.719389   0.001959  -0.000180
    17  H   -0.000007   0.000095  -0.000091   0.001959   0.377318  -0.002731
    18  H    0.002883  -0.000110  -0.000130  -0.000180  -0.002731   0.310696
    19  H   -0.007540   0.000111   0.007698   0.002978   0.000016  -0.000149
    20  H    0.004331  -0.000067   0.000120  -0.000035   0.000002   0.000798
    21  H   -0.000437   0.000010  -0.000040   0.000004  -0.000000   0.000001
    22  H    0.000068  -0.000054   0.000018  -0.000002   0.000000   0.000001
    23  H   -0.007516   0.000005   0.008638   0.000102   0.000000   0.000000
    24  H    0.004704  -0.000057   0.000134   0.000007   0.000000  -0.000000
    25  H   -0.035611  -0.002846   0.000435  -0.000021  -0.000000   0.000002
    26  H   -0.047378  -0.001045   0.004882  -0.000062   0.000000  -0.000000
    27  H    0.004978  -0.000164  -0.039331   0.402922  -0.000078   0.000001
              19         20         21         22         23         24
     1  O    0.000001   0.000000  -0.000000  -0.000000   0.000000   0.000000
     2  N   -0.000004  -0.000000   0.000000   0.000000  -0.000000   0.000000
     3  O    0.000000   0.000000  -0.000000  -0.000000   0.000000   0.000000
     4  C   -0.001218  -0.000084   0.000001  -0.000000   0.000041   0.000000
     5  C    0.001219   0.000170   0.000001  -0.000003   0.000001  -0.000000
     6  N   -0.000338  -0.000439  -0.000077  -0.000117  -0.000030   0.000006
     7  C   -0.036908  -0.042394   0.004593  -0.004865   0.000569  -0.000129
     8  H    0.004364  -0.002027  -0.000076   0.003561   0.000035  -0.000103
     9  C    0.390174   0.399484  -0.036376  -0.046970  -0.001963   0.004391
    10  C   -0.032130  -0.035314   0.402412   0.397751  -0.039011  -0.038436
    11  C   -0.002220   0.003932  -0.034907  -0.045371   0.399213   0.402308
    12  C    0.000680  -0.000413   0.004358  -0.001054  -0.037927  -0.038688
    13  C   -0.007540   0.004331  -0.000437   0.000068  -0.007516   0.004704
    14  H    0.000111  -0.000067   0.000010  -0.000054   0.000005  -0.000057
    15  N    0.007698   0.000120  -0.000040   0.000018   0.008638   0.000134
    16  C    0.002978  -0.000035   0.000004  -0.000002   0.000102   0.000007
    17  H    0.000016   0.000002  -0.000000   0.000000   0.000000   0.000000
    18  H   -0.000149   0.000798   0.000001   0.000001   0.000000  -0.000000
    19  H    0.505340  -0.024725  -0.002784   0.003963   0.001520  -0.000066
    20  H   -0.024725   0.541215  -0.002705  -0.002983  -0.000045  -0.000083
    21  H   -0.002784  -0.002705   0.524285  -0.027423  -0.002895  -0.002246
    22  H    0.003963  -0.002983  -0.027423   0.571472   0.004133  -0.003651
    23  H    0.001520  -0.000045  -0.002895   0.004133   0.498706  -0.025427
    24  H   -0.000066  -0.000083  -0.002246  -0.003651  -0.025427   0.538258
    25  H   -0.000029   0.000012  -0.000087  -0.000081  -0.002306  -0.002307
    26  H    0.000019  -0.000030  -0.000081   0.002387   0.004069  -0.003018
    27  H    0.000078   0.000000  -0.000000   0.000000  -0.000034  -0.000000
              25         26         27
     1  O    0.000000   0.000000   0.005715
     2  N   -0.000000  -0.000000  -0.001360
     3  O    0.000000   0.000000   0.000010
     4  C    0.000024   0.000006  -0.060850
     5  C    0.000001  -0.000001   0.001965
     6  N   -0.000089  -0.000058   0.000021
     7  C    0.005155  -0.003956  -0.000400
     8  H   -0.000022   0.001689   0.000009
     9  C   -0.000426   0.000975  -0.000054
    10  C    0.004201  -0.002266   0.000006
    11  C   -0.033389  -0.041502   0.000012
    12  C    0.398390   0.396661  -0.000038
    13  C   -0.035611  -0.047378   0.004978
    14  H   -0.002846  -0.001045  -0.000164
    15  N    0.000435   0.004882  -0.039331
    16  C   -0.000021  -0.000062   0.402922
    17  H   -0.000000   0.000000  -0.000078
    18  H    0.000002  -0.000000   0.000001
    19  H   -0.000029   0.000019   0.000078
    20  H    0.000012  -0.000030   0.000000
    21  H   -0.000087  -0.000081  -0.000000
    22  H   -0.000081   0.002387   0.000000
    23  H   -0.002306   0.004069  -0.000034
    24  H   -0.002307  -0.003018  -0.000000
    25  H    0.505866  -0.024088  -0.000012
    26  H   -0.024088   0.562698   0.000001
    27  H   -0.000012   0.000001   0.432763
 Mulliken charges:
               1
     1  O   -0.468106
     2  N    0.492815
     3  O   -0.501928
     4  C   -0.002090
     5  C    0.187892
     6  N   -0.780199
     7  C    0.059831
     8  H    0.180123
     9  C   -0.301223
    10  C   -0.327753
    11  C   -0.321536
    12  C   -0.306743
    13  C   -0.037786
    14  H    0.189908
    15  N   -0.511457
    16  C    0.118414
    17  H    0.294681
    18  H    0.404549
    19  H    0.189952
    20  H    0.161277
    21  H    0.174468
    22  H    0.149220
    23  H    0.200122
    24  H    0.164404
    25  H    0.187226
    26  H    0.150098
    27  H    0.253841
 Sum of Mulliken charges =  -0.00000
 Mulliken charges with hydrogens summed into heavy atoms:
               1
     1  O   -0.468106
     2  N    0.492815
     3  O   -0.501928
     4  C   -0.002090
     5  C    0.482573
     6  N   -0.375650
     7  C    0.239954
     9  C    0.050006
    10  C   -0.004064
    11  C    0.042989
    12  C    0.030581
    13  C    0.152122
    15  N   -0.511457
    16  C    0.372255
 Electronic spatial extent (au):  <R**2>=           2994.1823
 Charge=              0.0000 electrons
 Dipole moment (field-independent basis, Debye):
    X=              5.3462    Y=              4.8849    Z=              1.3052  Tot=              7.3585
 Quadrupole moment (field-independent basis, Debye-Ang):
   XX=           -105.8193   YY=            -79.1325   ZZ=            -81.4869
   XY=             -1.9318   XZ=             -0.1745   YZ=              1.9547
 Traceless Quadrupole moment (field-independent basis, Debye-Ang):
   XX=            -17.0064   YY=              9.6804   ZZ=              7.3260
   XY=             -1.9318   XZ=             -0.1745   YZ=              1.9547
 Octapole moment (field-independent basis, Debye-Ang**2):
  XXX=             89.9954  YYY=             37.7162  ZZZ=             -1.3542  XYY=             -5.0933
  XXY=             10.1269  XXZ=              5.1720  XZZ=            -10.0785  YZZ=             -0.2573
  YYZ=              8.2840  XYZ=              0.0757
 Hexadecapole moment (field-independent basis, Debye-Ang**3):
 XXXX=          -3355.8648 YYYY=           -606.6225 ZZZZ=           -303.1650 XXXY=            -25.6994
 XXXZ=            -15.0114 YYYX=            -14.2851 YYYZ=             25.3296 ZZZX=              1.1153
 ZZZY=              6.9467 XXYY=           -623.8249 XXZZ=           -520.2483 YYZZ=           -158.2662
 XXYZ=             -3.3704 YYXZ=              1.2848 ZZXY=              3.5782
 N-N= 9.317127533289D+02 E-N=-3.410170352504D+03  KE= 6.596280837224D+02
 Unable to Open any file for archive entry.
 1\1\GINC-LOTUS\FOpt\RMP2-FC\6-31G(d)\C9H13N3O2\ALEXEY\01-Jul-2023\0\\#
 MP2/6-31G* SCF=Tight Opt=(ModRedun, MaxCycle=20 ) NoSymm\\MolName:\\0,
 1\O,-3.4586056924,-1.426000296,-0.3685773157\N,-3.1012235319,-0.258467
 6311,-0.1243269258\O,-3.9004783756,0.686170627,0.0338267701\C,-1.67209
 49701,0.0027509469,-0.0041566768\C,-1.2984140776,1.2873139097,0.276087
 3895\N,-0.0504327262,1.7686465104,0.3864464045\C,1.2055519851,1.027699
 3299,0.361765724\H,1.8569272375,1.5491146465,1.0791671033\C,1.90942165
 92,1.0373911658,-0.9941967549\C,3.3053064691,0.4247109677,-0.832055731
 1\C,3.251384505,-0.9720398386,-0.2076226959\C,2.4569742815,-0.98018436
 74,1.1000337632\C,1.0481688713,-0.4238494235,0.8631985668\H,0.47226561
 45,-0.402256241,1.8019946574\N,0.3990528574,-1.3197194246,-0.090566490
 6\C,-0.8489884382,-1.1324371008,-0.3802171074\H,-2.094903041,2.0131961
 29,0.4167672473\H,0.017980717,2.7517829719,0.6214089329\H,1.3123670812
 ,0.4631133642,-1.7107045315\H,1.9793463975,2.0654105662,-1.3708774621\
 H,3.8083598541,0.3860611732,-1.8050139719\H,3.9083096606,1.0874183498,
 -0.1951300847\H,2.7698778933,-1.6657401408,-0.9039140016\H,4.268903337
 1,-1.3406000678,-0.0315191281\H,2.3687638234,-2.0017709378,1.484011629
 \H,2.9687241481,-0.3835318415,1.8677681872\H,-1.32054554,-1.8801733474
 ,-1.0146074967\\Version=ES64L-G16RevC.02\HF=-661.2993208\MP2=-663.3338
 565\RMSD=3.798e-09\RMSF=2.458e-03\Dipole=1.9559762,1.7208151,0.4789197
 \PG=C01 [X(C9H13N3O2)]\\@
 The archive entry for this job was punched.


 HE WHO LAUGHS LAST PROBABLY DIDN'T GET THE JOKE.
 Job cpu time:       0 days  1 hours  5 minutes 50.5 seconds.
 Elapsed time:       0 days  0 hours 19 minutes 50.4 seconds.
 File lengths (MBytes):  RWF=     36 Int=      0 D2E=      0 Chk=      7 Scr=      1
 Normal termination of Gaussian 16 at Sat Jul  1 17:10:50 2023.
