 Entering Gaussian System, Link 0=g16
 Initial command:
 /home/alexey/programs//g16/l1.exe "/home/alexey/tmp/Gau-1349147.inp" -scrdir="/home/alexey/tmp/"
 Entering Link 1 = /home/alexey/programs//g16/l1.exe PID=   1349149.
  
 Copyright (c) 1988-2021, Gaussian, Inc.  All Rights Reserved.
  
 This is part of the Gaussian(R) 16 program.  It is based on
 the Gaussian(R) 09 system (copyright 2009, Gaussian, Inc.),
 the Gaussian(R) 03 system (copyright 2003, Gaussian, Inc.),
 the Gaussian(R) 98 system (copyright 1998, Gaussian, Inc.),
 the Gaussian(R) 94 system (copyright 1995, Gaussian, Inc.),
 the Gaussian 92(TM) system (copyright 1992, Gaussian, Inc.),
 the Gaussian 90(TM) system (copyright 1990, Gaussian, Inc.),
 the Gaussian 88(TM) system (copyright 1988, Gaussian, Inc.),
 the Gaussian 86(TM) system (copyright 1986, Carnegie Mellon
 University), and the Gaussian 82(TM) system (copyright 1983,
 Carnegie Mellon University). Gaussian is a federally registered
 trademark of Gaussian, Inc.
  
 This software contains proprietary and confidential information,
 including trade secrets, belonging to Gaussian, Inc.
  
 This software is provided under written license and may be
 used, copied, transmitted, or stored only in accord with that
 written license.
  
 The following legend is applicable only to US Government
 contracts under FAR:
  
                    RESTRICTED RIGHTS LEGEND
  
 Use, reproduction and disclosure by the US Government is
 subject to restrictions as set forth in subparagraphs (a)
 and (c) of the Commercial Computer Software - Restricted
 Rights clause in FAR 52.227-19.
  
 Gaussian, Inc.
 340 Quinnipiac St., Bldg. 40, Wallingford CT 06492
  
  
 ---------------------------------------------------------------
 Warning -- This program may not be used in any manner that
 competes with the business of Gaussian, Inc. or will provide
 assistance to any competitor of Gaussian, Inc.  The licensee
 of this program is prohibited from giving any competitor of
 Gaussian, Inc. access to this program.  By using this program,
 the user acknowledges that Gaussian, Inc. is engaged in the
 business of creating and licensing software in the field of
 computational chemistry and represents and warrants to the
 licensee that it is not a competitor of Gaussian, Inc. and that
 it will not use this program in any manner prohibited above.
 ---------------------------------------------------------------
  

 Cite this work as:
 Gaussian 16, Revision C.02,
 M. J. Frisch, G. W. Trucks, H. B. Schlegel, G. E. Scuseria, 
 M. A. Robb, J. R. Cheeseman, G. Scalmani, V. Barone, 
 G. A. Petersson, H. Nakatsuji, X. Li, M. Caricato, A. V. Marenich, 
 J. Bloino, B. G. Janesko, R. Gomperts, B. Mennucci, H. P. Hratchian, 
 J. V. Ortiz, A. F. Izmaylov, J. L. Sonnenberg, D. Williams-Young, 
 F. Ding, F. Lipparini, F. Egidi, J. Goings, B. Peng, A. Petrone, 
 T. Henderson, D. Ranasinghe, V. G. Zakrzewski, J. Gao, N. Rega, 
 G. Zheng, W. Liang, M. Hada, M. Ehara, K. Toyota, R. Fukuda, 
 J. Hasegawa, M. Ishida, T. Nakajima, Y. Honda, O. Kitao, H. Nakai, 
 T. Vreven, K. Throssell, J. A. Montgomery, Jr., J. E. Peralta, 
 F. Ogliaro, M. J. Bearpark, J. J. Heyd, E. N. Brothers, K. N. Kudin, 
 V. N. Staroverov, T. A. Keith, R. Kobayashi, J. Normand, 
 K. Raghavachari, A. P. Rendell, J. C. Burant, S. S. Iyengar, 
 J. Tomasi, M. Cossi, J. M. Millam, M. Klene, C. Adamo, R. Cammi, 
 J. W. Ochterski, R. L. Martin, K. Morokuma, O. Farkas, 
 J. B. Foresman, and D. J. Fox, Gaussian, Inc., Wallingford CT, 2019.
 
 ******************************************
 Gaussian 16:  ES64L-G16RevC.02  7-Dec-2021
                 1-Jul-2023 
 ******************************************
 %mem=8GB
 %NPROCS=4
 Will use up to    4 processors via shared memory.
 %NoSave
 ---------------------------------------------------------
 #MP2/6-31G* SCF=Tight Opt=(ModRedun, MaxCycle=20 ) NoSymm
 ---------------------------------------------------------
 1/6=20,18=120,19=15,38=1/1,3;
 2/9=110,12=2,15=1,17=6,18=5,40=1/2;
 3/5=1,6=6,7=1,11=9,25=1,30=1,71=1/1,2,3;
 4//1;
 5/5=2,32=2,38=5/2;
 8/6=4,10=2/1;
 9/15=2,16=-3/6;
 10/5=1,31=1/2;
 6/7=2,8=2,9=2,10=2/1;
 7/12=2,30=1/1,2,3,16;
 1/6=20,18=20,19=15/3(2);
 2/9=110,15=1/2;
 99//99;
 2/9=110,15=1/2;
 3/5=1,6=6,7=1,11=9,25=1,30=1,71=1/1,2,3;
 4/5=5,16=3,69=1/1;
 5/5=2,32=2,38=5/2;
 8/6=4,10=2/1;
 9/15=2,16=-3/6;
 10/5=1,31=1/2;
 7/12=2,30=1/1,2,3,16;
 1/6=20,18=20,19=15/3(-8);
 2/9=110,15=1/2;
 6/7=2,8=2,9=2,10=2/1;
 99/9=10/99;
 --------
 MolName:
 --------
 Symbolic Z-matrix:
 Charge =  0 Multiplicity = 1
 8                    0    -3.64775  -1.41988  -0.15403 
 7                    0    -3.27595  -0.25989   0.00819 
 8                    0    -4.04308   0.68968   0.17561 
 6                    0    -1.77186  -0.01779  -0.0471 
 6                    0    -1.37461   1.28899   0.27416 
 7                    0    -0.088     1.75546   0.36748 
 6                    0     1.19554   0.99182   0.34944 
 1                    0     1.84978   1.49308   1.10946 
 6                    0     1.97327   1.046    -0.98917 
 6                    0     3.38481   0.46325  -0.78568 
 6                    0     3.32016  -0.95323  -0.19281 
 6                    0     2.45859  -0.98983   1.08807 
 6                    0     1.02324  -0.45541   0.8292 
 1                    0     0.46584  -0.497     1.79437 
 7                    0     0.37854  -1.32069  -0.15942 
 6                    0    -0.8601   -1.1136   -0.46703 
 1                    0    -2.15576   2.02729   0.52031 
 1                    0     0.1357    2.73673   0.18496 
 1                    0     1.43348   0.46892  -1.7698 
 1                    0     2.06047   2.0966   -1.33891 
 1                    0     3.92961   0.44127  -1.75483 
 1                    0     3.95303   1.11807  -0.08783 
 1                    0     2.88202  -1.64296  -0.94918 
 1                    0     4.34663  -1.31499   0.03448 
 1                    0     2.39797  -2.03676   1.45818 
 1                    0     2.94425  -0.37923   1.87791 
 1                    0    -1.35383  -1.85189  -1.11705 
 
 The following ModRedundant input section has been read:
 A       2       4      16 F                                                   
 D       1       2       4      16 F                                           
 D       7      13      15      16 F                                           
 D       7       9      10      11 F                                           
 D       9      10      11      12 F                                           
 D       6       7      13      15 F                                           
 

 GradGradGradGradGradGradGradGradGradGradGradGradGradGradGradGradGradGrad
 Berny optimization.
 Initialization pass.
                           ----------------------------
                           !    Initial Parameters    !
                           ! (Angstroms and Degrees)  !
 --------------------------                            --------------------------
 ! Name  Definition              Value          Derivative Info.                !
 --------------------------------------------------------------------------------
 ! R1    R(1,2)                  1.2289         estimate D2E/DX2                !
 ! R2    R(2,3)                  1.2322         estimate D2E/DX2                !
 ! R3    R(2,4)                  1.5245         estimate D2E/DX2                !
 ! R4    R(4,5)                  1.4031         estimate D2E/DX2                !
 ! R5    R(4,16)                 1.4861         estimate D2E/DX2                !
 ! R6    R(5,6)                  1.3717         estimate D2E/DX2                !
 ! R7    R(5,17)                 1.1027         estimate D2E/DX2                !
 ! R8    R(6,7)                  1.4936         estimate D2E/DX2                !
 ! R9    R(6,18)                 1.0229         estimate D2E/DX2                !
 ! R10   R(7,8)                  1.1211         estimate D2E/DX2                !
 ! R11   R(7,9)                  1.5491         estimate D2E/DX2                !
 ! R12   R(7,13)                 1.5344         estimate D2E/DX2                !
 ! R13   R(9,10)                 1.5406         estimate D2E/DX2                !
 ! R14   R(9,19)                 1.1108         estimate D2E/DX2                !
 ! R15   R(9,20)                 1.1107         estimate D2E/DX2                !
 ! R16   R(10,11)                1.5369         estimate D2E/DX2                !
 ! R17   R(10,21)                1.112          estimate D2E/DX2                !
 ! R18   R(10,22)                1.113          estimate D2E/DX2                !
 ! R19   R(11,12)                1.5441         estimate D2E/DX2                !
 ! R20   R(11,23)                1.1135         estimate D2E/DX2                !
 ! R21   R(11,24)                1.1118         estimate D2E/DX2                !
 ! R22   R(12,13)                1.5533         estimate D2E/DX2                !
 ! R23   R(12,25)                1.1121         estimate D2E/DX2                !
 ! R24   R(12,26)                1.1102         estimate D2E/DX2                !
 ! R25   R(13,14)                1.1153         estimate D2E/DX2                !
 ! R26   R(13,15)                1.4635         estimate D2E/DX2                !
 ! R27   R(15,16)                1.293          estimate D2E/DX2                !
 ! R28   R(16,27)                1.1006         estimate D2E/DX2                !
 ! A1    A(1,2,3)              123.8506         estimate D2E/DX2                !
 ! A2    A(1,2,4)              116.336          estimate D2E/DX2                !
 ! A3    A(3,2,4)              119.7896         estimate D2E/DX2                !
 ! A4    A(2,4,5)              114.7681         estimate D2E/DX2                !
 ! A5    A(2,4,16)             119.8996         Frozen                          !
 ! A6    A(5,4,16)             125.2928         estimate D2E/DX2                !
 ! A7    A(4,5,6)              126.7155         estimate D2E/DX2                !
 ! A8    A(4,5,17)             118.3032         estimate D2E/DX2                !
 ! A9    A(6,5,17)             114.9344         estimate D2E/DX2                !
 ! A10   A(5,6,7)              129.1483         estimate D2E/DX2                !
 ! A11   A(5,6,18)             121.2798         estimate D2E/DX2                !
 ! A12   A(7,6,18)             107.4805         estimate D2E/DX2                !
 ! A13   A(6,7,8)              105.349          estimate D2E/DX2                !
 ! A14   A(6,7,9)              115.0869         estimate D2E/DX2                !
 ! A15   A(6,7,13)             112.4545         estimate D2E/DX2                !
 ! A16   A(8,7,9)              106.0921         estimate D2E/DX2                !
 ! A17   A(8,7,13)             105.9784         estimate D2E/DX2                !
 ! A18   A(9,7,13)             111.0729         estimate D2E/DX2                !
 ! A19   A(7,9,10)             109.4285         estimate D2E/DX2                !
 ! A20   A(7,9,19)             110.1908         estimate D2E/DX2                !
 ! A21   A(7,9,20)             110.157          estimate D2E/DX2                !
 ! A22   A(10,9,19)            109.9721         estimate D2E/DX2                !
 ! A23   A(10,9,20)            109.114          estimate D2E/DX2                !
 ! A24   A(19,9,20)            107.9555         estimate D2E/DX2                !
 ! A25   A(9,10,11)            111.1636         estimate D2E/DX2                !
 ! A26   A(9,10,21)            109.9528         estimate D2E/DX2                !
 ! A27   A(9,10,22)            109.1503         estimate D2E/DX2                !
 ! A28   A(11,10,21)           109.7911         estimate D2E/DX2                !
 ! A29   A(11,10,22)           108.7754         estimate D2E/DX2                !
 ! A30   A(21,10,22)           107.9372         estimate D2E/DX2                !
 ! A31   A(10,11,12)           111.4266         estimate D2E/DX2                !
 ! A32   A(10,11,23)           108.991          estimate D2E/DX2                !
 ! A33   A(10,11,24)           109.8708         estimate D2E/DX2                !
 ! A34   A(12,11,23)           109.2234         estimate D2E/DX2                !
 ! A35   A(12,11,24)           109.7454         estimate D2E/DX2                !
 ! A36   A(23,11,24)           107.4936         estimate D2E/DX2                !
 ! A37   A(11,12,13)           111.6657         estimate D2E/DX2                !
 ! A38   A(11,12,25)           109.1961         estimate D2E/DX2                !
 ! A39   A(11,12,26)           109.453          estimate D2E/DX2                !
 ! A40   A(13,12,25)           109.2072         estimate D2E/DX2                !
 ! A41   A(13,12,26)           109.4854         estimate D2E/DX2                !
 ! A42   A(25,12,26)           107.7487         estimate D2E/DX2                !
 ! A43   A(7,13,12)            105.8339         estimate D2E/DX2                !
 ! A44   A(7,13,14)            111.2148         estimate D2E/DX2                !
 ! A45   A(7,13,15)            113.3233         estimate D2E/DX2                !
 ! A46   A(12,13,14)           107.7434         estimate D2E/DX2                !
 ! A47   A(12,13,15)           108.4352         estimate D2E/DX2                !
 ! A48   A(14,13,15)           110.0217         estimate D2E/DX2                !
 ! A49   A(13,15,16)           119.212          estimate D2E/DX2                !
 ! A50   A(4,16,15)            129.69           estimate D2E/DX2                !
 ! A51   A(4,16,27)            112.724          estimate D2E/DX2                !
 ! A52   A(15,16,27)           117.569          estimate D2E/DX2                !
 ! D1    D(1,2,4,5)           -173.909          estimate D2E/DX2                !
 ! D2    D(1,2,4,16)             8.2585         Frozen                          !
 ! D3    D(3,2,4,5)              7.7988         estimate D2E/DX2                !
 ! D4    D(3,2,4,16)          -170.0337         estimate D2E/DX2                !
 ! D5    D(2,4,5,6)            176.461          estimate D2E/DX2                !
 ! D6    D(2,4,5,17)            -0.9123         estimate D2E/DX2                !
 ! D7    D(16,4,5,6)            -5.8412         estimate D2E/DX2                !
 ! D8    D(16,4,5,17)          176.7855         estimate D2E/DX2                !
 ! D9    D(2,4,16,15)         -152.6989         estimate D2E/DX2                !
 ! D10   D(2,4,16,27)           25.7397         estimate D2E/DX2                !
 ! D11   D(5,4,16,15)           29.7125         estimate D2E/DX2                !
 ! D12   D(5,4,16,27)         -151.8488         estimate D2E/DX2                !
 ! D13   D(4,5,6,7)             -9.5391         estimate D2E/DX2                !
 ! D14   D(4,5,6,18)           151.8636         estimate D2E/DX2                !
 ! D15   D(17,5,6,7)           167.9106         estimate D2E/DX2                !
 ! D16   D(17,5,6,18)          -30.6868         estimate D2E/DX2                !
 ! D17   D(5,6,7,8)           -140.6602         estimate D2E/DX2                !
 ! D18   D(5,6,7,9)            102.8603         estimate D2E/DX2                !
 ! D19   D(5,6,7,13)           -25.6793         estimate D2E/DX2                !
 ! D20   D(18,6,7,8)            55.9438         estimate D2E/DX2                !
 ! D21   D(18,6,7,9)           -60.5357         estimate D2E/DX2                !
 ! D22   D(18,6,7,13)          170.9247         estimate D2E/DX2                !
 ! D23   D(6,7,9,10)           168.8987         estimate D2E/DX2                !
 ! D24   D(6,7,9,19)           -70.0631         estimate D2E/DX2                !
 ! D25   D(6,7,9,20)            48.9418         estimate D2E/DX2                !
 ! D26   D(8,7,9,10)            52.843          estimate D2E/DX2                !
 ! D27   D(8,7,9,19)           173.8813         estimate D2E/DX2                !
 ! D28   D(8,7,9,20)           -67.1138         estimate D2E/DX2                !
 ! D29   D(13,7,9,10)          -61.8776         estimate D2E/DX2                !
 ! D30   D(13,7,9,19)           59.1606         estimate D2E/DX2                !
 ! D31   D(13,7,9,20)          178.1655         estimate D2E/DX2                !
 ! D32   D(6,7,13,12)         -166.2777         estimate D2E/DX2                !
 ! D33   D(6,7,13,14)          -49.541          estimate D2E/DX2                !
 ! D34   D(6,7,13,15)           75.0217         Frozen                          !
 ! D35   D(8,7,13,12)          -51.679          estimate D2E/DX2                !
 ! D36   D(8,7,13,14)           65.0577         estimate D2E/DX2                !
 ! D37   D(8,7,13,15)         -170.3796         estimate D2E/DX2                !
 ! D38   D(9,7,13,12)           63.1126         estimate D2E/DX2                !
 ! D39   D(9,7,13,14)          179.8493         estimate D2E/DX2                !
 ! D40   D(9,7,13,15)          -55.5881         estimate D2E/DX2                !
 ! D41   D(7,9,10,11)           54.8127         Frozen                          !
 ! D42   D(7,9,10,21)          176.6031         estimate D2E/DX2                !
 ! D43   D(7,9,10,22)          -65.1739         estimate D2E/DX2                !
 ! D44   D(19,9,10,11)         -66.3581         estimate D2E/DX2                !
 ! D45   D(19,9,10,21)          55.4323         estimate D2E/DX2                !
 ! D46   D(19,9,10,22)         173.6553         estimate D2E/DX2                !
 ! D47   D(20,9,10,11)         175.407          estimate D2E/DX2                !
 ! D48   D(20,9,10,21)         -62.8026         estimate D2E/DX2                !
 ! D49   D(20,9,10,22)          55.4204         estimate D2E/DX2                !
 ! D50   D(9,10,11,12)         -52.8225         Frozen                          !
 ! D51   D(9,10,11,23)          67.7824         estimate D2E/DX2                !
 ! D52   D(9,10,11,24)        -174.6748         estimate D2E/DX2                !
 ! D53   D(21,10,11,12)       -174.707          estimate D2E/DX2                !
 ! D54   D(21,10,11,23)        -54.1022         estimate D2E/DX2                !
 ! D55   D(21,10,11,24)         63.4407         estimate D2E/DX2                !
 ! D56   D(22,10,11,12)         67.3864         estimate D2E/DX2                !
 ! D57   D(22,10,11,23)       -172.0088         estimate D2E/DX2                !
 ! D58   D(22,10,11,24)        -54.4659         estimate D2E/DX2                !
 ! D59   D(10,11,12,13)         56.5094         estimate D2E/DX2                !
 ! D60   D(10,11,12,25)        177.3829         estimate D2E/DX2                !
 ! D61   D(10,11,12,26)        -64.8874         estimate D2E/DX2                !
 ! D62   D(23,11,12,13)        -63.9589         estimate D2E/DX2                !
 ! D63   D(23,11,12,25)         56.9146         estimate D2E/DX2                !
 ! D64   D(23,11,12,26)        174.6443         estimate D2E/DX2                !
 ! D65   D(24,11,12,13)        178.4344         estimate D2E/DX2                !
 ! D66   D(24,11,12,25)        -60.6921         estimate D2E/DX2                !
 ! D67   D(24,11,12,26)         57.0376         estimate D2E/DX2                !
 ! D68   D(11,12,13,7)         -60.1427         estimate D2E/DX2                !
 ! D69   D(11,12,13,14)       -179.1992         estimate D2E/DX2                !
 ! D70   D(11,12,13,15)         61.7502         estimate D2E/DX2                !
 ! D71   D(25,12,13,7)         178.9903         estimate D2E/DX2                !
 ! D72   D(25,12,13,14)         59.9338         estimate D2E/DX2                !
 ! D73   D(25,12,13,15)        -59.1167         estimate D2E/DX2                !
 ! D74   D(26,12,13,7)          61.2353         estimate D2E/DX2                !
 ! D75   D(26,12,13,14)        -57.8212         estimate D2E/DX2                !
 ! D76   D(26,12,13,15)       -176.8718         estimate D2E/DX2                !
 ! D77   D(7,13,15,16)         -67.16           Frozen                          !
 ! D78   D(12,13,15,16)        175.6514         estimate D2E/DX2                !
 ! D79   D(14,13,15,16)         58.0465         estimate D2E/DX2                !
 ! D80   D(13,15,16,4)           5.7454         estimate D2E/DX2                !
 ! D81   D(13,15,16,27)       -172.63           estimate D2E/DX2                !
 --------------------------------------------------------------------------------
 Trust Radius=3.00D-01 FncErr=1.00D-07 GrdErr=1.00D-07 EigMax=2.50D+02 EigMin=1.00D-04
 Number of steps in this run=     20 maximum allowed number of steps=    162.
 GradGradGradGradGradGradGradGradGradGradGradGradGradGradGradGradGradGrad

                          Input orientation:                          
 ---------------------------------------------------------------------
 Center     Atomic      Atomic             Coordinates (Angstroms)
 Number     Number       Type             X           Y           Z
 ---------------------------------------------------------------------
      1          8           0       -3.647750   -1.419880   -0.154030
      2          7           0       -3.275950   -0.259890    0.008190
      3          8           0       -4.043080    0.689680    0.175610
      4          6           0       -1.771860   -0.017790   -0.047100
      5          6           0       -1.374610    1.288990    0.274160
      6          7           0       -0.088000    1.755460    0.367480
      7          6           0        1.195540    0.991820    0.349440
      8          1           0        1.849780    1.493080    1.109460
      9          6           0        1.973270    1.046000   -0.989170
     10          6           0        3.384810    0.463250   -0.785680
     11          6           0        3.320160   -0.953230   -0.192810
     12          6           0        2.458590   -0.989830    1.088070
     13          6           0        1.023240   -0.455410    0.829200
     14          1           0        0.465840   -0.497000    1.794370
     15          7           0        0.378540   -1.320690   -0.159420
     16          6           0       -0.860100   -1.113600   -0.467030
     17          1           0       -2.155760    2.027290    0.520310
     18          1           0        0.135700    2.736730    0.184960
     19          1           0        1.433480    0.468920   -1.769800
     20          1           0        2.060470    2.096600   -1.338910
     21          1           0        3.929610    0.441270   -1.754830
     22          1           0        3.953030    1.118070   -0.087830
     23          1           0        2.882020   -1.642960   -0.949180
     24          1           0        4.346630   -1.314990    0.034480
     25          1           0        2.397970   -2.036760    1.458180
     26          1           0        2.944250   -0.379230    1.877910
     27          1           0       -1.353830   -1.851890   -1.117050
 ---------------------------------------------------------------------
                    Distance matrix (angstroms):
                    1          2          3          4          5
     1  O    0.000000
     2  N    1.228872   0.000000
     3  O    2.171449   1.232153   0.000000
     4  C    2.344409   1.524453   2.389258   0.000000
     5  C    3.562091   2.466752   2.736716   1.403100   0.000000
     6  N    4.798602   3.788634   4.100653   2.480257   1.371739
     7  C    5.433897   4.655905   5.250204   3.159433   2.588368
     8  H    6.348589   5.528002   6.020243   4.091043   3.337075
     9  C    6.194666   5.500399   6.138415   4.005639   3.586551
    10  C    7.307671   6.746768   7.493257   5.231457   4.945421
    11  C    6.983626   6.635495   7.553290   5.179281   5.223646
    12  C    6.246210   5.880808   6.776802   4.486667   4.533089
    13  C    4.869814   4.381246   5.235075   2.961756   3.016734
    14  H    4.644308   4.153029   4.935479   2.937338   2.981284
    15  N    4.027515   3.809027   4.868732   2.516820   3.173635
    16  C    2.821838   2.605952   3.714319   1.486084   2.566422
    17  H    3.816248   2.597746   2.338802   2.156777   1.102666
    18  H    5.630880   4.544264   4.653247   3.358574   2.094026
    19  H    5.656605   5.086368   5.816018   3.671347   3.568705
    20  H    6.808329   5.987078   6.444107   4.563570   3.879949
    21  H    7.965100   7.451172   8.206832   5.969409   5.741967
    22  H    8.013578   7.359765   8.011909   5.836626   5.342658
    23  H    6.581787   6.383575   7.393468   5.011340   5.311477
    24  H    7.997290   7.695301   8.627042   6.255022   6.290528
    25  H    6.287328   6.119894   7.110948   4.871303   5.166708
    26  H    6.976116   6.496228   7.270707   5.106662   4.899747
    27  H    2.525096   2.737732   3.919517   2.164131   3.435262
                    6          7          8          9         10
     6  N    0.000000
     7  C    1.493635   0.000000
     8  H    2.091499   1.121125   0.000000
     9  C    2.567619   1.549089   2.149274   0.000000
    10  C    3.880721   2.522060   2.647343   1.540601   0.000000
    11  C    4.389360   2.931086   3.137253   2.538744   1.536909
    12  C    3.813265   2.463292   2.556550   2.948740   2.545636
    13  C    2.517138   1.534383   2.135024   2.542294   3.004794
    14  H    2.723294   2.199288   2.518891   3.521546   4.012371
    15  N    3.155627   2.504821   3.419343   2.972015   3.551380
    16  C    3.086106   3.053698   4.077199   3.600623   4.539521
    17  H    2.091143   3.511781   4.083727   4.504481   5.903367
    18  H    1.022862   2.048176   2.310722   2.759314   4.082593
    19  H    2.921995   2.195727   3.084209   1.110755   2.185455
    20  H    2.764791   2.195260   2.530443   1.110713   2.174344
    21  H    4.729956   3.493737   3.692716   2.186138   1.111999
    22  H    4.116248   2.794798   2.449040   2.176478   1.112950
    23  H    4.701475   3.387137   3.890792   2.838650   2.171555
    24  H    5.404118   3.917900   3.908337   3.500710   2.181719
    25  H    4.663754   3.442011   3.589135   3.958952   3.501258
    26  H    4.004103   2.697033   2.300853   3.345778   2.828176
    27  H    4.101113   4.091035   5.138997   4.414036   5.284353
                   11         12         13         14         15
    11  C    0.000000
    12  C    1.544117   0.000000
    13  C    2.562844   1.553334   0.000000
    14  H    3.507730   2.170897   1.115337   0.000000
    15  N    2.964670   2.447919   1.463461   2.122117   0.000000
    16  C    4.192313   3.667064   2.379159   2.692999   1.292958
    17  H    6.275168   5.542345   4.045399   3.855912   4.253667
    18  H    4.888691   4.483155   3.375282   3.627148   4.079243
    19  H    2.840593   3.368416   2.788814   3.817412   2.628484
    20  H    3.493111   3.946490   3.505610   4.368873   3.987224
    21  H    2.180818   3.506284   3.991019   5.047264   4.273164
    22  H    2.168370   2.838897   3.449703   4.279208   4.327777
    23  H    1.113458   2.180885   2.833368   3.831216   2.644805
    24  H    1.111833   2.186430   3.523546   4.338992   3.972829
    25  H    2.179504   1.112079   2.187731   2.493393   2.684676
    26  H    2.181437   1.110201   2.189949   2.482613   3.408802
    27  H    4.848504   4.487789   3.374686   3.690974   2.049472
                   16         17         18         19         20
    16  C    0.000000
    17  H    3.538187   0.000000
    18  H    4.030105   2.422097   0.000000
    19  H    3.076051   4.533847   3.263171   0.000000
    20  H    4.426657   4.608481   2.537062   1.796698   0.000000
    21  H    5.197824   6.687559   4.840008   2.496328   2.531164
    22  H    5.318869   6.205951   4.155296   3.098153   2.470730
    23  H    3.810007   6.403855   5.292469   2.689186   3.848525
    24  H    5.234702   7.327206   5.845598   3.863186   4.330320
    25  H    3.895341   6.175157   5.433706   4.198634   5.002228
    26  H    4.528921   5.800389   4.523631   4.038264   4.154363
    27  H    1.100621   4.286266   4.996935   3.685287   5.224676
                   21         22         23         24         25
    21  H    0.000000
    22  H    1.799304   0.000000
    23  H    2.467900   3.084197   0.000000
    24  H    2.541650   2.467724   1.794501   0.000000
    25  H    4.337048   3.842045   2.486919   2.518958   0.000000
    26  H    3.852396   2.669022   3.097309   2.498109   1.794993
    27  H    5.794833   6.167878   4.244321   5.840336   4.554337
                   26         27
    26  H    0.000000
    27  H    5.441691   0.000000
 Symmetry turned off by external request.
 Stoichiometry    C9H13N3O2
 Framework group  C1[X(C9H13N3O2)]
 Deg. of freedom    75
 Full point group                 C1      NOp   1
 Rotational constants (GHZ):           1.6922273           0.3976401           0.3537244
 Standard basis: 6-31G(d) (6D, 7F)
   236 basis functions,   444 primitive gaussians,   236 cartesian basis functions
    52 alpha electrons       52 beta electrons
       nuclear repulsion energy       917.1209684454 Hartrees.
 NAtoms=   27 NActive=   27 NUniq=   27 SFac= 1.00D+00 NAtFMM=   60 NAOKFM=F Big=F
 Integral buffers will be    131072 words long.
 Raffenetti 1 integral format.
 Two-electron integral symmetry is turned off.
 One-electron integrals computed using PRISM.
 NBasis=   236 RedAO= T EigKep=  1.32D-03  NBF=   236
 NBsUse=   236 1.00D-06 EigRej= -1.00D+00 NBFU=   236
 ExpMin= 1.61D-01 ExpMax= 5.48D+03 ExpMxC= 8.25D+02 IAcc=3 IRadAn=         5 AccDes= 0.00D+00
 Harris functional with IExCor=  205 and IRadAn=       5 diagonalized for initial guess.
 HarFok:  IExCor=  205 AccDes= 0.00D+00 IRadAn=         5 IDoV= 1 UseB2=F ITyADJ=14
 ICtDFT=  3500011 ScaDFX=  1.000000  1.000000  1.000000  1.000000
 FoFCou: FMM=F IPFlag=           0 FMFlag=      100000 FMFlg1=           0
         NFxFlg=           0 DoJE=T BraDBF=F KetDBF=T FulRan=T
         wScrn=  0.000000 ICntrl=       500 IOpCl=  0 I1Cent=   200000004 NGrid=           0
         NMat0=    1 NMatS0=      1 NMatT0=    0 NMatD0=    1 NMtDS0=    0 NMtDT0=    0
 Symmetry not used in FoFCou.
 Keep R1 ints in memory in canonical form, NReq=397720213.
 Requested convergence on RMS density matrix=1.00D-08 within 128 cycles.
 Requested convergence on MAX density matrix=1.00D-06.
 Requested convergence on             energy=1.00D-06.
 No special actions if energy rises.
 SCF Done:  E(RHF) =  -661.279408900     A.U. after   16 cycles
            NFock= 16  Conv=0.75D-08     -V/T= 2.0037
 ExpMin= 1.61D-01 ExpMax= 5.48D+03 ExpMxC= 8.25D+02 IAcc=3 IRadAn=         5 AccDes= 0.00D+00
 HarFok:  IExCor=  205 AccDes= 0.00D+00 IRadAn=         5 IDoV=-2 UseB2=F ITyADJ=14
 ICtDFT= 12500011 ScaDFX=  1.000000  1.000000  1.000000  1.000000
 Range of M.O.s used for correlation:    15   236
 NBasis=   236 NAE=    52 NBE=    52 NFC=    14 NFV=     0
 NROrb=    222 NOA=    38 NOB=    38 NVA=   184 NVB=   184
 Fully direct method using O(ONN) memory.
 JobTyp=1 Pass  1:  I=  15 to  52 NPSUse=  4 ParTrn=T ParDer=T DoDerP=T.
 Spin components of T(2) and E(2):
     alpha-alpha T2 =       0.9199847926D-01 E2=     -0.2718071427D+00
     alpha-beta  T2 =       0.4997718011D+00 E2=     -0.1493871493D+01
     beta-beta   T2 =       0.9199847926D-01 E2=     -0.2718071427D+00
 ANorm=    0.1297601156D+01
 E2 =    -0.2037485778D+01 EUMP2 =    -0.66331689467813D+03
          IDoAtm=111111111111111111111111111
          Differentiating once with respect to electric field.
                with respect to dipole field.
          Differentiating once with respect to nuclear coordinates.
 Keep R1 ints in memory in canonical form, NReq=397723379.
          There are     1 degrees of freedom in the 1st order CPHF.  IDoFFX=0 NUNeed=     1.
 LinEq1:  Iter=  0 NonCon=     1 RMS=4.61D-03 Max=1.10D-01 NDo=     1
 AX will form     1 AO Fock derivatives at one time.
 LinEq1:  Iter=  1 NonCon=     1 RMS=1.57D-03 Max=3.21D-02 NDo=     1
 LinEq1:  Iter=  2 NonCon=     1 RMS=6.41D-04 Max=1.77D-02 NDo=     1
 LinEq1:  Iter=  3 NonCon=     1 RMS=2.94D-04 Max=9.18D-03 NDo=     1
 LinEq1:  Iter=  4 NonCon=     1 RMS=9.05D-05 Max=2.08D-03 NDo=     1
 LinEq1:  Iter=  5 NonCon=     1 RMS=3.78D-05 Max=1.91D-03 NDo=     1
 LinEq1:  Iter=  6 NonCon=     1 RMS=1.56D-05 Max=5.80D-04 NDo=     1
 LinEq1:  Iter=  7 NonCon=     1 RMS=6.09D-06 Max=1.08D-04 NDo=     1
 LinEq1:  Iter=  8 NonCon=     1 RMS=2.45D-06 Max=6.67D-05 NDo=     1
 LinEq1:  Iter=  9 NonCon=     1 RMS=9.42D-07 Max=2.83D-05 NDo=     1
 LinEq1:  Iter= 10 NonCon=     1 RMS=4.55D-07 Max=1.46D-05 NDo=     1
 LinEq1:  Iter= 11 NonCon=     1 RMS=1.58D-07 Max=5.86D-06 NDo=     1
 LinEq1:  Iter= 12 NonCon=     1 RMS=5.53D-08 Max=8.08D-07 NDo=     1
 LinEq1:  Iter= 13 NonCon=     1 RMS=1.76D-08 Max=3.73D-07 NDo=     1
 LinEq1:  Iter= 14 NonCon=     1 RMS=5.71D-09 Max=1.54D-07 NDo=     1
 LinEq1:  Iter= 15 NonCon=     1 RMS=2.13D-09 Max=4.84D-08 NDo=     1
 LinEq1:  Iter= 16 NonCon=     1 RMS=8.01D-10 Max=1.24D-08 NDo=     1
 LinEq1:  Iter= 17 NonCon=     1 RMS=2.66D-10 Max=3.97D-09 NDo=     1
 LinEq1:  Iter= 18 NonCon=     1 RMS=9.19D-11 Max=1.09D-09 NDo=     1
 LinEq1:  Iter= 19 NonCon=     0 RMS=3.05D-11 Max=3.72D-10 NDo=     1
 Linear equations converged to 1.000D-10 1.000D-09 after    19 iterations.
 End of Minotr F.D. properties file   721 does not exist.
 End of Minotr F.D. properties file   722 does not exist.
 End of Minotr F.D. properties file   788 does not exist.

 **********************************************************************

            Population analysis using the SCF Density.

 **********************************************************************

 Alpha  occ. eigenvalues --  -20.59834 -20.59485 -15.85394 -15.63248 -15.57044
 Alpha  occ. eigenvalues --  -11.35739 -11.30664 -11.30109 -11.30047 -11.27706
 Alpha  occ. eigenvalues --  -11.24627 -11.23886 -11.23428 -11.22876  -1.58564
 Alpha  occ. eigenvalues --   -1.38079  -1.28557  -1.22827  -1.13301  -1.08443
 Alpha  occ. eigenvalues --   -1.01819  -1.00711  -0.93368  -0.89230  -0.84963
 Alpha  occ. eigenvalues --   -0.81546  -0.78122  -0.76987  -0.74215  -0.71173
 Alpha  occ. eigenvalues --   -0.70360  -0.69863  -0.67451  -0.64351  -0.63331
 Alpha  occ. eigenvalues --   -0.61612  -0.60310  -0.57424  -0.56492  -0.54933
 Alpha  occ. eigenvalues --   -0.53520  -0.50733  -0.49338  -0.48383  -0.47819
 Alpha  occ. eigenvalues --   -0.47673  -0.46157  -0.45744  -0.44074  -0.42149
 Alpha  occ. eigenvalues --   -0.40170  -0.33802
 Alpha virt. eigenvalues --    0.07435   0.11556   0.18309   0.21396   0.23311
 Alpha virt. eigenvalues --    0.24196   0.26323   0.27774   0.28557   0.28899
 Alpha virt. eigenvalues --    0.29987   0.30990   0.31871   0.32244   0.33301
 Alpha virt. eigenvalues --    0.33725   0.34204   0.35378   0.37531   0.38437
 Alpha virt. eigenvalues --    0.40591   0.41785   0.44432   0.45280   0.45845
 Alpha virt. eigenvalues --    0.46026   0.49652   0.53184   0.57750   0.58953
 Alpha virt. eigenvalues --    0.63310   0.69224   0.69513   0.72201   0.74082
 Alpha virt. eigenvalues --    0.75133   0.75667   0.75862   0.77768   0.79275
 Alpha virt. eigenvalues --    0.80342   0.83586   0.85040   0.85362   0.87992
 Alpha virt. eigenvalues --    0.88967   0.90053   0.90925   0.91949   0.93791
 Alpha virt. eigenvalues --    0.95199   0.97212   0.98766   1.00356   1.01826
 Alpha virt. eigenvalues --    1.02759   1.05245   1.06329   1.07006   1.08848
 Alpha virt. eigenvalues --    1.09390   1.10439   1.11360   1.11829   1.13238
 Alpha virt. eigenvalues --    1.13868   1.14226   1.15221   1.16281   1.17318
 Alpha virt. eigenvalues --    1.17930   1.19899   1.21157   1.22216   1.23140
 Alpha virt. eigenvalues --    1.23565   1.24378   1.25608   1.27194   1.27539
 Alpha virt. eigenvalues --    1.29434   1.31079   1.32975   1.35535   1.39729
 Alpha virt. eigenvalues --    1.43109   1.46057   1.46834   1.48987   1.52533
 Alpha virt. eigenvalues --    1.54316   1.55168   1.60955   1.61228   1.66330
 Alpha virt. eigenvalues --    1.68930   1.70504   1.72710   1.73035   1.77129
 Alpha virt. eigenvalues --    1.77995   1.79250   1.84322   1.89244   1.92690
 Alpha virt. eigenvalues --    1.93147   1.96201   1.97513   1.98895   2.01197
 Alpha virt. eigenvalues --    2.03051   2.03961   2.06003   2.09093   2.11803
 Alpha virt. eigenvalues --    2.12876   2.13674   2.17739   2.18838   2.19327
 Alpha virt. eigenvalues --    2.20940   2.22200   2.24242   2.24952   2.26447
 Alpha virt. eigenvalues --    2.29020   2.32296   2.33486   2.35364   2.36094
 Alpha virt. eigenvalues --    2.38460   2.40111   2.41276   2.43442   2.46220
 Alpha virt. eigenvalues --    2.48436   2.50651   2.50736   2.56565   2.57321
 Alpha virt. eigenvalues --    2.60826   2.62840   2.66152   2.68314   2.68816
 Alpha virt. eigenvalues --    2.69857   2.70502   2.75241   2.76483   2.80736
 Alpha virt. eigenvalues --    2.84275   2.86590   2.90141   2.91921   2.95574
 Alpha virt. eigenvalues --    2.97450   2.98497   3.02318   3.03350   3.05602
 Alpha virt. eigenvalues --    3.06864   3.12622   3.19039   3.22705   3.26992
 Alpha virt. eigenvalues --    3.30687   3.33292   3.36778   3.44857   3.59194
 Alpha virt. eigenvalues --    4.10228   4.23418   4.31868   4.36124   4.43362
 Alpha virt. eigenvalues --    4.52774   4.59819   4.60208   4.70876   4.77683
 Alpha virt. eigenvalues --    4.96113   4.99239   5.02646   5.10080
          Condensed to atoms (all electrons):
               1          2          3          4          5          6
     1  O    8.299130   0.311738  -0.088371  -0.082581   0.003825  -0.000015
     2  N    0.311738   5.682235   0.310533   0.265723  -0.049777   0.000896
     3  O   -0.088371   0.310533   8.329775  -0.085367   0.007487   0.000487
     4  C   -0.082581   0.265723  -0.085367   5.257898   0.556432  -0.047268
     5  C    0.003825  -0.049777   0.007487   0.556432   4.684070   0.306360
     6  N   -0.000015   0.000896   0.000487  -0.047268   0.306360   7.194066
     7  C    0.000003  -0.000087   0.000001   0.004192  -0.029206   0.198152
     8  H   -0.000000   0.000002  -0.000000  -0.000200   0.002254  -0.050417
     9  C   -0.000000  -0.000002   0.000000   0.000512   0.001614  -0.055605
    10  C   -0.000000   0.000000  -0.000000  -0.000020  -0.000060   0.003321
    11  C   -0.000000  -0.000000  -0.000000  -0.000012   0.000013  -0.000154
    12  C   -0.000000   0.000001  -0.000000  -0.000103  -0.000103   0.003625
    13  C   -0.000016  -0.000026  -0.000002  -0.010558   0.000424  -0.044691
    14  H   -0.000004  -0.000053  -0.000000   0.003183   0.004894  -0.005630
    15  N    0.000153   0.001515  -0.000010  -0.059988  -0.003353   0.001643
    16  C    0.003750  -0.022059   0.001616   0.316351  -0.041567  -0.001495
    17  H    0.000143  -0.004171   0.012186  -0.028505   0.379126  -0.034786
    18  H    0.000000  -0.000036   0.000009   0.000884  -0.024393   0.328478
    19  H    0.000000   0.000000   0.000000  -0.000732   0.000614   0.000702
    20  H    0.000000  -0.000000   0.000000  -0.000023   0.000023  -0.001790
    21  H   -0.000000  -0.000000   0.000000   0.000000   0.000001  -0.000058
    22  H   -0.000000   0.000000  -0.000000  -0.000000  -0.000002  -0.000098
    23  H    0.000000  -0.000000   0.000000   0.000024  -0.000001  -0.000024
    24  H    0.000000   0.000000   0.000000   0.000000  -0.000000   0.000004
    25  H    0.000000  -0.000000   0.000000   0.000019  -0.000001  -0.000072
    26  H    0.000000  -0.000000   0.000000   0.000007  -0.000001  -0.000067
    27  H    0.005157  -0.000224  -0.000000  -0.068524   0.002471   0.000051
               7          8          9         10         11         12
     1  O    0.000003  -0.000000  -0.000000  -0.000000  -0.000000  -0.000000
     2  N   -0.000087   0.000002  -0.000002   0.000000  -0.000000   0.000001
     3  O    0.000001  -0.000000   0.000000  -0.000000  -0.000000  -0.000000
     4  C    0.004192  -0.000200   0.000512  -0.000020  -0.000012  -0.000103
     5  C   -0.029206   0.002254   0.001614  -0.000060   0.000013  -0.000103
     6  N    0.198152  -0.050417  -0.055605   0.003321  -0.000154   0.003625
     7  C    4.999727   0.417256   0.340739  -0.049395  -0.007683  -0.064235
     8  H    0.417256   0.548148  -0.060745   0.001536  -0.000341  -0.002782
     9  C    0.340739  -0.060745   5.181434   0.317767  -0.053045  -0.006303
    10  C   -0.049395   0.001536   0.317767   5.126785   0.332747  -0.060056
    11  C   -0.007683  -0.000341  -0.053045   0.332747   5.123793   0.330619
    12  C   -0.064235  -0.002782  -0.006303  -0.060056   0.330619   5.137219
    13  C    0.333941  -0.040956  -0.049869  -0.001800  -0.047846   0.368118
    14  H   -0.040050  -0.000949   0.003864  -0.000393   0.003944  -0.040692
    15  N   -0.057900   0.004096  -0.013097   0.001469  -0.007642  -0.074241
    16  C   -0.002954   0.000061  -0.001057  -0.000015  -0.000006   0.002611
    17  H    0.001479  -0.000014  -0.000068   0.000001   0.000000   0.000001
    18  H   -0.028541  -0.002581   0.000839  -0.000122   0.000012  -0.000136
    19  H   -0.034922   0.004104   0.385853  -0.032495  -0.002283   0.000644
    20  H   -0.041584  -0.001881   0.397272  -0.037391   0.004145  -0.000361
    21  H    0.004043  -0.000081  -0.035827   0.400159  -0.035838   0.004206
    22  H   -0.004187   0.003505  -0.045667   0.396012  -0.045644  -0.001227
    23  H    0.000424   0.000033  -0.002004  -0.040093   0.396714  -0.036658
    24  H   -0.000142  -0.000098   0.004394  -0.038467   0.400334  -0.037839
    25  H    0.004981  -0.000004  -0.000368   0.004096  -0.033985   0.395456
    26  H   -0.004459   0.001626   0.001031  -0.002382  -0.042296   0.394795
    27  H   -0.000415   0.000009  -0.000063   0.000005   0.000004  -0.000017
              13         14         15         16         17         18
     1  O   -0.000016  -0.000004   0.000153   0.003750   0.000143   0.000000
     2  N   -0.000026  -0.000053   0.001515  -0.022059  -0.004171  -0.000036
     3  O   -0.000002  -0.000000  -0.000010   0.001616   0.012186   0.000009
     4  C   -0.010558   0.003183  -0.059988   0.316351  -0.028505   0.000884
     5  C    0.000424   0.004894  -0.003353  -0.041567   0.379126  -0.024393
     6  N   -0.044691  -0.005630   0.001643  -0.001495  -0.034786   0.328478
     7  C    0.333941  -0.040050  -0.057900  -0.002954   0.001479  -0.028541
     8  H   -0.040956  -0.000949   0.004096   0.000061  -0.000014  -0.002581
     9  C   -0.049869   0.003864  -0.013097  -0.001057  -0.000068   0.000839
    10  C   -0.001800  -0.000393   0.001469  -0.000015   0.000001  -0.000122
    11  C   -0.047846   0.003944  -0.007642  -0.000006   0.000000   0.000012
    12  C    0.368118  -0.040692  -0.074241   0.002611   0.000001  -0.000136
    13  C    5.026837   0.401991   0.237850  -0.069726  -0.000044   0.003730
    14  H    0.401991   0.519446  -0.036013  -0.004794   0.000067   0.000012
    15  N    0.237850  -0.036013   6.932664   0.589469  -0.000054  -0.000119
    16  C   -0.069726  -0.004794   0.589469   4.693025   0.001690  -0.000240
    17  H   -0.000044   0.000067  -0.000054   0.001690   0.387344  -0.001897
    18  H    0.003730   0.000012  -0.000119  -0.000240  -0.001897   0.324279
    19  H   -0.006315   0.000063   0.006931   0.002586   0.000011  -0.000128
    20  H    0.003865  -0.000048   0.000081  -0.000032  -0.000001   0.002916
    21  H   -0.000372   0.000009  -0.000029   0.000002  -0.000000  -0.000000
    22  H    0.000314  -0.000044   0.000002  -0.000001   0.000000   0.000002
    23  H   -0.005835   0.000007   0.006677   0.000058   0.000000   0.000000
    24  H    0.004133  -0.000057   0.000045   0.000005   0.000000  -0.000000
    25  H   -0.034567  -0.002645   0.000690  -0.000067  -0.000000   0.000002
    26  H   -0.044744  -0.000912   0.004187  -0.000059   0.000000  -0.000001
    27  H    0.005018  -0.000187  -0.040798   0.403300  -0.000059   0.000002
              19         20         21         22         23         24
     1  O    0.000000   0.000000  -0.000000  -0.000000   0.000000   0.000000
     2  N    0.000000  -0.000000  -0.000000   0.000000  -0.000000   0.000000
     3  O    0.000000   0.000000   0.000000  -0.000000   0.000000   0.000000
     4  C   -0.000732  -0.000023   0.000000  -0.000000   0.000024   0.000000
     5  C    0.000614   0.000023   0.000001  -0.000002  -0.000001  -0.000000
     6  N    0.000702  -0.001790  -0.000058  -0.000098  -0.000024   0.000004
     7  C   -0.034922  -0.041584   0.004043  -0.004187   0.000424  -0.000142
     8  H    0.004104  -0.001881  -0.000081   0.003505   0.000033  -0.000098
     9  C    0.385853   0.397272  -0.035827  -0.045667  -0.002004   0.004394
    10  C   -0.032495  -0.037391   0.400159   0.396012  -0.040093  -0.038467
    11  C   -0.002283   0.004145  -0.035838  -0.045644   0.396714   0.400334
    12  C    0.000644  -0.000361   0.004206  -0.001227  -0.036658  -0.037839
    13  C   -0.006315   0.003865  -0.000372   0.000314  -0.005835   0.004133
    14  H    0.000063  -0.000048   0.000009  -0.000044   0.000007  -0.000057
    15  N    0.006931   0.000081  -0.000029   0.000002   0.006677   0.000045
    16  C    0.002586  -0.000032   0.000002  -0.000001   0.000058   0.000005
    17  H    0.000011  -0.000001  -0.000000   0.000000   0.000000   0.000000
    18  H   -0.000128   0.002916  -0.000000   0.000002   0.000000  -0.000000
    19  H    0.506771  -0.024061  -0.002596   0.003755   0.001638  -0.000069
    20  H   -0.024061   0.550130  -0.002601  -0.002975  -0.000050  -0.000090
    21  H   -0.002596  -0.002601   0.526017  -0.024683  -0.002814  -0.002053
    22  H    0.003755  -0.002975  -0.024683   0.568629   0.004063  -0.003593
    23  H    0.001638  -0.000050  -0.002814   0.004063   0.510000  -0.025004
    24  H   -0.000069  -0.000090  -0.002053  -0.003593  -0.025004   0.540829
    25  H   -0.000027   0.000011  -0.000086  -0.000082  -0.002101  -0.002375
    26  H    0.000023  -0.000035  -0.000074   0.002464   0.003821  -0.002776
    27  H    0.000078  -0.000000  -0.000000   0.000000  -0.000022  -0.000000
              25         26         27
     1  O    0.000000   0.000000   0.005157
     2  N   -0.000000  -0.000000  -0.000224
     3  O    0.000000   0.000000  -0.000000
     4  C    0.000019   0.000007  -0.068524
     5  C   -0.000001  -0.000001   0.002471
     6  N   -0.000072  -0.000067   0.000051
     7  C    0.004981  -0.004459  -0.000415
     8  H   -0.000004   0.001626   0.000009
     9  C   -0.000368   0.001031  -0.000063
    10  C    0.004096  -0.002382   0.000005
    11  C   -0.033985  -0.042296   0.000004
    12  C    0.395456   0.394795  -0.000017
    13  C   -0.034567  -0.044744   0.005018
    14  H   -0.002645  -0.000912  -0.000187
    15  N    0.000690   0.004187  -0.040798
    16  C   -0.000067  -0.000059   0.403300
    17  H   -0.000000   0.000000  -0.000059
    18  H    0.000002  -0.000001   0.000002
    19  H   -0.000027   0.000023   0.000078
    20  H    0.000011  -0.000035  -0.000000
    21  H   -0.000086  -0.000074  -0.000000
    22  H   -0.000082   0.002464   0.000000
    23  H   -0.002101   0.003821  -0.000022
    24  H   -0.002375  -0.002776  -0.000000
    25  H    0.510872  -0.023067  -0.000010
    26  H   -0.023067   0.560348   0.000001
    27  H   -0.000010   0.000001   0.459373
 Mulliken charges:
               1
     1  O   -0.452912
     2  N    0.503793
     3  O   -0.488343
     4  C   -0.021343
     5  C    0.198858
     6  N   -0.795617
     7  C    0.060822
     8  H    0.178420
     9  C   -0.311599
    10  C   -0.321208
    11  C   -0.315549
    12  C   -0.312541
    13  C   -0.028855
    14  H    0.194990
    15  N   -0.494228
    16  C    0.129546
    17  H    0.287550
    18  H    0.397028
    19  H    0.189856
    20  H    0.154480
    21  H    0.172676
    22  H    0.149458
    23  H    0.191144
    24  H    0.162821
    25  H    0.183331
    26  H    0.152572
    27  H    0.234850
 Sum of Mulliken charges =  -0.00000
 Mulliken charges with hydrogens summed into heavy atoms:
               1
     1  O   -0.452912
     2  N    0.503793
     3  O   -0.488343
     4  C   -0.021343
     5  C    0.486407
     6  N   -0.398589
     7  C    0.239242
     9  C    0.032737
    10  C    0.000927
    11  C    0.038415
    12  C    0.023362
    13  C    0.166136
    15  N   -0.494228
    16  C    0.364396
 Electronic spatial extent (au):  <R**2>=           3136.2859
 Charge=             -0.0000 electrons
 Dipole moment (field-independent basis, Debye):
    X=              5.3783    Y=              4.3878    Z=              0.4475  Tot=              6.9555
 Quadrupole moment (field-independent basis, Debye-Ang):
   XX=           -105.6600   YY=            -80.4378   ZZ=            -82.2238
   XY=             -1.6855   XZ=              1.1431   YZ=             -0.0376
 Traceless Quadrupole moment (field-independent basis, Debye-Ang):
   XX=            -16.2195   YY=              9.0028   ZZ=              7.2167
   XY=             -1.6855   XZ=              1.1431   YZ=             -0.0376
 Octapole moment (field-independent basis, Debye-Ang**2):
  XXX=            103.1011  YYY=             35.5742  ZZZ=             -5.6200  XYY=             -0.8991
  XXY=             10.9875  XXZ=             -1.7163  XZZ=             -8.1990  YZZ=             -2.9643
  YYZ=              0.2675  XYZ=             -1.5625
 Hexadecapole moment (field-independent basis, Debye-Ang**3):
 XXXX=          -3585.2226 YYYY=           -615.0685 ZZZZ=           -298.7088 XXXY=            -36.2115
 XXXZ=             36.8045 YYYX=            -16.6538 YYYZ=             10.9931 ZZZX=             26.6675
 ZZZY=              9.7927 XXYY=           -660.7886 XXZZ=           -546.6566 YYZZ=           -163.2341
 XXYZ=              2.4018 YYXZ=             12.4774 ZZXY=              3.5562
 N-N= 9.171209684454D+02 E-N=-3.380225679674D+03  KE= 6.588585924614D+02
 Calling FoFJK, ICntrl=  10002127 FMM=F ISym2X=0 I1Cent= 0 IOpClX= 0 NMat=1 NMatS=1 NMatT=0.
 -------------------------------------------------------------------
 Center     Atomic                   Forces (Hartrees/Bohr)
 Number     Number              X              Y              Z
 -------------------------------------------------------------------
      1        8          -0.001180286   -0.022085557   -0.003038770
      2        7           0.040831315    0.007677327   -0.006202395
      3        8          -0.001896611    0.014129816    0.004114935
      4        6           0.002140355    0.024932822    0.014785472
      5        6           0.003859819   -0.015367374   -0.005354202
      6        7           0.014544234   -0.011277244   -0.006599696
      7        6          -0.004551262    0.005490141    0.003034581
      8        1          -0.009859585   -0.001809463   -0.007739519
      9        6          -0.003945887    0.000109113   -0.002096176
     10        6           0.002839297   -0.000838994    0.001014220
     11        6          -0.001162092   -0.004624639   -0.002461356
     12        6           0.000924229   -0.008819331   -0.002724505
     13        6           0.009845401   -0.002573906    0.005638008
     14        1           0.000910790    0.004685145   -0.009778409
     15        7          -0.001334417    0.003446502   -0.000060639
     16        6          -0.027561513    0.000926225    0.003328486
     17        1           0.006509997   -0.006191173   -0.007193678
     18        1          -0.017641896   -0.001598972    0.006790159
     19        1           0.003029819    0.005907787    0.007746384
     20        1          -0.003247645   -0.007327021    0.002596673
     21        1          -0.004441125    0.002385880    0.009582594
     22        1          -0.003905413   -0.004006944   -0.007443130
     23        1           0.003943455    0.006160644    0.009296068
     24        1          -0.009380501    0.002587347   -0.002191004
     25        1          -0.000709283    0.010550034   -0.002369904
     26        1          -0.004773948   -0.004843030   -0.004400876
     27        1           0.006212749    0.002374866    0.001726678
 -------------------------------------------------------------------
 Cartesian Forces:  Max     0.040831315 RMS     0.009118631

 GradGradGradGradGradGradGradGradGradGradGradGradGradGradGradGradGradGrad
 Berny optimization.
 FormGI is forming the generalized inverse of G from B-inverse, IUseBI=4.
 Internal  Forces:  Max     0.037391825 RMS     0.007054780
 Search for a local minimum.
 Step number   1 out of a maximum of   20
 All quantities printed in internal units (Hartrees-Bohrs-Radians)
 Mixed Optimization -- RFO/linear search
 Second derivative matrix not updated -- first step.
 ITU=  0
     Eigenvalues ---    0.00233   0.00771   0.01018   0.01139   0.01195
     Eigenvalues ---    0.01514   0.01532   0.01612   0.01972   0.02012
     Eigenvalues ---    0.02059   0.02701   0.03673   0.04506   0.04693
     Eigenvalues ---    0.04839   0.05088   0.05138   0.05307   0.05909
     Eigenvalues ---    0.06258   0.07237   0.07699   0.07730   0.07878
     Eigenvalues ---    0.07991   0.08051   0.08065   0.10457   0.11739
     Eigenvalues ---    0.12265   0.13544   0.15301   0.15826   0.15992
     Eigenvalues ---    0.16001   0.20085   0.21927   0.23277   0.25000
     Eigenvalues ---    0.25000   0.25399   0.26244   0.26648   0.27973
     Eigenvalues ---    0.28085   0.28500   0.29942   0.31450   0.31569
     Eigenvalues ---    0.32041   0.32237   0.32290   0.32381   0.32389
     Eigenvalues ---    0.32407   0.32520   0.32525   0.32579   0.33389
     Eigenvalues ---    0.33392   0.33613   0.35476   0.43666   0.43885
     Eigenvalues ---    0.48942   0.66815   0.90195   0.915581000.00000
     Eigenvalues --- 1000.000001000.000001000.000001000.000001000.00000
     Eigenvalues --- 1000.000001000.000001000.000001000.000001000.00000
     Eigenvalues --- 1000.000001000.000001000.000001000.000001000.00000
     Eigenvalues --- 1000.000001000.000001000.000001000.000001000.00000
     Eigenvalues --- 1000.000001000.000001000.000001000.000001000.00000
     Eigenvalues --- 1000.000001000.000001000.000001000.000001000.00000
     Eigenvalues --- 1000.000001000.000001000.000001000.000001000.00000
     Eigenvalues --- 1000.000001000.000001000.000001000.000001000.00000
     Eigenvalues --- 1000.000001000.000001000.000001000.000001000.00000
     Eigenvalues --- 1000.000001000.000001000.000001000.000001000.00000
     Eigenvalues --- 1000.000001000.000001000.000001000.000001000.00000
     Eigenvalues --- 1000.000001000.000001000.000001000.000001000.00000
     Eigenvalues --- 1000.000001000.000001000.000001000.000001000.00000
     Eigenvalues --- 1000.000001000.000001000.000001000.000001000.00000
     Eigenvalues --- 1000.000001000.000001000.000001000.000001000.00000
     Eigenvalues --- 1000.000001000.000001000.000001000.000001000.00000
     Eigenvalues --- 1000.000001000.000001000.000001000.000001000.00000
     Eigenvalues --- 1000.000001000.000001000.000001000.000001000.00000
     Eigenvalues --- 1000.00000
 RFO step:  Lambda=-2.41215830D-02 EMin= 2.33216232D-03
 Linear search not attempted -- first point.
 Iteration  1 RMS(Cart)=  0.05668140 RMS(Int)=  0.00122451
 Iteration  2 RMS(Cart)=  0.00132298 RMS(Int)=  0.00022949
 Iteration  3 RMS(Cart)=  0.00000152 RMS(Int)=  0.00022949
 Iteration  4 RMS(Cart)=  0.00000000 RMS(Int)=  0.00022949
 Iteration  1 RMS(Cart)=  0.00008142 RMS(Int)=  0.00002677
 Iteration  2 RMS(Cart)=  0.00003278 RMS(Int)=  0.00002979
 Iteration  3 RMS(Cart)=  0.00001351 RMS(Int)=  0.00003280
 Iteration  4 RMS(Cart)=  0.00000594 RMS(Int)=  0.00003451
 Iteration  5 RMS(Cart)=  0.00000302 RMS(Int)=  0.00003546
 Iteration  6 RMS(Cart)=  0.00000190 RMS(Int)=  0.00003601
 Iteration  7 RMS(Cart)=  0.00000143 RMS(Int)=  0.00003636
 Iteration  8 RMS(Cart)=  0.00000117 RMS(Int)=  0.00003660
 Iteration  9 RMS(Cart)=  0.00000100 RMS(Int)=  0.00003678
 Variable       Old X    -DE/DX   Delta X   Delta X   Delta X     New X
                                 (Linear)    (Quad)   (Total)
    R1        2.32223   0.02161   0.00000   0.02299   0.02299   2.34522
    R2        2.32843   0.01263   0.00000   0.01364   0.01364   2.34207
    R3        2.88080  -0.03739   0.00000  -0.11557  -0.11557   2.76523
    R4        2.65147  -0.03537   0.00000  -0.07513  -0.07486   2.57662
    R5        2.80829  -0.02213   0.00000  -0.06000  -0.05976   2.74853
    R6        2.59221  -0.02487   0.00000  -0.04821  -0.04810   2.54411
    R7        2.08374  -0.01036   0.00000  -0.02895  -0.02895   2.05479
    R8        2.82256  -0.01881   0.00000  -0.05443  -0.05454   2.76802
    R9        1.93293  -0.00660   0.00000  -0.01426  -0.01426   1.91866
   R10        2.11862  -0.01181   0.00000  -0.03487  -0.03487   2.08375
   R11        2.92735  -0.01308   0.00000  -0.04474  -0.04477   2.88259
   R12        2.89956  -0.00389   0.00000  -0.00953  -0.00960   2.88996
   R13        2.91131  -0.00463   0.00000  -0.01420  -0.01423   2.89709
   R14        2.09902  -0.00999   0.00000  -0.02859  -0.02859   2.07044
   R15        2.09894  -0.00800   0.00000  -0.02291  -0.02291   2.07604
   R16        2.90434  -0.00175   0.00000  -0.00696  -0.00701   2.89733
   R17        2.10137  -0.01057   0.00000  -0.03039  -0.03039   2.07099
   R18        2.10317  -0.00902   0.00000  -0.02599  -0.02599   2.07718
   R19        2.91796  -0.00909   0.00000  -0.02857  -0.02854   2.88942
   R20        2.10413  -0.01168   0.00000  -0.03372  -0.03372   2.07041
   R21        2.10106  -0.00995   0.00000  -0.02858  -0.02858   2.07248
   R22        2.93538  -0.01049   0.00000  -0.03624  -0.03622   2.89915
   R23        2.10152  -0.01068   0.00000  -0.03070  -0.03070   2.07082
   R24        2.09797  -0.00788   0.00000  -0.02253  -0.02253   2.07545
   R25        2.10768  -0.00909   0.00000  -0.02639  -0.02639   2.08129
   R26        2.76554  -0.00405   0.00000  -0.00975  -0.01007   2.75547
   R27        2.44334  -0.00683   0.00000  -0.00874  -0.00877   2.43456
   R28        2.07987  -0.00540   0.00000  -0.01499  -0.01499   2.06488
    A1        2.16160   0.01017   0.00000   0.03761   0.03701   2.19861
    A2        2.03045  -0.00285   0.00000  -0.00989  -0.01050   2.01995
    A3        2.09072  -0.00727   0.00000  -0.02601  -0.02661   2.06411
    A4        2.00308   0.00057   0.00000  -0.03180  -0.03238   1.97070
    A5        2.09264  -0.01514   0.00000   0.00000  -0.00000   2.09264
    A6        2.18677   0.01452   0.00000   0.03070   0.03083   2.21761
    A7        2.21160   0.00426   0.00000   0.02131   0.02165   2.23325
    A8        2.06478  -0.00302   0.00000  -0.01523  -0.01551   2.04927
    A9        2.00598  -0.00120   0.00000  -0.00519  -0.00548   2.00050
   A10        2.25406  -0.00567   0.00000  -0.01807  -0.01811   2.23595
   A11        2.11673  -0.01256   0.00000  -0.07296  -0.07328   2.04345
   A12        1.87589   0.01843   0.00000   0.09772   0.09785   1.97374
   A13        1.83869  -0.00152   0.00000  -0.01723  -0.01703   1.82166
   A14        2.00865  -0.00126   0.00000  -0.01146  -0.01146   1.99718
   A15        1.96270   0.00124   0.00000   0.00129   0.00079   1.96350
   A16        1.85166   0.00271   0.00000   0.02350   0.02332   1.87498
   A17        1.84967   0.00071   0.00000   0.01663   0.01649   1.86616
   A18        1.93859  -0.00157   0.00000  -0.00881  -0.00848   1.93010
   A19        1.90989   0.00016   0.00000  -0.00468  -0.00483   1.90506
   A20        1.92319  -0.00074   0.00000  -0.01291  -0.01287   1.91032
   A21        1.92260  -0.00167   0.00000  -0.00721  -0.00720   1.91540
   A22        1.91938  -0.00042   0.00000   0.00568   0.00564   1.92502
   A23        1.90440   0.00307   0.00000   0.02441   0.02442   1.92882
   A24        1.88418  -0.00037   0.00000  -0.00485  -0.00510   1.87908
   A25        1.94017  -0.00076   0.00000   0.00572   0.00559   1.94577
   A26        1.91904  -0.00071   0.00000  -0.00672  -0.00673   1.91231
   A27        1.90503   0.00027   0.00000  -0.00296  -0.00301   1.90202
   A28        1.91622   0.00075   0.00000   0.00697   0.00701   1.92323
   A29        1.89849   0.00167   0.00000   0.01100   0.01104   1.90953
   A30        1.88386  -0.00121   0.00000  -0.01450  -0.01459   1.86927
   A31        1.94476   0.00062   0.00000   0.00521   0.00534   1.95010
   A32        1.90225   0.00065   0.00000   0.00554   0.00549   1.90774
   A33        1.91761   0.00035   0.00000   0.00541   0.00538   1.92299
   A34        1.90631  -0.00108   0.00000  -0.01369  -0.01374   1.89257
   A35        1.91542  -0.00049   0.00000  -0.00014  -0.00023   1.91519
   A36        1.87612  -0.00008   0.00000  -0.00271  -0.00274   1.87338
   A37        1.94893  -0.00303   0.00000  -0.01801  -0.01804   1.93089
   A38        1.90583   0.00260   0.00000   0.01700   0.01685   1.92268
   A39        1.91032   0.00137   0.00000   0.01306   0.01304   1.92335
   A40        1.90603   0.00021   0.00000  -0.00212  -0.00196   1.90407
   A41        1.91088  -0.00017   0.00000  -0.00529  -0.00524   1.90564
   A42        1.88057  -0.00090   0.00000  -0.00416  -0.00434   1.87623
   A43        1.84715   0.00454   0.00000   0.02455   0.02460   1.87175
   A44        1.94106  -0.00451   0.00000  -0.03188  -0.03231   1.90876
   A45        1.97787   0.00110   0.00000   0.00856   0.00869   1.98656
   A46        1.88048   0.00227   0.00000   0.03032   0.03063   1.91111
   A47        1.89255  -0.00390   0.00000  -0.02714  -0.02714   1.86541
   A48        1.92024   0.00070   0.00000  -0.00202  -0.00192   1.91832
   A49        2.08064  -0.00520   0.00000  -0.00861  -0.00896   2.07168
   A50        2.26352  -0.00799   0.00000  -0.02377  -0.02377   2.23974
   A51        1.96740   0.00815   0.00000   0.03470   0.03423   2.00164
   A52        2.05197  -0.00010   0.00000  -0.00988  -0.01034   2.04162
    D1       -3.03528  -0.00032   0.00000  -0.02953  -0.02902  -3.06430
    D2        0.14414   0.00089   0.00000   0.00000  -0.00000   0.14414
    D3        0.13612  -0.00264   0.00000  -0.09157  -0.09130   0.04481
    D4       -2.96765  -0.00143   0.00000  -0.06204  -0.06228  -3.02993
    D5        3.07983   0.00048   0.00000   0.01064   0.01054   3.09037
    D6       -0.01592  -0.00064   0.00000  -0.01431  -0.01441  -0.03033
    D7       -0.10195  -0.00156   0.00000  -0.02160  -0.02190  -0.12385
    D8        3.08549  -0.00269   0.00000  -0.04655  -0.04686   3.03863
    D9       -2.66510  -0.00251   0.00000  -0.04539  -0.04598  -2.71108
   D10        0.44924   0.00057   0.00000   0.00288   0.00266   0.45191
   D11        0.51858  -0.00075   0.00000  -0.01100  -0.01089   0.50770
   D12       -2.65026   0.00233   0.00000   0.03727   0.03776  -2.61251
   D13       -0.16649  -0.00001   0.00000   0.02732   0.02753  -0.13896
   D14        2.65052   0.00391   0.00000   0.07214   0.07123   2.72175
   D15        2.93059   0.00103   0.00000   0.05128   0.05164   2.98223
   D16       -0.53559   0.00495   0.00000   0.09610   0.09534  -0.44024
   D17       -2.45498  -0.00080   0.00000  -0.02328  -0.02291  -2.47789
   D18        1.79525  -0.00245   0.00000  -0.03461  -0.03426   1.76099
   D19       -0.44819  -0.00023   0.00000  -0.01291  -0.01287  -0.46106
   D20        0.97640  -0.00027   0.00000  -0.04061  -0.04108   0.93533
   D21       -1.05655  -0.00191   0.00000  -0.05193  -0.05242  -1.10897
   D22        2.98320   0.00030   0.00000  -0.03024  -0.03103   2.95217
   D23        2.94784   0.00234   0.00000   0.02531   0.02524   2.97308
   D24       -1.22283   0.00146   0.00000   0.02118   0.02112  -1.20171
   D25        0.85420  -0.00051   0.00000   0.00265   0.00267   0.85686
   D26        0.92228   0.00312   0.00000   0.03731   0.03730   0.95959
   D27        3.03480   0.00223   0.00000   0.03318   0.03319   3.06799
   D28       -1.17136   0.00027   0.00000   0.01465   0.01473  -1.15663
   D29       -1.07997   0.00155   0.00000   0.00895   0.00890  -1.07106
   D30        1.03255   0.00066   0.00000   0.00482   0.00479   1.03733
   D31        3.10957  -0.00130   0.00000  -0.01372  -0.01367   3.09591
   D32       -2.90209  -0.00109   0.00000  -0.01255  -0.01234  -2.91443
   D33       -0.86465   0.00192   0.00000   0.02132   0.02113  -0.84352
   D34        1.30937   0.00013   0.00000   0.00000  -0.00001   1.30937
   D35       -0.90197  -0.00186   0.00000  -0.02273  -0.02263  -0.92459
   D36        1.13547   0.00114   0.00000   0.01115   0.01085   1.14632
   D37       -2.97369  -0.00065   0.00000  -0.01018  -0.01030  -2.98398
   D38        1.10152   0.00096   0.00000   0.00991   0.01000   1.11153
   D39        3.13896   0.00396   0.00000   0.04378   0.04348  -3.10075
   D40       -0.97019   0.00217   0.00000   0.02246   0.02233  -0.94786
   D41        0.95666   0.00064   0.00000   0.00000   0.00001   0.95667
   D42        3.08231   0.00060   0.00000   0.00805   0.00801   3.09031
   D43       -1.13750  -0.00113   0.00000  -0.01531  -0.01528  -1.15278
   D44       -1.15817   0.00172   0.00000   0.01537   0.01544  -1.14272
   D45        0.96748   0.00168   0.00000   0.02342   0.02344   0.99092
   D46        3.03086  -0.00005   0.00000   0.00006   0.00015   3.03101
   D47        3.06143   0.00059   0.00000   0.00331   0.00327   3.06470
   D48       -1.09611   0.00054   0.00000   0.01136   0.01127  -1.08484
   D49        0.96727  -0.00119   0.00000  -0.01200  -0.01201   0.95525
   D50       -0.92193  -0.00083   0.00000   0.00000   0.00001  -0.92192
   D51        1.18303  -0.00135   0.00000  -0.01011  -0.01012   1.17290
   D52       -3.04865  -0.00086   0.00000  -0.00702  -0.00706  -3.05571
   D53       -3.04921   0.00007   0.00000  -0.00007  -0.00004  -3.04925
   D54       -0.94426  -0.00046   0.00000  -0.01018  -0.01018  -0.95444
   D55        1.10725   0.00004   0.00000  -0.00709  -0.00711   1.10014
   D56        1.17611   0.00012   0.00000   0.00699   0.00703   1.18314
   D57       -3.00212  -0.00041   0.00000  -0.00312  -0.00311  -3.00523
   D58       -0.95061   0.00008   0.00000  -0.00003  -0.00004  -0.95065
   D59        0.98628  -0.00075   0.00000  -0.01284  -0.01289   0.97338
   D60        3.09592  -0.00070   0.00000  -0.01568  -0.01583   3.08008
   D61       -1.13250   0.00052   0.00000  -0.00325  -0.00323  -1.13573
   D62       -1.11629  -0.00125   0.00000  -0.01403  -0.01402  -1.13032
   D63        0.99335  -0.00119   0.00000  -0.01687  -0.01696   0.97638
   D64        3.04812   0.00002   0.00000  -0.00443  -0.00436   3.04376
   D65        3.11427  -0.00023   0.00000  -0.00262  -0.00262   3.11164
   D66       -1.05928  -0.00018   0.00000  -0.00546  -0.00556  -1.06484
   D67        0.99549   0.00104   0.00000   0.00697   0.00704   1.00253
   D68       -1.04969  -0.00004   0.00000   0.00133   0.00144  -1.04825
   D69       -3.12762   0.00169   0.00000   0.01035   0.00997  -3.11764
   D70        1.07774   0.00174   0.00000   0.01076   0.01063   1.08838
   D71        3.12397  -0.00148   0.00000  -0.00696  -0.00678   3.11719
   D72        1.04604   0.00025   0.00000   0.00205   0.00176   1.04780
   D73       -1.03178   0.00029   0.00000   0.00246   0.00242  -1.02936
   D74        1.06876  -0.00042   0.00000   0.00237   0.00259   1.07135
   D75       -1.00917   0.00131   0.00000   0.01139   0.01113  -0.99804
   D76       -3.08699   0.00136   0.00000   0.01179   0.01179  -3.07521
   D77       -1.17216   0.00376   0.00000   0.00000  -0.00001  -1.17217
   D78        3.06569   0.00002   0.00000  -0.01779  -0.01771   3.04798
   D79        1.01310  -0.00083   0.00000  -0.03731  -0.03760   0.97550
   D80        0.10028   0.00327   0.00000   0.02260   0.02226   0.12254
   D81       -3.01296  -0.00003   0.00000  -0.02818  -0.02790  -3.04086
         Item               Value     Threshold  Converged?
 Maximum Force            0.037392     0.000450     NO 
 RMS     Force            0.006993     0.000300     NO 
 Maximum Displacement     0.334835     0.001800     NO 
 RMS     Displacement     0.056849     0.001200     NO 
 Predicted change in Energy=-1.362577D-02
 GradGradGradGradGradGradGradGradGradGradGradGradGradGradGradGradGradGrad

                          Input orientation:                          
 ---------------------------------------------------------------------
 Center     Atomic      Atomic             Coordinates (Angstroms)
 Number     Number       Type             X           Y           Z
 ---------------------------------------------------------------------
      1          8           0       -3.543752   -1.386786   -0.197283
      2          7           0       -3.149263   -0.224207   -0.015709
      3          8           0       -3.865893    0.759512    0.218332
      4          6           0       -1.698714   -0.033659   -0.044548
      5          6           0       -1.324902    1.242731    0.255765
      6          7           0       -0.077038    1.735073    0.369414
      7          6           0        1.189598    0.999510    0.357427
      8          1           0        1.813827    1.517163    1.104593
      9          6           0        1.934638    1.047832   -0.972770
     10          6           0        3.336415    0.455872   -0.785905
     11          6           0        3.275007   -0.956411   -0.192282
     12          6           0        2.440678   -0.996454    1.088411
     13          6           0        1.031855   -0.445300    0.833244
     14          1           0        0.455843   -0.459825    1.771872
     15          7           0        0.404984   -1.323283   -0.147741
     16          6           0       -0.831647   -1.128122   -0.451734
     17          1           0       -2.115659    1.963856    0.448140
     18          1           0        0.040865    2.733271    0.226022
     19          1           0        1.377878    0.476538   -1.723798
     20          1           0        1.999157    2.086597   -1.324487
     21          1           0        3.859099    0.439010   -1.749003
     22          1           0        3.913803    1.108799   -0.116169
     23          1           0        2.822353   -1.636725   -0.922112
     24          1           0        4.287341   -1.324585    0.013636
     25          1           0        2.361802   -2.025857    1.455776
     26          1           0        2.924120   -0.401309    1.874733
     27          1           0       -1.300404   -1.859231   -1.114845
 ---------------------------------------------------------------------
                    Distance matrix (angstroms):
                    1          2          3          4          5
     1  O    0.000000
     2  N    1.241039   0.000000
     3  O    2.209775   1.239370   0.000000
     4  C    2.293129   1.463295   2.322690   0.000000
     5  C    3.470289   2.356671   2.586800   1.363487   0.000000
     6  N    4.699495   3.664105   3.915350   2.435080   1.346285
     7  C    5.329795   4.523542   5.063096   3.093764   2.528281
     8  H    6.231488   5.377705   5.798164   4.007932   3.263042
     9  C    6.044957   5.327298   5.928576   3.902880   3.488824
    10  C    7.146927   6.566562   7.278319   5.112904   4.840672
    11  C    6.832329   6.468273   7.355640   5.060751   5.118216
    12  C    6.133414   5.750034   6.604036   4.398311   4.459467
    13  C    4.783781   4.272160   5.081104   2.897581   2.955882
    14  H    4.553414   4.030850   4.751596   2.850108   2.892807
    15  N    3.949557   3.722643   4.765757   2.469682   3.120858
    16  C    2.736269   2.525575   3.635767   1.454461   2.522856
    17  H    3.699030   2.463963   2.136954   2.099203   1.087348
    18  H    5.477548   4.356837   4.377047   3.279519   2.021859
    19  H    5.479477   4.889133   5.599025   3.541977   3.436676
    20  H    6.637682   5.793009   6.208080   4.450616   3.776066
    21  H    7.780974   7.249918   7.978009   5.832484   5.615953
    22  H    7.864455   7.188456   7.794714   5.728062   5.253600
    23  H    6.412108   6.202981   7.195498   4.876473   5.184437
    24  H    7.834179   7.517631   8.417872   6.123947   6.176327
    25  H    6.165759   5.981893   6.933522   4.765251   5.071044
    26  H    6.862782   6.363263   7.084874   5.018904   4.835092
    27  H    2.469359   2.701793   3.900886   2.153347   3.391363
                    6          7          8          9         10
     6  N    0.000000
     7  C    1.464775   0.000000
     8  H    2.040427   1.102670   0.000000
     9  C    2.514081   1.525400   2.133144   0.000000
    10  C    3.823975   2.492303   2.649263   1.533073   0.000000
    11  C    4.335412   2.911484   3.152062   2.534312   1.533199
    12  C    3.783793   2.466457   2.590652   2.946803   2.534691
    13  C    2.489741   1.529301   2.129876   2.511204   2.957153
    14  H    2.658651   2.160719   2.489551   3.463080   3.959598
    15  N    3.139003   2.503235   3.409005   2.939847   3.487970
    16  C    3.072720   3.044174   4.051940   3.557891   4.471404
    17  H    2.052929   3.444259   4.008906   4.388963   5.789819
    18  H    1.015313   2.083935   2.322542   2.804316   4.131731
    19  H    2.842926   2.154170   3.045118   1.095628   2.171621
    20  H    2.702491   2.160088   2.501805   1.098590   2.176602
    21  H    4.654100   3.446366   3.672677   2.162579   1.095920
    22  H    4.068762   2.767224   2.463112   2.157446   1.099197
    23  H    4.630716   3.354525   3.882224   2.827975   2.159114
    24  H    5.341899   3.887881   3.922243   3.483757   2.171071
    25  H    4.612235   3.425387   3.602304   3.940541   3.483386
    26  H    3.979581   2.696864   2.346572   3.344750   2.825551
    27  H    4.076601   4.066952   5.101409   4.351632   5.193073
                   11         12         13         14         15
    11  C    0.000000
    12  C    1.529014   0.000000
    13  C    2.518863   1.534165   0.000000
    14  H    3.471626   2.166716   1.101373   0.000000
    15  N    2.893719   2.403942   1.458133   2.105483   0.000000
    16  C    4.118423   3.619045   2.364329   2.654933   1.288315
    17  H    6.164202   5.471160   3.982359   3.773476   4.184974
    18  H    4.924267   4.518149   3.384390   3.571795   4.089977
    19  H    2.828070   3.347801   2.740069   3.734519   2.582603
    20  H    3.488492   3.939825   3.464387   4.295756   3.943780
    21  H    2.170654   3.481866   3.929798   4.978615   4.195310
    22  H    2.163086   2.837816   3.409140   4.240609   4.269406
    23  H    1.095616   2.144254   2.776085   3.773991   2.557649
    24  H    1.096711   2.161706   3.470315   4.303438   3.885709
    25  H    2.166507   1.095832   2.157421   2.486977   2.625645
    26  H    2.168827   1.098279   2.160394   2.471112   3.359536
    27  H    4.754008   4.426558   3.351669   3.657304   2.032457
                   16         17         18         19         20
    16  C    0.000000
    17  H    3.466813   0.000000
    18  H    4.016340   2.300420   0.000000
    19  H    3.012488   4.374270   3.268371   0.000000
    20  H    4.371449   4.482074   2.580150   1.771363   0.000000
    21  H    5.112915   6.546016   4.872707   2.481633   2.520742
    22  H    5.256968   6.115880   4.213746   3.068410   2.466169
    23  H    3.719092   6.263045   5.305822   2.682366   3.834407
    24  H    5.143850   7.211175   5.877403   3.837668   4.320014
    25  H    3.826569   6.081184   5.435839   4.164106   4.977313
    26  H    4.477330   5.747047   4.566946   4.013839   4.156951
    27  H    1.092690   4.209936   4.968703   3.605529   5.147875
                   21         22         23         24         25
    21  H    0.000000
    22  H    1.765716   0.000000
    23  H    2.463182   3.062467   0.000000
    24  H    2.529931   2.465306   1.766138   0.000000
    25  H    4.311388   3.834812   2.453137   2.505843   0.000000
    26  H    3.835594   2.687674   3.059240   2.484852   1.769430
    27  H    5.683708   6.082312   4.133253   5.725575   4.477456
                   26         27
    26  H    0.000000
    27  H    5.376776   0.000000
 Symmetry turned off by external request.
 Stoichiometry    C9H13N3O2
 Framework group  C1[X(C9H13N3O2)]
 Deg. of freedom    75
 Full point group                 C1      NOp   1
 Rotational constants (GHZ):           1.7052226           0.4183086           0.3703999
 Standard basis: 6-31G(d) (6D, 7F)
   236 basis functions,   444 primitive gaussians,   236 cartesian basis functions
    52 alpha electrons       52 beta electrons
       nuclear repulsion energy       931.5726971868 Hartrees.
 NAtoms=   27 NActive=   27 NUniq=   27 SFac= 1.00D+00 NAtFMM=   60 NAOKFM=F Big=F
 Integral buffers will be    131072 words long.
 Raffenetti 1 integral format.
 Two-electron integral symmetry is turned off.
 One-electron integrals computed using PRISM.
 NBasis=   236 RedAO= T EigKep=  1.03D-03  NBF=   236
 NBsUse=   236 1.00D-06 EigRej= -1.00D+00 NBFU=   236
 Initial guess from the checkpoint file:  "/home/alexey/tmp/Gau-1349149.chk"
 B after Tr=     0.054049    0.007615    0.001449
         Rot=    0.999997   -0.001518    0.000197    0.001842 Ang=  -0.27 deg.
 ExpMin= 1.61D-01 ExpMax= 5.48D+03 ExpMxC= 8.25D+02 IAcc=3 IRadAn=         5 AccDes= 0.00D+00
 Harris functional with IExCor=  205 and IRadAn=       5 diagonalized for initial guess.
 HarFok:  IExCor=  205 AccDes= 0.00D+00 IRadAn=         5 IDoV= 1 UseB2=F ITyADJ=14
 ICtDFT=  3500011 ScaDFX=  1.000000  1.000000  1.000000  1.000000
 FoFCou: FMM=F IPFlag=           0 FMFlag=      100000 FMFlg1=           0
         NFxFlg=           0 DoJE=T BraDBF=F KetDBF=T FulRan=T
         wScrn=  0.000000 ICntrl=       500 IOpCl=  0 I1Cent=   200000004 NGrid=           0
         NMat0=    1 NMatS0=      1 NMatT0=    0 NMatD0=    1 NMtDS0=    0 NMtDT0=    0
 Symmetry not used in FoFCou.
 Keep R1 ints in memory in canonical form, NReq=397720213.
 Requested convergence on RMS density matrix=1.00D-08 within 128 cycles.
 Requested convergence on MAX density matrix=1.00D-06.
 Requested convergence on             energy=1.00D-06.
 No special actions if energy rises.
 SCF Done:  E(RHF) =  -661.296935146     A.U. after   15 cycles
            NFock= 15  Conv=0.50D-08     -V/T= 2.0024
 ExpMin= 1.61D-01 ExpMax= 5.48D+03 ExpMxC= 8.25D+02 IAcc=3 IRadAn=         5 AccDes= 0.00D+00
 HarFok:  IExCor=  205 AccDes= 0.00D+00 IRadAn=         5 IDoV=-2 UseB2=F ITyADJ=14
 ICtDFT= 12500011 ScaDFX=  1.000000  1.000000  1.000000  1.000000
 Range of M.O.s used for correlation:    15   236
 NBasis=   236 NAE=    52 NBE=    52 NFC=    14 NFV=     0
 NROrb=    222 NOA=    38 NOB=    38 NVA=   184 NVB=   184
 Fully direct method using O(ONN) memory.
 JobTyp=1 Pass  1:  I=  15 to  52 NPSUse=  4 ParTrn=T ParDer=T DoDerP=T.
 Spin components of T(2) and E(2):
     alpha-alpha T2 =       0.9125087024D-01 E2=     -0.2723347331D+00
     alpha-beta  T2 =       0.4912419336D+00 E2=     -0.1487994526D+01
     beta-beta   T2 =       0.9125087024D-01 E2=     -0.2723347331D+00
 ANorm=    0.1293732458D+01
 E2 =    -0.2032663992D+01 EUMP2 =    -0.66332959913804D+03
          IDoAtm=111111111111111111111111111
          Differentiating once with respect to electric field.
                with respect to dipole field.
          Differentiating once with respect to nuclear coordinates.
 Keep R1 ints in memory in canonical form, NReq=397723379.
          There are     1 degrees of freedom in the 1st order CPHF.  IDoFFX=0 NUNeed=     1.
 LinEq1:  Iter=  0 NonCon=     1 RMS=4.57D-03 Max=9.99D-02 NDo=     1
 AX will form     1 AO Fock derivatives at one time.
 LinEq1:  Iter=  1 NonCon=     1 RMS=1.54D-03 Max=2.67D-02 NDo=     1
 LinEq1:  Iter=  2 NonCon=     1 RMS=6.42D-04 Max=1.70D-02 NDo=     1
 LinEq1:  Iter=  3 NonCon=     1 RMS=2.81D-04 Max=8.29D-03 NDo=     1
 LinEq1:  Iter=  4 NonCon=     1 RMS=8.69D-05 Max=1.97D-03 NDo=     1
 LinEq1:  Iter=  5 NonCon=     1 RMS=3.63D-05 Max=1.81D-03 NDo=     1
 LinEq1:  Iter=  6 NonCon=     1 RMS=1.39D-05 Max=5.38D-04 NDo=     1
 LinEq1:  Iter=  7 NonCon=     1 RMS=5.28D-06 Max=9.72D-05 NDo=     1
 LinEq1:  Iter=  8 NonCon=     1 RMS=2.05D-06 Max=4.69D-05 NDo=     1
[...]
                   16         17         18         19         20
    16  C    0.000000
    17  H    3.452261   0.000000
    18  H    4.072117   2.223868   0.000000
    19  H    2.982430   4.303841   3.509939   0.000000
    20  H    4.366512   4.451183   2.885874   1.768508   0.000000
    21  H    5.090505   6.510148   5.088973   2.499212   2.521372
    22  H    5.243749   6.096660   4.317121   3.070238   2.461202
    23  H    3.694359   6.230333   5.419010   2.705284   3.843439
    24  H    5.133341   7.194405   5.936532   3.850336   4.317204
    25  H    3.824488   6.077521   5.366088   4.172136   4.985681
    26  H    4.497192   5.773731   4.487459   4.038897   4.185231
    27  H    1.091116   4.212019   5.065915   3.569935   5.136221
                   21         22         23         24         25
    21  H    0.000000
    22  H    1.758822   0.000000
    23  H    2.469011   3.062129   0.000000
    24  H    2.517083   2.459690   1.764515   0.000000
    25  H    4.312175   3.840630   2.443678   2.520430   0.000000
    26  H    3.848044   2.706450   3.060503   2.490725   1.767914
    27  H    5.639312   6.050181   4.080729   5.686517   4.451700
                   26         27
    26  H    0.000000
    27  H    5.376262   0.000000
 Symmetry turned off by external request.
 Stoichiometry    C9H13N3O2
 Framework group  C1[X(C9H13N3O2)]
 Deg. of freedom    75
 Full point group                 C1      NOp   1
 Rotational constants (GHZ):           1.6944310           0.4163123           0.3705333

 **********************************************************************

            Population analysis using the SCF Density.

 **********************************************************************

 Alpha  occ. eigenvalues --  -20.59160 -20.58975 -15.84792 -15.64167 -15.56207
 Alpha  occ. eigenvalues --  -11.34902 -11.29763 -11.29610 -11.28652 -11.27160
 Alpha  occ. eigenvalues --  -11.23747 -11.23233 -11.22725 -11.22121  -1.57138
 Alpha  occ. eigenvalues --   -1.36722  -1.31017  -1.23143  -1.14750  -1.09885
 Alpha  occ. eigenvalues --   -1.02819  -1.01395  -0.94277  -0.89933  -0.85618
 Alpha  occ. eigenvalues --   -0.82457  -0.78702  -0.77411  -0.75122  -0.72120
 Alpha  occ. eigenvalues --   -0.69773  -0.69475  -0.67867  -0.64893  -0.63843
 Alpha  occ. eigenvalues --   -0.62340  -0.60189  -0.57724  -0.57028  -0.55067
 Alpha  occ. eigenvalues --   -0.54611  -0.50787  -0.50104  -0.48554  -0.48156
 Alpha  occ. eigenvalues --   -0.47375  -0.46206  -0.46099  -0.43704  -0.41771
 Alpha  occ. eigenvalues --   -0.39923  -0.33822
 Alpha virt. eigenvalues --    0.07566   0.11659   0.17350   0.21836   0.24082
 Alpha virt. eigenvalues --    0.25639   0.27117   0.28704   0.29043   0.29706
 Alpha virt. eigenvalues --    0.30737   0.31722   0.32071   0.32743   0.33919
 Alpha virt. eigenvalues --    0.34337   0.35894   0.37396   0.38555   0.39863
 Alpha virt. eigenvalues --    0.41126   0.42485   0.44969   0.46145   0.46769
 Alpha virt. eigenvalues --    0.47151   0.48916   0.54052   0.57591   0.59365
 Alpha virt. eigenvalues --    0.63915   0.69639   0.70148   0.72826   0.74257
 Alpha virt. eigenvalues --    0.75108   0.75763   0.76608   0.78704   0.79442
 Alpha virt. eigenvalues --    0.81283   0.84569   0.85601   0.85874   0.88428
 Alpha virt. eigenvalues --    0.89378   0.91009   0.92197   0.92860   0.94429
 Alpha virt. eigenvalues --    0.95556   0.98056   0.99621   1.01691   1.02396
 Alpha virt. eigenvalues --    1.03127   1.05946   1.06887   1.07956   1.09108
 Alpha virt. eigenvalues --    1.10116   1.11671   1.11790   1.12329   1.13902
 Alpha virt. eigenvalues --    1.14743   1.14964   1.15729   1.16774   1.18707
 Alpha virt. eigenvalues --    1.19163   1.21303   1.22520   1.23892   1.24491
 Alpha virt. eigenvalues --    1.25279   1.26175   1.26780   1.27469   1.29757
 Alpha virt. eigenvalues --    1.30017   1.32970   1.35921   1.36707   1.40747
 Alpha virt. eigenvalues --    1.42216   1.46209   1.48574   1.51574   1.54410
 Alpha virt. eigenvalues --    1.56374   1.58959   1.59710   1.63367   1.65718
 Alpha virt. eigenvalues --    1.68006   1.68845   1.72979   1.75030   1.77043
 Alpha virt. eigenvalues --    1.81549   1.84390   1.87309   1.90881   1.93573
 Alpha virt. eigenvalues --    1.95656   1.97075   1.99452   2.01172   2.02787
 Alpha virt. eigenvalues --    2.05374   2.05806   2.08890   2.09722   2.12230
 Alpha virt. eigenvalues --    2.12933   2.15436   2.18755   2.19962   2.22156
 Alpha virt. eigenvalues --    2.22706   2.24540   2.25750   2.28171   2.29515
 Alpha virt. eigenvalues --    2.31731   2.33844   2.34660   2.36346   2.38552
 Alpha virt. eigenvalues --    2.40258   2.42084   2.43451   2.45180   2.47194
 Alpha virt. eigenvalues --    2.50712   2.51976   2.53297   2.55255   2.61537
 Alpha virt. eigenvalues --    2.62371   2.65301   2.67765   2.69999   2.70423
 Alpha virt. eigenvalues --    2.72239   2.72778   2.76664   2.78450   2.83826
 Alpha virt. eigenvalues --    2.88485   2.88909   2.92875   2.93840   2.96273
 Alpha virt. eigenvalues --    2.99224   3.01452   3.04391   3.05597   3.07657
 Alpha virt. eigenvalues --    3.09414   3.15155   3.20898   3.25366   3.27348
 Alpha virt. eigenvalues --    3.33379   3.37729   3.39135   3.52337   3.65539
 Alpha virt. eigenvalues --    4.13915   4.28422   4.34138   4.39486   4.46352
 Alpha virt. eigenvalues --    4.56455   4.62047   4.62340   4.73465   4.79940
 Alpha virt. eigenvalues --    4.99272   5.00905   5.04871   5.11242
          Condensed to atoms (all electrons):
               1          2          3          4          5          6
     1  O    8.314364   0.307242  -0.081685  -0.087904   0.004774  -0.000016
     2  N    0.307242   5.725247   0.301061   0.262376  -0.056102   0.001004
     3  O   -0.081685   0.301061   8.354875  -0.091446   0.001563   0.000864
     4  C   -0.087904   0.262376  -0.091446   5.237449   0.551239  -0.046166
     5  C    0.004774  -0.056102   0.001563   0.551239   4.723448   0.316222
     6  N   -0.000016   0.001004   0.000864  -0.046166   0.316222   7.197336
     7  C    0.000003  -0.000129   0.000001   0.004859  -0.030075   0.168821
     8  H   -0.000000   0.000002  -0.000000  -0.000288   0.003138  -0.050735
     9  C   -0.000000  -0.000003   0.000000   0.000918   0.000464  -0.060910
    10  C    0.000000   0.000000   0.000000  -0.000040  -0.000045   0.003732
    11  C   -0.000000  -0.000000  -0.000000  -0.000024   0.000022  -0.000189
    12  C   -0.000000   0.000002  -0.000000  -0.000145  -0.000154   0.003916
    13  C   -0.000019  -0.000034  -0.000003  -0.011117  -0.000713  -0.048794
    14  H   -0.000004  -0.000103   0.000000   0.002772   0.006001  -0.007075
    15  N    0.000344   0.002203  -0.000012  -0.062349  -0.006040   0.001328
    16  C    0.002761  -0.023167   0.002282   0.324705  -0.050112  -0.002228
    17  H    0.000248  -0.007681   0.018065  -0.023945   0.375697  -0.034666
    18  H    0.000001  -0.000052   0.000014   0.001475  -0.031950   0.339157
    19  H    0.000001  -0.000004   0.000000  -0.001218   0.001230  -0.000356
    20  H    0.000000  -0.000000   0.000000  -0.000074   0.000135  -0.000420
    21  H   -0.000000   0.000000   0.000000   0.000001   0.000001  -0.000076
    22  H   -0.000000   0.000000  -0.000000  -0.000000  -0.000003  -0.000116
    23  H    0.000000  -0.000000   0.000000   0.000040  -0.000001  -0.000030
    24  H    0.000000   0.000000   0.000000   0.000000  -0.000000   0.000006
    25  H    0.000000  -0.000000   0.000000   0.000024  -0.000001  -0.000092
    26  H    0.000000  -0.000000   0.000000   0.000007  -0.000003  -0.000061
    27  H    0.006163  -0.000560   0.000022  -0.065869   0.002493   0.000012
               7          8          9         10         11         12
     1  O    0.000003  -0.000000  -0.000000   0.000000  -0.000000  -0.000000
     2  N   -0.000129   0.000002  -0.000003   0.000000  -0.000000   0.000002
     3  O    0.000001  -0.000000   0.000000   0.000000  -0.000000  -0.000000
     4  C    0.004859  -0.000288   0.000918  -0.000040  -0.000024  -0.000145
     5  C   -0.030075   0.003138   0.000464  -0.000045   0.000022  -0.000154
     6  N    0.168821  -0.050735  -0.060910   0.003732  -0.000189   0.003916
     7  C    5.016262   0.418540   0.350757  -0.054828  -0.009037  -0.061295
     8  H    0.418540   0.538242  -0.055044   0.000791  -0.000326  -0.002095
     9  C    0.350757  -0.055044   5.157824   0.324733  -0.050369  -0.005366
    10  C   -0.054828   0.000791   0.324733   5.119411   0.337056  -0.060868
    11  C   -0.009037  -0.000326  -0.050369   0.337056   5.119720   0.335832
    12  C   -0.061295  -0.002095  -0.005366  -0.060868   0.335832   5.118841
    13  C    0.339932  -0.038253  -0.060008  -0.000273  -0.050579   0.372160
    14  H   -0.046403  -0.000772   0.004418  -0.000406   0.004191  -0.036414
    15  N   -0.058184   0.003979  -0.015110   0.001547  -0.012961  -0.082365
    16  C   -0.001954   0.000029  -0.001395  -0.000025   0.000025   0.002568
    17  H    0.001634  -0.000041  -0.000074   0.000001   0.000000   0.000000
    18  H   -0.021376  -0.004467   0.001312  -0.000083   0.000004  -0.000115
    19  H   -0.036785   0.004359   0.390282  -0.032018  -0.002205   0.000700
    20  H   -0.042433  -0.002129   0.399488  -0.035295   0.003930  -0.000418
    21  H    0.004605  -0.000077  -0.036338   0.402454  -0.034883   0.004339
    22  H   -0.004823   0.003556  -0.046943   0.397755  -0.045443  -0.000986
    23  H    0.000585   0.000034  -0.001954  -0.039019   0.399143  -0.037795
    24  H   -0.000131  -0.000101   0.004385  -0.038432   0.402371  -0.038704
    25  H    0.005146  -0.000027  -0.000421   0.004180  -0.033418   0.398158
    26  H   -0.003860   0.001684   0.000961  -0.002198  -0.041457   0.396820
    27  H   -0.000416   0.000009  -0.000062   0.000007   0.000012  -0.000033
              13         14         15         16         17         18
     1  O   -0.000019  -0.000004   0.000344   0.002761   0.000248   0.000001
     2  N   -0.000034  -0.000103   0.002203  -0.023167  -0.007681  -0.000052
     3  O   -0.000003   0.000000  -0.000012   0.002282   0.018065   0.000014
     4  C   -0.011117   0.002772  -0.062349   0.324705  -0.023945   0.001475
     5  C   -0.000713   0.006001  -0.006040  -0.050112   0.375697  -0.031950
     6  N   -0.048794  -0.007075   0.001328  -0.002228  -0.034666   0.339157
     7  C    0.339932  -0.046403  -0.058184  -0.001954   0.001634  -0.021376
     8  H   -0.038253  -0.000772   0.003979   0.000029  -0.000041  -0.004467
     9  C   -0.060008   0.004418  -0.015110  -0.001395  -0.000074   0.001312
    10  C   -0.000273  -0.000406   0.001547  -0.000025   0.000001  -0.000083
    11  C   -0.050579   0.004191  -0.012961   0.000025   0.000000   0.000004
    12  C    0.372160  -0.036414  -0.082365   0.002568   0.000000  -0.000115
    13  C    5.039804   0.403111   0.243159  -0.070531  -0.000009   0.003059
    14  H    0.403111   0.526520  -0.037413  -0.004307   0.000092  -0.000106
    15  N    0.243159  -0.037413   6.964178   0.588210  -0.000068  -0.000133
    16  C   -0.070531  -0.004307   0.588210   4.701969   0.002080  -0.000214
    17  H   -0.000009   0.000092  -0.000068   0.002080   0.375888  -0.002907
    18  H    0.003059  -0.000106  -0.000133  -0.000214  -0.002907   0.310587
    19  H   -0.007563   0.000101   0.007688   0.003024   0.000016  -0.000148
    20  H    0.004349  -0.000065   0.000133  -0.000038   0.000002   0.000811
    21  H   -0.000429   0.000010  -0.000042   0.000004  -0.000000   0.000001
    22  H    0.000020  -0.000056   0.000020  -0.000002   0.000000   0.000001
    23  H   -0.007534   0.000001   0.008539   0.000109   0.000000   0.000000
    24  H    0.004696  -0.000056   0.000138   0.000007   0.000000  -0.000000
    25  H   -0.035511  -0.002789   0.000373  -0.000024  -0.000000   0.000002
    26  H   -0.047457  -0.001048   0.004918  -0.000060   0.000000  -0.000000
    27  H    0.005161  -0.000186  -0.041408   0.404496  -0.000079   0.000001
              19         20         21         22         23         24
     1  O    0.000001   0.000000  -0.000000  -0.000000   0.000000   0.000000
     2  N   -0.000004  -0.000000   0.000000   0.000000  -0.000000   0.000000
     3  O    0.000000   0.000000   0.000000  -0.000000   0.000000   0.000000
     4  C   -0.001218  -0.000074   0.000001  -0.000000   0.000040   0.000000
     5  C    0.001230   0.000135   0.000001  -0.000003  -0.000001  -0.000000
     6  N   -0.000356  -0.000420  -0.000076  -0.000116  -0.000030   0.000006
     7  C   -0.036785  -0.042433   0.004605  -0.004823   0.000585  -0.000131
     8  H    0.004359  -0.002129  -0.000077   0.003556   0.000034  -0.000101
     9  C    0.390282   0.399488  -0.036338  -0.046943  -0.001954   0.004385
    10  C   -0.032018  -0.035295   0.402454   0.397755  -0.039019  -0.038432
    11  C   -0.002205   0.003930  -0.034883  -0.045443   0.399143   0.402371
    12  C    0.000700  -0.000418   0.004339  -0.000986  -0.037795  -0.038704
    13  C   -0.007563   0.004349  -0.000429   0.000020  -0.007534   0.004696
    14  H    0.000101  -0.000065   0.000010  -0.000056   0.000001  -0.000056
    15  N    0.007688   0.000133  -0.000042   0.000020   0.008539   0.000138
    16  C    0.003024  -0.000038   0.000004  -0.000002   0.000109   0.000007
    17  H    0.000016   0.000002  -0.000000   0.000000   0.000000   0.000000
    18  H   -0.000148   0.000811   0.000001   0.000001   0.000000  -0.000000
    19  H    0.504559  -0.024746  -0.002792   0.003956   0.001507  -0.000066
    20  H   -0.024746   0.541109  -0.002679  -0.002999  -0.000045  -0.000083
    21  H   -0.002792  -0.002679   0.523795  -0.027385  -0.002902  -0.002237
    22  H    0.003956  -0.002999  -0.027385   0.571192   0.004141  -0.003662
    23  H    0.001507  -0.000045  -0.002902   0.004141   0.499227  -0.025481
    24  H   -0.000066  -0.000083  -0.002237  -0.003662  -0.025481   0.538021
    25  H   -0.000028   0.000012  -0.000086  -0.000080  -0.002329  -0.002276
    26  H    0.000019  -0.000030  -0.000081   0.002373   0.004065  -0.003052
    27  H    0.000087   0.000000  -0.000000   0.000000  -0.000037  -0.000000
              25         26         27
     1  O    0.000000   0.000000   0.006163
     2  N   -0.000000  -0.000000  -0.000560
     3  O    0.000000   0.000000   0.000022
     4  C    0.000024   0.000007  -0.065869
     5  C   -0.000001  -0.000003   0.002493
     6  N   -0.000092  -0.000061   0.000012
     7  C    0.005146  -0.003860  -0.000416
     8  H   -0.000027   0.001684   0.000009
     9  C   -0.000421   0.000961  -0.000062
    10  C    0.004180  -0.002198   0.000007
    11  C   -0.033418  -0.041457   0.000012
    12  C    0.398158   0.396820  -0.000033
    13  C   -0.035511  -0.047457   0.005161
    14  H   -0.002789  -0.001048  -0.000186
    15  N    0.000373   0.004918  -0.041408
    16  C   -0.000024  -0.000060   0.404496
    17  H   -0.000000   0.000000  -0.000079
    18  H    0.000002  -0.000000   0.000001
    19  H   -0.000028   0.000019   0.000087
    20  H    0.000012  -0.000030   0.000000
    21  H   -0.000086  -0.000081  -0.000000
    22  H   -0.000080   0.002373   0.000000
    23  H   -0.002329   0.004065  -0.000037
    24  H   -0.002276  -0.003052  -0.000000
    25  H    0.506413  -0.024073  -0.000013
    26  H   -0.024073   0.561920   0.000001
    27  H   -0.000013   0.000001   0.446324
 Mulliken charges:
               1
     1  O   -0.466274
     2  N    0.488700
     3  O   -0.505601
     4  C    0.004719
     5  C    0.188773
     6  N   -0.780466
     7  C    0.060585
     8  H    0.179989
     9  C   -0.301547
    10  C   -0.328136
    11  C   -0.321415
    12  C   -0.306583
    13  C   -0.036625
    14  H    0.189986
    15  N   -0.510669
    16  C    0.121788
    17  H    0.295747
    18  H    0.405127
    19  H    0.190400
    20  H    0.161483
    21  H    0.174798
    22  H    0.149483
    23  H    0.199735
    24  H    0.164657
    25  H    0.186859
    26  H    0.150612
    27  H    0.243874
 Sum of Mulliken charges =  -0.00000
 Mulliken charges with hydrogens summed into heavy atoms:
               1
     1  O   -0.466274
     2  N    0.488700
     3  O   -0.505601
     4  C    0.004719
     5  C    0.484520
     6  N   -0.375338
     7  C    0.240575
     9  C    0.050336
    10  C   -0.003855
    11  C    0.042976
    12  C    0.030888
    13  C    0.153361
    15  N   -0.510669
    16  C    0.365661
 Electronic spatial extent (au):  <R**2>=           3016.8164
 Charge=              0.0000 electrons
 Dipole moment (field-independent basis, Debye):
    X=              5.4805    Y=              4.7004    Z=              1.2535  Tot=              7.3281
 Quadrupole moment (field-independent basis, Debye-Ang):
   XX=           -106.4666   YY=            -79.3203   ZZ=            -81.5059
   XY=             -1.6114   XZ=             -0.0522   YZ=              1.7693
 Traceless Quadrupole moment (field-independent basis, Debye-Ang):
   XX=            -17.3690   YY=              9.7773   ZZ=              7.5917
   XY=             -1.6114   XZ=             -0.0522   YZ=              1.7693
 Octapole moment (field-independent basis, Debye-Ang**2):
  XXX=             94.8419  YYY=             34.7938  ZZZ=             -1.5122  XYY=             -4.0619
  XXY=              8.9669  XXZ=              4.6132  XZZ=             -9.4567  YZZ=             -0.5650
  YYZ=              7.7617  XYZ=              0.4138
 Hexadecapole moment (field-independent basis, Debye-Ang**3):
 XXXX=          -3409.1819 YYYY=           -595.8212 ZZZZ=           -304.2330 XXXY=            -16.3129
 XXXZ=            -12.0316 YYYX=             -3.7241 YYYZ=             24.6017 ZZZX=              2.2201
 ZZZY=              7.1838 XXYY=           -631.6892 XXZZ=           -527.3456 YYZZ=           -156.3376
 XXYZ=             -5.2485 YYXZ=              2.0105 ZZXY=              5.8857
 N-N= 9.307342557792D+02 E-N=-3.408155978385D+03  KE= 6.596289123975D+02
 Unable to Open any file for archive entry.
 1\1\GINC-LOTUS\FOpt\RMP2-FC\6-31G(d)\C9H13N3O2\ALEXEY\01-Jul-2023\0\\#
 MP2/6-31G* SCF=Tight Opt=(ModRedun, MaxCycle=20 ) NoSymm\\MolName:\\0,
 1\O,-3.555388002,-1.3548008857,-0.3719043465\N,-3.1409496835,-0.206934
 2761,-0.1126101946\O,-3.8902770326,0.7689628048,0.0796094962\C,-1.7014
 867641,-0.0484339783,-0.0201007607\C,-1.3044765866,1.2353530454,0.2720
 561603\N,-0.0636647923,1.7325538862,0.3839317368\C,1.2055623913,1.0202
 722708,0.3568745459\H,1.8486163049,1.5558474309,1.0718182456\C,1.91145
 74868,1.0331251997,-0.9973554191\C,3.3115427589,0.4314324963,-0.828982
 0962\C,3.2672496447,-0.9644074501,-0.2012551347\C,2.4690629897,-0.9777
 33513,1.1044032238\C,1.0593576832,-0.4256430768,0.8658867543\H,0.48031
 77819,-0.4048604485,1.8027951567\N,0.4169690532,-1.3144906935,-0.09539
 33038\C,-0.8287327932,-1.1409551041,-0.3994451568\H,-2.0968425794,1.96
 35324525,0.4204082428\H,-0.0138301022,2.7190136798,0.6098660908\H,1.32
 12191124,0.4534584101,-1.714907957\H,1.9749392743,2.061203446,-1.37516
 55609\H,3.8182766527,0.3942116628,-1.8000917502\H,3.9072893433,1.10044
 17124,-0.1917477942\H,2.794339608,-1.6634444803,-0.8980838695\H,4.2873
 926508,-1.3237109367,-0.0212221159\H,2.3850253836,-2.0001262455,1.4874
 285608\H,2.9759805015,-0.3793874797,1.8740786242\H,-1.2769602852,-1.90
 04699294,-1.0419113781\\Version=ES64L-G16RevC.02\HF=-661.2996163\MP2=-
 663.3338996\RMSD=4.965e-09\RMSF=2.317e-03\Dipole=1.9994677,1.6605613,0
 .4627319\PG=C01 [X(C9H13N3O2)]\\@
 The archive entry for this job was punched.


 WHEN YOU REACH FOR THE STARS, YOU MAY NOT QUITE GET ONE,
 BUT YOU WON'T COME UP WITH A HANDFUL OF MUD, EITHER.

                                         -- LEO BURNETT (AD AGENCY HEAD)
 Job cpu time:       0 days  1 hours 14 minutes 21.8 seconds.
 Elapsed time:       0 days  0 hours 22 minutes 27.9 seconds.
 File lengths (MBytes):  RWF=     36 Int=      0 D2E=      0 Chk=      7 Scr=      1
 Normal termination of Gaussian 16 at Sat Jul  1 16:18:54 2023.
