 Entering Gaussian System, Link 0=g16
 Initial command:
 /home/alexey/programs//g16/l1.exe "/home/alexey/tmp/Gau-1351903.inp" -scrdir="/home/alexey/tmp/"
 Entering Link 1 = /home/alexey/programs//g16/l1.exe PID=   1351905.
  
 Copyright (c) 1988-2021, Gaussian, Inc.  All Rights Reserved.
  
 This is part of the Gaussian(R) 16 program.  It is based on
 the Gaussian(R) 09 system (copyright 2009, Gaussian, Inc.),
 the Gaussian(R) 03 system (copyright 2003, Gaussian, Inc.),
 the Gaussian(R) 98 system (copyright 1998, Gaussian, Inc.),
 the Gaussian(R) 94 system (copyright 1995, Gaussian, Inc.),
 the Gaussian 92(TM) system (copyright 1992, Gaussian, Inc.),
 the Gaussian 90(TM) system (copyright 1990, Gaussian, Inc.),
 the Gaussian 88(TM) system (copyright 1988, Gaussian, Inc.),
 the Gaussian 86(TM) system (copyright 1986, Carnegie Mellon
 University), and the Gaussian 82(TM) system (copyright 1983,
 Carnegie Mellon University). Gaussian is a federally registered
 trademark of Gaussian, Inc.
  
 This software contains proprietary and confidential information,
 including trade secrets, belonging to Gaussian, Inc.
  
 This software is provided under written license and may be
 used, copied, transmitted, or stored only in accord with that
 written license.
  
 The following legend is applicable only to US Government
 contracts under FAR:
  
                    RESTRICTED RIGHTS LEGEND
  
 Use, reproduction and disclosure by the US Government is
 subject to restrictions as set forth in subparagraphs (a)
 and (c) of the Commercial Computer Software - Restricted
 Rights clause in FAR 52.227-19.
  
 Gaussian, Inc.
 340 Quinnipiac St., Bldg. 40, Wallingford CT 06492
  
  
 ---------------------------------------------------------------
 Warning -- This program may not be used in any manner that
 competes with the business of Gaussian, Inc. or will provide
 assistance to any competitor of Gaussian, Inc.  The licensee
 of this program is prohibited from giving any competitor of
 Gaussian, Inc. access to this program.  By using this program,
 the user acknowledges that Gaussian, Inc. is engaged in the
 business of creating and licensing software in the field of
 computational chemistry and represents and warrants to the
 licensee that it is not a competitor of Gaussian, Inc. and that
 it will not use this program in any manner prohibited above.
 ---------------------------------------------------------------
  

 Cite this work as:
 Gaussian 16, Revision C.02,
 M. J. Frisch, G. W. Trucks, H. B. Schlegel, G. E. Scuseria, 
 M. A. Robb, J. R. Cheeseman, G. Scalmani, V. Barone, 
 G. A. Petersson, H. Nakatsuji, X. Li, M. Caricato, A. V. Marenich, 
 J. Bloino, B. G. Janesko, R. Gomperts, B. Mennucci, H. P. Hratchian, 
 J. V. Ortiz, A. F. Izmaylov, J. L. Sonnenberg, D. Williams-Young, 
 F. Ding, F. Lipparini, F. Egidi, J. Goings, B. Peng, A. Petrone, 
 T. Henderson, D. Ranasinghe, V. G. Zakrzewski, J. Gao, N. Rega, 
 G. Zheng, W. Liang, M. Hada, M. Ehara, K. Toyota, R. Fukuda, 
 J. Hasegawa, M. Ishida, T. Nakajima, Y. Honda, O. Kitao, H. Nakai, 
 T. Vreven, K. Throssell, J. A. Montgomery, Jr., J. E. Peralta, 
 F. Ogliaro, M. J. Bearpark, J. J. Heyd, E. N. Brothers, K. N. Kudin, 
 V. N. Staroverov, T. A. Keith, R. Kobayashi, J. Normand, 
 K. Raghavachari, A. P. Rendell, J. C. Burant, S. S. Iyengar, 
 J. Tomasi, M. Cossi, J. M. Millam, M. Klene, C. Adamo, R. Cammi, 
 J. W. Ochterski, R. L. Martin, K. Morokuma, O. Farkas, 
 J. B. Foresman, and D. J. Fox, Gaussian, Inc., Wallingford CT, 2019.
 
 ******************************************
 Gaussian 16:  ES64L-G16RevC.02  7-Dec-2021
                 1-Jul-2023 
 ******************************************
 %mem=8GB
 %NPROCS=4
 Will use up to    4 processors via shared memory.
 %NoSave
 ---------------------------------------------------------
 #MP2/6-31G* SCF=Tight Opt=(ModRedun, MaxCycle=20 ) NoSymm
 ---------------------------------------------------------
 1/6=20,18=120,19=15,38=1/1,3;
 2/9=110,12=2,15=1,17=6,18=5,40=1/2;
 3/5=1,6=6,7=1,11=9,25=1,30=1,71=1/1,2,3;
 4//1;
 5/5=2,32=2,38=5/2;
 8/6=4,10=2/1;
 9/15=2,16=-3/6;
 10/5=1,31=1/2;
 6/7=2,8=2,9=2,10=2/1;
 7/12=2,30=1/1,2,3,16;
 1/6=20,18=20,19=15/3(2);
 2/9=110,15=1/2;
 99//99;
 2/9=110,15=1/2;
 3/5=1,6=6,7=1,11=9,25=1,30=1,71=1/1,2,3;
 4/5=5,16=3,69=1/1;
 5/5=2,32=2,38=5/2;
 8/6=4,10=2/1;
 9/15=2,16=-3/6;
 10/5=1,31=1/2;
 7/12=2,30=1/1,2,3,16;
 1/6=20,18=20,19=15/3(-8);
 2/9=110,15=1/2;
 6/7=2,8=2,9=2,10=2/1;
 99/9=10/99;
 --------
 MolName:
 --------
 Symbolic Z-matrix:
 Charge =  0 Multiplicity = 1
 8                    0    -3.67741  -1.3964   -0.11566 
 7                    0    -3.29229  -0.24115   0.04343 
 8                    0    -4.04698   0.71903   0.21121 
 6                    0    -1.78593  -0.04145  -0.05395 
 6                    0    -1.37935   1.26445   0.27475 
 7                    0    -0.09471   1.74273   0.3449 
 6                    0     1.1931    0.98806   0.33807 
 1                    0     1.83807   1.49342   1.10343 
 6                    0     1.98329   1.04405  -0.9931 
 6                    0     3.39448   0.46562  -0.77566 
 6                    0     3.3279   -0.95075  -0.1827 
 6                    0     2.45389  -0.98924   1.08984 
 6                    0     1.01988  -0.45701   0.81908 
 1                    0     0.45453  -0.50048   1.77959 
 7                    0     0.38633  -1.31926  -0.17746 
 6                    0    -0.84971  -1.10808  -0.49452 
 1                    0    -2.15293   2.00163   0.54685 
 1                    0     0.12047   2.72246   0.14487 
 1                    0     1.45299   0.46545  -1.77904 
 1                    0     2.0708    2.09487  -1.34209 
 1                    0     3.94877   0.44475  -1.73943 
 1                    0     3.95395   1.12237  -0.07258 
 1                    0     2.89869  -1.64186  -0.94293 
 1                    0     4.35302  -1.30982   0.05461 
 1                    0     2.39171  -2.0364    1.45901 
 1                    0     2.93126  -0.3781    1.88436 
 1                    0    -1.33283  -1.83489  -1.16488 
 
 The following ModRedundant input section has been read:
 A       2       4      16 F                                                   
 D       1       2       4      16 F                                           
 D       7      13      15      16 F                                           
 D       7       9      10      11 F                                           
 D       9      10      11      12 F                                           
 D       6       7      13      15 F                                           
 

 GradGradGradGradGradGradGradGradGradGradGradGradGradGradGradGradGradGrad
 Berny optimization.
 Initialization pass.
                           ----------------------------
                           !    Initial Parameters    !
                           ! (Angstroms and Degrees)  !
 --------------------------                            --------------------------
 ! Name  Definition              Value          Derivative Info.                !
 --------------------------------------------------------------------------------
 ! R1    R(1,2)                  1.2281         estimate D2E/DX2                !
 ! R2    R(2,3)                  1.2327         estimate D2E/DX2                !
 ! R3    R(2,4)                  1.5227         estimate D2E/DX2                !
 ! R4    R(4,5)                  1.4067         estimate D2E/DX2                !
 ! R5    R(4,16)                 1.486          estimate D2E/DX2                !
 ! R6    R(5,6)                  1.3726         estimate D2E/DX2                !
 ! R7    R(5,17)                 1.1027         estimate D2E/DX2                !
 ! R8    R(6,7)                  1.4927         estimate D2E/DX2                !
 ! R9    R(6,18)                 1.0228         estimate D2E/DX2                !
 ! R10   R(7,8)                  1.1212         estimate D2E/DX2                !
 ! R11   R(7,9)                  1.549          estimate D2E/DX2                !
 ! R12   R(7,13)                 1.5328         estimate D2E/DX2                !
 ! R13   R(9,10)                 1.5406         estimate D2E/DX2                !
 ! R14   R(9,19)                 1.1107         estimate D2E/DX2                !
 ! R15   R(9,20)                 1.1107         estimate D2E/DX2                !
 ! R16   R(10,11)                1.5369         estimate D2E/DX2                !
 ! R17   R(10,21)                1.112          estimate D2E/DX2                !
 ! R18   R(10,22)                1.1129         estimate D2E/DX2                !
 ! R19   R(11,12)                1.5443         estimate D2E/DX2                !
 ! R20   R(11,23)                1.1135         estimate D2E/DX2                !
 ! R21   R(11,24)                1.1118         estimate D2E/DX2                !
 ! R22   R(12,13)                1.5534         estimate D2E/DX2                !
 ! R23   R(12,25)                1.1121         estimate D2E/DX2                !
 ! R24   R(12,26)                1.1102         estimate D2E/DX2                !
 ! R25   R(13,14)                1.1154         estimate D2E/DX2                !
 ! R26   R(13,15)                1.4622         estimate D2E/DX2                !
 ! R27   R(15,16)                1.2934         estimate D2E/DX2                !
 ! R28   R(16,27)                1.1005         estimate D2E/DX2                !
 ! A1    A(1,2,3)              123.9413         estimate D2E/DX2                !
 ! A2    A(1,2,4)              115.171          estimate D2E/DX2                !
 ! A3    A(3,2,4)              120.8106         estimate D2E/DX2                !
 ! A4    A(2,4,5)              113.1261         estimate D2E/DX2                !
 ! A5    A(2,4,16)             123.2362         Frozen                          !
 ! A6    A(5,4,16)             123.6094         estimate D2E/DX2                !
 ! A7    A(4,5,6)              127.2974         estimate D2E/DX2                !
 ! A8    A(4,5,17)             118.394          estimate D2E/DX2                !
 ! A9    A(6,5,17)             114.2698         estimate D2E/DX2                !
 ! A10   A(5,6,7)              129.1298         estimate D2E/DX2                !
 ! A11   A(5,6,18)             121.3774         estimate D2E/DX2                !
 ! A12   A(7,6,18)             107.5707         estimate D2E/DX2                !
 ! A13   A(6,7,8)              105.3842         estimate D2E/DX2                !
 ! A14   A(6,7,9)              115.1991         estimate D2E/DX2                !
 ! A15   A(6,7,13)             112.1916         estimate D2E/DX2                !
 ! A16   A(8,7,9)              106.0736         estimate D2E/DX2                !
 ! A17   A(8,7,13)             106.0045         estimate D2E/DX2                !
 ! A18   A(9,7,13)             111.1854         estimate D2E/DX2                !
 ! A19   A(7,9,10)             109.4154         estimate D2E/DX2                !
 ! A20   A(7,9,19)             110.2242         estimate D2E/DX2                !
 ! A21   A(7,9,20)             110.145          estimate D2E/DX2                !
 ! A22   A(10,9,19)            109.9761         estimate D2E/DX2                !
 ! A23   A(10,9,20)            109.111          estimate D2E/DX2                !
 ! A24   A(19,9,20)            107.9461         estimate D2E/DX2                !
 ! A25   A(9,10,11)            111.1486         estimate D2E/DX2                !
 ! A26   A(9,10,21)            109.9576         estimate D2E/DX2                !
 ! A27   A(9,10,22)            109.1523         estimate D2E/DX2                !
 ! A28   A(11,10,21)           109.7965         estimate D2E/DX2                !
 ! A29   A(11,10,22)           108.7757         estimate D2E/DX2                !
 ! A30   A(21,10,22)           107.9401         estimate D2E/DX2                !
 ! A31   A(10,11,12)           111.433          estimate D2E/DX2                !
 ! A32   A(10,11,23)           108.9826         estimate D2E/DX2                !
 ! A33   A(10,11,24)           109.879          estimate D2E/DX2                !
 ! A34   A(12,11,23)           109.2074         estimate D2E/DX2                !
 ! A35   A(12,11,24)           109.7494         estimate D2E/DX2                !
 ! A36   A(23,11,24)           107.4992         estimate D2E/DX2                !
 ! A37   A(11,12,13)           111.7347         estimate D2E/DX2                !
 ! A38   A(11,12,25)           109.1882         estimate D2E/DX2                !
 ! A39   A(11,12,26)           109.429          estimate D2E/DX2                !
 ! A40   A(13,12,25)           109.2006         estimate D2E/DX2                !
 ! A41   A(13,12,26)           109.4549         estimate D2E/DX2                !
 ! A42   A(25,12,26)           107.7464         estimate D2E/DX2                !
 ! A43   A(7,13,12)            105.8658         estimate D2E/DX2                !
 ! A44   A(7,13,14)            111.3614         estimate D2E/DX2                !
 ! A45   A(7,13,15)            113.0186         estimate D2E/DX2                !
 ! A46   A(12,13,14)           107.7258         estimate D2E/DX2                !
 ! A47   A(12,13,15)           108.4662         estimate D2E/DX2                !
 ! A48   A(14,13,15)           110.1395         estimate D2E/DX2                !
 ! A49   A(13,15,16)           119.0033         estimate D2E/DX2                !
 ! A50   A(4,16,15)            130.2843         estimate D2E/DX2                !
 ! A51   A(4,16,27)            112.2141         estimate D2E/DX2                !
 ! A52   A(15,16,27)           117.4535         estimate D2E/DX2                !
 ! D1    D(1,2,4,5)           -173.6155         estimate D2E/DX2                !
 ! D2    D(1,2,4,16)             8.2576         Frozen                          !
 ! D3    D(3,2,4,5)              9.4531         estimate D2E/DX2                !
 ! D4    D(3,2,4,16)          -168.6738         estimate D2E/DX2                !
 ! D5    D(2,4,5,6)            176.6884         estimate D2E/DX2                !
 ! D6    D(2,4,5,17)            -0.905          estimate D2E/DX2                !
 ! D7    D(16,4,5,6)            -5.1927         estimate D2E/DX2                !
 ! D8    D(16,4,5,17)          177.2139         estimate D2E/DX2                !
 ! D9    D(2,4,16,15)         -150.2457         estimate D2E/DX2                !
 ! D10   D(2,4,16,27)           27.1219         estimate D2E/DX2                !
 ! D11   D(5,4,16,15)           31.8227         estimate D2E/DX2                !
 ! D12   D(5,4,16,27)         -150.8097         estimate D2E/DX2                !
 ! D13   D(4,5,6,7)            -12.0573         estimate D2E/DX2                !
 ! D14   D(4,5,6,18)           150.1137         estimate D2E/DX2                !
 ! D15   D(17,5,6,7)           165.6204         estimate D2E/DX2                !
 ! D16   D(17,5,6,18)          -32.2085         estimate D2E/DX2                !
 ! D17   D(5,6,7,8)           -138.8181         estimate D2E/DX2                !
 ! D18   D(5,6,7,9)            104.6412         estimate D2E/DX2                !
 ! D19   D(5,6,7,13)           -23.9157         estimate D2E/DX2                !
 ! D20   D(18,6,7,8)            57.0958         estimate D2E/DX2                !
 ! D21   D(18,6,7,9)           -59.4449         estimate D2E/DX2                !
 ! D22   D(18,6,7,13)          171.9982         estimate D2E/DX2                !
 ! D23   D(6,7,9,10)           169.0949         estimate D2E/DX2                !
 ! D24   D(6,7,9,19)           -69.8493         estimate D2E/DX2                !
 ! D25   D(6,7,9,20)            49.1573         estimate D2E/DX2                !
 ! D26   D(8,7,9,10)            52.9463         estimate D2E/DX2                !
 ! D27   D(8,7,9,19)           174.0022         estimate D2E/DX2                !
 ! D28   D(8,7,9,20)           -66.9913         estimate D2E/DX2                !
 ! D29   D(13,7,9,10)          -61.8506         estimate D2E/DX2                !
 ! D30   D(13,7,9,19)           59.2053         estimate D2E/DX2                !
 ! D31   D(13,7,9,20)          178.2119         estimate D2E/DX2                !
 ! D32   D(6,7,13,12)         -166.3893         estimate D2E/DX2                !
 ! D33   D(6,7,13,14)          -49.5796         estimate D2E/DX2                !
 ! D34   D(6,7,13,15)           75.0215         Frozen                          !
 ! D35   D(8,7,13,12)          -51.8656         estimate D2E/DX2                !
 ! D36   D(8,7,13,14)           64.9441         estimate D2E/DX2                !
 ! D37   D(8,7,13,15)         -170.4548         estimate D2E/DX2                !
 ! D38   D(9,7,13,12)           62.9743         estimate D2E/DX2                !
 ! D39   D(9,7,13,14)          179.784          estimate D2E/DX2                !
 ! D40   D(9,7,13,15)          -55.615          estimate D2E/DX2                !
 ! D41   D(7,9,10,11)           54.8122         Frozen                          !
 ! D42   D(7,9,10,21)          176.6028         estimate D2E/DX2                !
 ! D43   D(7,9,10,22)          -65.1667         estimate D2E/DX2                !
 ! D44   D(19,9,10,11)         -66.394          estimate D2E/DX2                !
 ! D45   D(19,9,10,21)          55.3966         estimate D2E/DX2                !
 ! D46   D(19,9,10,22)         173.6272         estimate D2E/DX2                !
 ! D47   D(20,9,10,11)         175.382          estimate D2E/DX2                !
 ! D48   D(20,9,10,21)         -62.8274         estimate D2E/DX2                !
 ! D49   D(20,9,10,22)          55.4031         estimate D2E/DX2                !
 ! D50   D(9,10,11,12)         -52.8222         Frozen                          !
 ! D51   D(9,10,11,23)          67.7612         estimate D2E/DX2                !
 ! D52   D(9,10,11,24)        -174.6894         estimate D2E/DX2                !
 ! D53   D(21,10,11,12)       -174.7065         estimate D2E/DX2                !
 ! D54   D(21,10,11,23)        -54.1231         estimate D2E/DX2                !
 ! D55   D(21,10,11,24)         63.4263         estimate D2E/DX2                !
 ! D56   D(22,10,11,12)         67.38           estimate D2E/DX2                !
 ! D57   D(22,10,11,23)       -172.0366         estimate D2E/DX2                !
 ! D58   D(22,10,11,24)        -54.4872         estimate D2E/DX2                !
 ! D59   D(10,11,12,13)         56.414          estimate D2E/DX2                !
 ! D60   D(10,11,12,25)        177.3182         estimate D2E/DX2                !
 ! D61   D(10,11,12,26)        -64.9734         estimate D2E/DX2                !
 ! D62   D(23,11,12,13)        -64.0374         estimate D2E/DX2                !
 ! D63   D(23,11,12,25)         56.8668         estimate D2E/DX2                !
 ! D64   D(23,11,12,26)        174.5753         estimate D2E/DX2                !
 ! D65   D(24,11,12,13)        178.3562         estimate D2E/DX2                !
 ! D66   D(24,11,12,25)        -60.7396         estimate D2E/DX2                !
 ! D67   D(24,11,12,26)         56.9689         estimate D2E/DX2                !
 ! D68   D(11,12,13,7)         -59.9615         estimate D2E/DX2                !
 ! D69   D(11,12,13,14)       -179.1965         estimate D2E/DX2                !
 ! D70   D(11,12,13,15)         61.6054         estimate D2E/DX2                !
 ! D71   D(25,12,13,7)         179.1415         estimate D2E/DX2                !
 ! D72   D(25,12,13,14)         59.9064         estimate D2E/DX2                !
 ! D73   D(25,12,13,15)        -59.2916         estimate D2E/DX2                !
 ! D74   D(26,12,13,7)          61.4108         estimate D2E/DX2                !
 ! D75   D(26,12,13,14)        -57.8242         estimate D2E/DX2                !
 ! D76   D(26,12,13,15)       -177.0222         estimate D2E/DX2                !
 ! D77   D(7,13,15,16)         -67.16           Frozen                          !
 ! D78   D(12,13,15,16)        175.7727         estimate D2E/DX2                !
 ! D79   D(14,13,15,16)         58.1039         estimate D2E/DX2                !
 ! D80   D(13,15,16,4)           3.6115         estimate D2E/DX2                !
 ! D81   D(13,15,16,27)       -173.6421         estimate D2E/DX2                !
 --------------------------------------------------------------------------------
 Trust Radius=3.00D-01 FncErr=1.00D-07 GrdErr=1.00D-07 EigMax=2.50D+02 EigMin=1.00D-04
 Number of steps in this run=     20 maximum allowed number of steps=    162.
 GradGradGradGradGradGradGradGradGradGradGradGradGradGradGradGradGradGrad

                          Input orientation:                          
 ---------------------------------------------------------------------
 Center     Atomic      Atomic             Coordinates (Angstroms)
 Number     Number       Type             X           Y           Z
 ---------------------------------------------------------------------
      1          8           0       -3.677410   -1.396400   -0.115660
      2          7           0       -3.292290   -0.241150    0.043430
      3          8           0       -4.046980    0.719030    0.211210
      4          6           0       -1.785930   -0.041450   -0.053950
      5          6           0       -1.379350    1.264450    0.274750
      6          7           0       -0.094710    1.742730    0.344900
      7          6           0        1.193100    0.988060    0.338070
      8          1           0        1.838070    1.493420    1.103430
      9          6           0        1.983290    1.044050   -0.993100
     10          6           0        3.394480    0.465620   -0.775660
     11          6           0        3.327900   -0.950750   -0.182700
     12          6           0        2.453890   -0.989240    1.089840
     13          6           0        1.019880   -0.457010    0.819080
     14          1           0        0.454530   -0.500480    1.779590
     15          7           0        0.386330   -1.319260   -0.177460
     16          6           0       -0.849710   -1.108080   -0.494520
     17          1           0       -2.152930    2.001630    0.546850
     18          1           0        0.120470    2.722460    0.144870
     19          1           0        1.452990    0.465450   -1.779040
     20          1           0        2.070800    2.094870   -1.342090
     21          1           0        3.948770    0.444750   -1.739430
     22          1           0        3.953950    1.122370   -0.072580
     23          1           0        2.898690   -1.641860   -0.942930
     24          1           0        4.353020   -1.309820    0.054610
     25          1           0        2.391710   -2.036400    1.459010
     26          1           0        2.931260   -0.378100    1.884360
     27          1           0       -1.332830   -1.834890   -1.164880
 ---------------------------------------------------------------------
                    Distance matrix (angstroms):
                    1          2          3          4          5
     1  O    0.000000
     2  N    1.228100   0.000000
     3  O    2.172204   1.232742   0.000000
     4  C    2.327530   1.522657   2.400206   0.000000
     5  C    3.537460   2.445338   2.723558   1.406672   0.000000
     6  N    4.785603   3.775074   4.084883   2.490503   1.372579
     7  C    5.441818   4.660096   5.248515   3.176191   2.588030
     8  H    6.344900   5.518417   6.002462   4.102284   3.330305
     9  C    6.226494   5.527918   6.157934   4.033278   3.600468
    10  C    7.342639   6.773723   7.510889   5.254963   4.952872
    11  C    7.019791   6.661950   7.571802   5.195639   5.222506
    12  C    6.261937   5.888395   6.778753   4.492509   4.520754
    13  C    4.880648   4.386689   5.236950   2.967733   3.002670
    14  H    4.633311   4.137652   4.920428   2.931252   2.956795
    15  N    4.064942   3.839708   4.894888   2.523245   3.161910
    16  C    2.867499   2.647103   3.749523   1.486038   2.549744
    17  H    3.782799   2.565470   2.311956   2.160978   1.102678
    18  H    5.608634   4.521085   4.624475   3.363494   2.095739
    19  H    5.705640   5.132091   5.854491   3.704522   3.588677
    20  H    6.836301   6.011605   6.460101   4.593205   3.899654
    21  H    8.011559   7.488792   8.234819   5.997001   5.754797
    22  H    8.036399   7.374323   8.016115   5.856710   5.346486
    23  H    6.632474   6.423638   7.426182   5.029638   5.313286
    24  H    8.032702   7.719647   8.642960   6.269550   6.287718
    25  H    6.302650   6.126552   7.113798   4.870477   5.149658
    26  H    6.979365   6.491560   7.259405   5.110994   4.885711
    27  H    2.605800   2.799911   3.972750   2.157752   3.417690
                    6          7          8          9         10
     6  N    0.000000
     7  C    1.492658   0.000000
     8  H    2.091211   1.121227   0.000000
     9  C    2.568362   1.549048   2.149060   0.000000
    10  C    3.880865   2.521787   2.647596   1.540558   0.000000
    11  C    4.387192   2.930453   3.138103   2.538494   1.536925
    12  C    3.809719   2.462613   2.557933   2.948622   2.545863
    13  C    2.511178   1.532842   2.134120   2.542703   3.005523
    14  H    2.718822   2.199822   2.519328   3.522853   4.013223
    15  N    3.143253   2.498074   3.414586   2.966612   3.548606
    16  C    3.066230   3.043038   4.067605   3.592511   4.535275
    17  H    2.084246   3.502403   4.061544   4.516273   5.906108
    18  H    1.022832   2.048415   2.319381   2.753568   4.081647
    19  H    2.921975   2.196092   3.084419   1.110719   2.185442
    20  H    2.767557   2.195068   2.529125   1.110709   2.174265
    21  H    4.730636   3.493553   3.692779   2.186157   1.111992
    22  H    4.117133   2.794453   2.449005   2.176463   1.112946
    23  H    4.698340   3.386219   3.891335   2.838060   2.171465
    24  H    5.402280   3.917358   3.909367   3.500574   2.181819
    25  H    4.658900   3.441007   3.590624   3.958386   3.501343
    26  H    4.003043   2.697889   2.303802   3.346780   2.828806
    27  H    4.075750   4.075319   5.126157   4.394821   5.271745
                   11         12         13         14         15
    11  C    0.000000
    12  C    1.544258   0.000000
    13  C    2.564040   1.553372   0.000000
    14  H    3.508501   2.170733   1.115388   0.000000
    15  N    2.964568   2.447400   1.462174   2.122521   0.000000
    16  C    4.192184   3.665800   2.375880   2.691059   1.293414
    17  H    6.268037   5.519324   4.023151   3.818252   4.242732
    18  H    4.887472   4.484923   3.372318   3.629221   4.063260
    19  H    2.840636   3.368738   2.790832   3.820182   2.624502
    20  H    3.492891   3.946236   3.505307   4.369560   3.981217
    21  H    2.180896   3.506531   3.992185   5.048433   4.271119
    22  H    2.168385   2.839066   3.449386   4.279032   4.324404
    23  H    1.113465   2.180806   2.835221   3.832595   2.646123
    24  H    1.111809   2.186588   3.524418   4.339218   3.973484
    25  H    2.179518   1.112069   2.187670   2.492888   2.685865
    26  H    2.181281   1.110242   2.189617   2.481964   3.407866
    27  H    4.844459   4.487553   3.371927   3.693942   2.048508
                   16         17         18         19         20
    16  C    0.000000
    17  H    3.528899   0.000000
    18  H    4.002887   2.418580   0.000000
    19  H    3.070573   4.557661   3.251328   0.000000
    20  H    4.416632   4.627816   2.531542   1.796559   0.000000
    21  H    5.194852   6.699380   4.836779   2.496180   2.531313
    22  H    5.313011   6.200869   4.159704   3.098120   2.470560
    23  H    3.812676   6.404165   5.286691   2.688844   3.848101
    24  H    5.235517   7.316788   5.846530   3.863163   4.330267
    25  H    3.896776   6.147477   5.434358   4.198264   5.001653
    26  H    4.526331   5.770705   4.532090   4.039475   4.155232
    27  H    1.100473   4.280359   4.959533   3.664635   5.201838
                   21         22         23         24         25
    21  H    0.000000
    22  H    1.799329   0.000000
    23  H    2.468000   3.084161   0.000000
    24  H    2.541754   2.467992   1.794551   0.000000
    25  H    4.337114   3.842420   2.486364   2.519324   0.000000
    26  H    3.852825   2.669629   3.097050   2.497496   1.794992
    27  H    5.781191   6.155367   4.241731   5.838814   4.560439
                   26         27
    26  H    0.000000
    27  H    5.440824   0.000000
 Symmetry turned off by external request.
 Stoichiometry    C9H13N3O2
 Framework group  C1[X(C9H13N3O2)]
 Deg. of freedom    75
 Full point group                 C1      NOp   1
 Rotational constants (GHZ):           1.7079631           0.3953391           0.3524104
 Standard basis: 6-31G(d) (6D, 7F)
   236 basis functions,   444 primitive gaussians,   236 cartesian basis functions
    52 alpha electrons       52 beta electrons
       nuclear repulsion energy       916.8150830932 Hartrees.
 NAtoms=   27 NActive=   27 NUniq=   27 SFac= 1.00D+00 NAtFMM=   60 NAOKFM=F Big=F
 Integral buffers will be    131072 words long.
 Raffenetti 1 integral format.
 Two-electron integral symmetry is turned off.
 One-electron integrals computed using PRISM.
 NBasis=   236 RedAO= T EigKep=  1.38D-03  NBF=   236
 NBsUse=   236 1.00D-06 EigRej= -1.00D+00 NBFU=   236
 ExpMin= 1.61D-01 ExpMax= 5.48D+03 ExpMxC= 8.25D+02 IAcc=3 IRadAn=         5 AccDes= 0.00D+00
 Harris functional with IExCor=  205 and IRadAn=       5 diagonalized for initial guess.
 HarFok:  IExCor=  205 AccDes= 0.00D+00 IRadAn=         5 IDoV= 1 UseB2=F ITyADJ=14
 ICtDFT=  3500011 ScaDFX=  1.000000  1.000000  1.000000  1.000000
 FoFCou: FMM=F IPFlag=           0 FMFlag=      100000 FMFlg1=           0
         NFxFlg=           0 DoJE=T BraDBF=F KetDBF=T FulRan=T
         wScrn=  0.000000 ICntrl=       500 IOpCl=  0 I1Cent=   200000004 NGrid=           0
         NMat0=    1 NMatS0=      1 NMatT0=    0 NMatD0=    1 NMtDS0=    0 NMtDT0=    0
 Symmetry not used in FoFCou.
 Keep R1 ints in memory in canonical form, NReq=397720213.
 Requested convergence on RMS density matrix=1.00D-08 within 128 cycles.
 Requested convergence on MAX density matrix=1.00D-06.
 Requested convergence on             energy=1.00D-06.
 No special actions if energy rises.
 SCF Done:  E(RHF) =  -661.275772577     A.U. after   16 cycles
            NFock= 16  Conv=0.72D-08     -V/T= 2.0037
 ExpMin= 1.61D-01 ExpMax= 5.48D+03 ExpMxC= 8.25D+02 IAcc=3 IRadAn=         5 AccDes= 0.00D+00
 HarFok:  IExCor=  205 AccDes= 0.00D+00 IRadAn=         5 IDoV=-2 UseB2=F ITyADJ=14
 ICtDFT= 12500011 ScaDFX=  1.000000  1.000000  1.000000  1.000000
 Range of M.O.s used for correlation:    15   236
 NBasis=   236 NAE=    52 NBE=    52 NFC=    14 NFV=     0
 NROrb=    222 NOA=    38 NOB=    38 NVA=   184 NVB=   184
 Fully direct method using O(ONN) memory.
 JobTyp=1 Pass  1:  I=  15 to  52 NPSUse=  4 ParTrn=T ParDer=T DoDerP=T.
 Spin components of T(2) and E(2):
     alpha-alpha T2 =       0.9205224329D-01 E2=     -0.2718895732D+00
     alpha-beta  T2 =       0.5000628172D+00 E2=     -0.1494226730D+01
     beta-beta   T2 =       0.9205224329D-01 E2=     -0.2718895732D+00
 ANorm=    0.1297754716D+01
 E2 =    -0.2038005876D+01 EUMP2 =    -0.66331377845334D+03
          IDoAtm=111111111111111111111111111
          Differentiating once with respect to electric field.
                with respect to dipole field.
          Differentiating once with respect to nuclear coordinates.
 Keep R1 ints in memory in canonical form, NReq=397723379.
          There are     1 degrees of freedom in the 1st order CPHF.  IDoFFX=0 NUNeed=     1.
 LinEq1:  Iter=  0 NonCon=     1 RMS=4.62D-03 Max=1.06D-01 NDo=     1
 AX will form     1 AO Fock derivatives at one time.
 LinEq1:  Iter=  1 NonCon=     1 RMS=1.57D-03 Max=3.45D-02 NDo=     1
 LinEq1:  Iter=  2 NonCon=     1 RMS=6.42D-04 Max=1.72D-02 NDo=     1
 LinEq1:  Iter=  3 NonCon=     1 RMS=2.96D-04 Max=9.25D-03 NDo=     1
 LinEq1:  Iter=  4 NonCon=     1 RMS=9.10D-05 Max=2.05D-03 NDo=     1
 LinEq1:  Iter=  5 NonCon=     1 RMS=3.82D-05 Max=1.94D-03 NDo=     1
 LinEq1:  Iter=  6 NonCon=     1 RMS=1.60D-05 Max=5.76D-04 NDo=     1
 LinEq1:  Iter=  7 NonCon=     1 RMS=6.29D-06 Max=1.13D-04 NDo=     1
 LinEq1:  Iter=  8 NonCon=     1 RMS=2.52D-06 Max=7.20D-05 NDo=     1
 LinEq1:  Iter=  9 NonCon=     1 RMS=9.94D-07 Max=3.07D-05 NDo=     1
 LinEq1:  Iter= 10 NonCon=     1 RMS=4.75D-07 Max=1.44D-05 NDo=     1
 LinEq1:  Iter= 11 NonCon=     1 RMS=1.64D-07 Max=5.87D-06 NDo=     1
 LinEq1:  Iter= 12 NonCon=     1 RMS=5.77D-08 Max=9.25D-07 NDo=     1
 LinEq1:  Iter= 13 NonCon=     1 RMS=1.88D-08 Max=4.33D-07 NDo=     1
 LinEq1:  Iter= 14 NonCon=     1 RMS=6.26D-09 Max=1.79D-07 NDo=     1
 LinEq1:  Iter= 15 NonCon=     1 RMS=2.34D-09 Max=5.66D-08 NDo=     1
 LinEq1:  Iter= 16 NonCon=     1 RMS=8.62D-10 Max=1.23D-08 NDo=     1
 LinEq1:  Iter= 17 NonCon=     1 RMS=2.83D-10 Max=4.78D-09 NDo=     1
 LinEq1:  Iter= 18 NonCon=     1 RMS=9.76D-11 Max=1.23D-09 NDo=     1
 LinEq1:  Iter= 19 NonCon=     0 RMS=3.25D-11 Max=5.31D-10 NDo=     1
 Linear equations converged to 1.000D-10 1.000D-09 after    19 iterations.
 End of Minotr F.D. properties file   721 does not exist.
 End of Minotr F.D. properties file   722 does not exist.
 End of Minotr F.D. properties file   788 does not exist.

 **********************************************************************

            Population analysis using the SCF Density.

 **********************************************************************

 Alpha  occ. eigenvalues --  -20.59836 -20.59567 -15.85493 -15.63123 -15.57263
 Alpha  occ. eigenvalues --  -11.35598 -11.30863 -11.30172 -11.30009 -11.27720
 Alpha  occ. eigenvalues --  -11.24620 -11.23890 -11.23455 -11.22898  -1.58630
 Alpha  occ. eigenvalues --   -1.38147  -1.28520  -1.22921  -1.13315  -1.08493
 Alpha  occ. eigenvalues --   -1.01828  -1.00736  -0.93143  -0.89482  -0.84988
 Alpha  occ. eigenvalues --   -0.81541  -0.78207  -0.77012  -0.74100  -0.71218
 Alpha  occ. eigenvalues --   -0.70363  -0.69919  -0.67498  -0.64342  -0.63393
 Alpha  occ. eigenvalues --   -0.61576  -0.60260  -0.57420  -0.56506  -0.54975
 Alpha  occ. eigenvalues --   -0.53441  -0.50745  -0.49328  -0.48275  -0.47831
 Alpha  occ. eigenvalues --   -0.47606  -0.46153  -0.45783  -0.44122  -0.42197
 Alpha  occ. eigenvalues --   -0.40379  -0.33832
 Alpha virt. eigenvalues --    0.07505   0.11310   0.18462   0.21382   0.23146
 Alpha virt. eigenvalues --    0.24136   0.26354   0.27738   0.28555   0.28925
 Alpha virt. eigenvalues --    0.30015   0.30902   0.31896   0.32210   0.33217
 Alpha virt. eigenvalues --    0.33564   0.34020   0.35284   0.37500   0.38365
 Alpha virt. eigenvalues --    0.40552   0.41866   0.44506   0.45314   0.45845
 Alpha virt. eigenvalues --    0.46255   0.49587   0.53161   0.57932   0.58906
 Alpha virt. eigenvalues --    0.63312   0.69252   0.69828   0.72191   0.74138
 Alpha virt. eigenvalues --    0.75351   0.75672   0.75881   0.77779   0.79290
 Alpha virt. eigenvalues --    0.80143   0.83486   0.85078   0.85417   0.88015
 Alpha virt. eigenvalues --    0.88819   0.89945   0.91031   0.92090   0.93665
 Alpha virt. eigenvalues --    0.95264   0.97220   0.98630   1.00334   1.01713
 Alpha virt. eigenvalues --    1.02795   1.05365   1.06183   1.07009   1.09008
 Alpha virt. eigenvalues --    1.09215   1.10413   1.11310   1.11720   1.13218
 Alpha virt. eigenvalues --    1.13904   1.14293   1.15001   1.16221   1.17360
 Alpha virt. eigenvalues --    1.17880   1.19776   1.21025   1.22031   1.23041
 Alpha virt. eigenvalues --    1.23601   1.24509   1.25614   1.27262   1.27572
 Alpha virt. eigenvalues --    1.29446   1.30960   1.32869   1.35097   1.39720
 Alpha virt. eigenvalues --    1.43142   1.45523   1.46657   1.48506   1.52332
 Alpha virt. eigenvalues --    1.53914   1.54883   1.60911   1.61565   1.66440
 Alpha virt. eigenvalues --    1.69186   1.70887   1.72306   1.72997   1.77295
 Alpha virt. eigenvalues --    1.78158   1.78884   1.84280   1.89400   1.92238
 Alpha virt. eigenvalues --    1.92832   1.96227   1.97515   1.98741   2.01641
 Alpha virt. eigenvalues --    2.03120   2.04020   2.06098   2.09337   2.11780
 Alpha virt. eigenvalues --    2.12801   2.13683   2.17695   2.18739   2.19416
 Alpha virt. eigenvalues --    2.21115   2.22356   2.24436   2.24817   2.26546
 Alpha virt. eigenvalues --    2.28885   2.32311   2.33562   2.35125   2.36110
 Alpha virt. eigenvalues --    2.38451   2.40332   2.40959   2.43644   2.45979
 Alpha virt. eigenvalues --    2.48298   2.50534   2.51031   2.56385   2.57449
 Alpha virt. eigenvalues --    2.60891   2.62812   2.66242   2.67989   2.68837
 Alpha virt. eigenvalues --    2.70009   2.70862   2.75796   2.75924   2.80340
 Alpha virt. eigenvalues --    2.83986   2.86461   2.90106   2.92592   2.95955
 Alpha virt. eigenvalues --    2.97288   2.98555   3.02378   3.03026   3.05444
 Alpha virt. eigenvalues --    3.06699   3.12483   3.18780   3.22642   3.26799
 Alpha virt. eigenvalues --    3.30530   3.32421   3.36411   3.46578   3.58343
 Alpha virt. eigenvalues --    4.10549   4.23456   4.31289   4.35811   4.43622
 Alpha virt. eigenvalues --    4.52888   4.59920   4.60348   4.70916   4.77794
 Alpha virt. eigenvalues --    4.95799   4.99247   5.02490   5.10231
          Condensed to atoms (all electrons):
               1          2          3          4          5          6
     1  O    8.299111   0.309623  -0.086972  -0.085143   0.004153  -0.000017
     2  N    0.309623   5.685590   0.310866   0.265779  -0.052876   0.000942
     3  O   -0.086972   0.310866   8.328075  -0.083023   0.006789   0.000509
     4  C   -0.085143   0.265779  -0.083023   5.268882   0.544764  -0.046855
     5  C    0.004153  -0.052876   0.006789   0.544764   4.699446   0.305022
     6  N   -0.000017   0.000942   0.000509  -0.046855   0.305022   7.199087
     7  C    0.000003  -0.000081   0.000001   0.004152  -0.029103   0.197994
     8  H   -0.000000   0.000002  -0.000000  -0.000213   0.002183  -0.050917
     9  C   -0.000000  -0.000002   0.000000   0.000539   0.001595  -0.055000
    10  C   -0.000000   0.000000  -0.000000  -0.000020  -0.000058   0.003307
    11  C   -0.000000  -0.000000  -0.000000  -0.000011   0.000010  -0.000153
    12  C   -0.000000   0.000001  -0.000000  -0.000105  -0.000071   0.003645
    13  C   -0.000014  -0.000028  -0.000002  -0.010648   0.000350  -0.044978
    14  H   -0.000005  -0.000049  -0.000000   0.003440   0.004949  -0.005676
    15  N    0.000124   0.001392  -0.000008  -0.058763  -0.002939   0.001379
    16  C    0.003684  -0.018249   0.001308   0.314730  -0.042443  -0.001732
    17  H    0.000162  -0.004170   0.012271  -0.029973   0.381151  -0.035784
    18  H    0.000000  -0.000038   0.000011   0.000834  -0.024392   0.328552
    19  H    0.000000   0.000000   0.000000  -0.000684   0.000557   0.000773
    20  H    0.000000  -0.000000   0.000000  -0.000019   0.000016  -0.001882
    21  H   -0.000000  -0.000000   0.000000   0.000000   0.000001  -0.000057
    22  H   -0.000000   0.000000  -0.000000  -0.000000  -0.000002  -0.000098
    23  H    0.000000  -0.000000   0.000000   0.000024  -0.000001  -0.000024
    24  H    0.000000   0.000000   0.000000   0.000000  -0.000000   0.000004
    25  H    0.000000  -0.000000   0.000000   0.000018  -0.000001  -0.000073
    26  H    0.000000  -0.000000   0.000000   0.000007  -0.000002  -0.000068
    27  H    0.004817  -0.000269  -0.000004  -0.070655   0.002814   0.000062
               7          8          9         10         11         12
     1  O    0.000003  -0.000000  -0.000000  -0.000000  -0.000000  -0.000000
     2  N   -0.000081   0.000002  -0.000002   0.000000  -0.000000   0.000001
     3  O    0.000001  -0.000000   0.000000  -0.000000  -0.000000  -0.000000
     4  C    0.004152  -0.000213   0.000539  -0.000020  -0.000011  -0.000105
     5  C   -0.029103   0.002183   0.001595  -0.000058   0.000010  -0.000071
     6  N    0.197994  -0.050917  -0.055000   0.003307  -0.000153   0.003645
     7  C    4.995332   0.417867   0.340670  -0.049452  -0.007651  -0.064289
     8  H    0.417867   0.548983  -0.060961   0.001604  -0.000354  -0.002715
     9  C    0.340670  -0.060961   5.181639   0.317591  -0.053035  -0.006400
    10  C   -0.049452   0.001604   0.317591   5.126815   0.332742  -0.059942
    11  C   -0.007651  -0.000354  -0.053035   0.332742   5.123580   0.330585
    12  C   -0.064289  -0.002715  -0.006400  -0.059942   0.330585   5.137435
    13  C    0.335747  -0.041624  -0.049223  -0.001890  -0.047793   0.367894
    14  H   -0.039810  -0.000959   0.003863  -0.000395   0.003933  -0.040650
    15  N   -0.057507   0.004144  -0.013282   0.001474  -0.007542  -0.074283
    16  C   -0.003653   0.000105  -0.001244  -0.000002  -0.000018   0.002747
    17  H    0.001542  -0.000010  -0.000070   0.000001   0.000000   0.000001
    18  H   -0.028622  -0.002466   0.000832  -0.000123   0.000012  -0.000137
    19  H   -0.034845   0.004112   0.385736  -0.032428  -0.002305   0.000661
    20  H   -0.041504  -0.001913   0.397313  -0.037415   0.004152  -0.000360
    21  H    0.004042  -0.000082  -0.035819   0.400173  -0.035836   0.004201
    22  H   -0.004151   0.003500  -0.045647   0.396051  -0.045666  -0.001226
    23  H    0.000418   0.000034  -0.002006  -0.040097   0.396730  -0.036700
    24  H   -0.000144  -0.000097   0.004392  -0.038452   0.400373  -0.037807
    25  H    0.004978  -0.000003  -0.000367   0.004095  -0.034058   0.395489
    26  H   -0.004463   0.001652   0.001019  -0.002359  -0.042273   0.394912
    27  H   -0.000430   0.000010  -0.000068   0.000006   0.000004  -0.000015
              13         14         15         16         17         18
     1  O   -0.000014  -0.000005   0.000124   0.003684   0.000162   0.000000
     2  N   -0.000028  -0.000049   0.001392  -0.018249  -0.004170  -0.000038
     3  O   -0.000002  -0.000000  -0.000008   0.001308   0.012271   0.000011
     4  C   -0.010648   0.003440  -0.058763   0.314730  -0.029973   0.000834
     5  C    0.000350   0.004949  -0.002939  -0.042443   0.381151  -0.024392
     6  N   -0.044978  -0.005676   0.001379  -0.001732  -0.035784   0.328552
     7  C    0.335747  -0.039810  -0.057507  -0.003653   0.001542  -0.028622
     8  H   -0.041624  -0.000959   0.004144   0.000105  -0.000010  -0.002466
     9  C   -0.049223   0.003863  -0.013282  -0.001244  -0.000070   0.000832
    10  C   -0.001890  -0.000395   0.001474  -0.000002   0.000001  -0.000123
    11  C   -0.047793   0.003933  -0.007542  -0.000018   0.000000   0.000012
    12  C    0.367894  -0.040650  -0.074283   0.002747   0.000001  -0.000137
    13  C    5.030122   0.401583   0.235659  -0.069689  -0.000048   0.003778
    14  H    0.401583   0.519633  -0.036197  -0.004739   0.000073   0.000016
    15  N    0.235659  -0.036197   6.929082   0.590757  -0.000050  -0.000120
    16  C   -0.069689  -0.004739   0.590757   4.688992   0.001734  -0.000268
    17  H   -0.000048   0.000073  -0.000050   0.001734   0.388970  -0.001919
    18  H    0.003778   0.000016  -0.000120  -0.000268  -0.001919   0.324149
    19  H   -0.006366   0.000061   0.006888   0.002638   0.000011  -0.000128
    20  H    0.003866  -0.000047   0.000084  -0.000033  -0.000001   0.002969
    21  H   -0.000367   0.000009  -0.000028   0.000002  -0.000000  -0.000000
    22  H    0.000309  -0.000045   0.000001  -0.000001   0.000000   0.000002
    23  H   -0.005801   0.000005   0.006583   0.000053   0.000000   0.000000
    24  H    0.004122  -0.000057   0.000046   0.000006   0.000000  -0.000000
    25  H   -0.034676  -0.002630   0.000601  -0.000074  -0.000000   0.000002
    26  H   -0.044668  -0.000922   0.004186  -0.000063   0.000000  -0.000001
    27  H    0.005170  -0.000201  -0.041938   0.404188  -0.000059   0.000003
              19         20         21         22         23         24
     1  O    0.000000   0.000000  -0.000000  -0.000000   0.000000   0.000000
     2  N    0.000000  -0.000000  -0.000000   0.000000  -0.000000   0.000000
     3  O    0.000000   0.000000   0.000000  -0.000000   0.000000   0.000000
     4  C   -0.000684  -0.000019   0.000000  -0.000000   0.000024   0.000000
     5  C    0.000557   0.000016   0.000001  -0.000002  -0.000001  -0.000000
     6  N    0.000773  -0.001882  -0.000057  -0.000098  -0.000024   0.000004
     7  C   -0.034845  -0.041504   0.004042  -0.004151   0.000418  -0.000144
     8  H    0.004112  -0.001913  -0.000082   0.003500   0.000034  -0.000097
     9  C    0.385736   0.397313  -0.035819  -0.045647  -0.002006   0.004392
    10  C   -0.032428  -0.037415   0.400173   0.396051  -0.040097  -0.038452
    11  C   -0.002305   0.004152  -0.035836  -0.045666   0.396730   0.400373
    12  C    0.000661  -0.000360   0.004201  -0.001226  -0.036700  -0.037807
    13  C   -0.006366   0.003866  -0.000367   0.000309  -0.005801   0.004122
    14  H    0.000061  -0.000047   0.000009  -0.000045   0.000005  -0.000057
    15  N    0.006888   0.000084  -0.000028   0.000001   0.006583   0.000046
    16  C    0.002638  -0.000033   0.000002  -0.000001   0.000053   0.000006
    17  H    0.000011  -0.000001  -0.000000   0.000000   0.000000   0.000000
    18  H   -0.000128   0.002969  -0.000000   0.000002   0.000000  -0.000000
    19  H    0.506787  -0.024105  -0.002600   0.003754   0.001637  -0.000069
    20  H   -0.024105   0.550104  -0.002585  -0.002985  -0.000050  -0.000090
    21  H   -0.002600  -0.002585   0.525986  -0.024676  -0.002816  -0.002047
    22  H    0.003754  -0.002985  -0.024676   0.568411   0.004067  -0.003590
    23  H    0.001637  -0.000050  -0.002816   0.004067   0.510443  -0.025021
    24  H   -0.000069  -0.000090  -0.002047  -0.003590  -0.025021   0.540631
    25  H   -0.000027   0.000011  -0.000086  -0.000082  -0.002110  -0.002371
    26  H    0.000023  -0.000035  -0.000074   0.002464   0.003821  -0.002787
    27  H    0.000080  -0.000000  -0.000000   0.000000  -0.000022  -0.000000
              25         26         27
     1  O    0.000000   0.000000   0.004817
     2  N   -0.000000  -0.000000  -0.000269
     3  O    0.000000   0.000000  -0.000004
     4  C    0.000018   0.000007  -0.070655
     5  C   -0.000001  -0.000002   0.002814
     6  N   -0.000073  -0.000068   0.000062
     7  C    0.004978  -0.004463  -0.000430
     8  H   -0.000003   0.001652   0.000010
     9  C   -0.000367   0.001019  -0.000068
    10  C    0.004095  -0.002359   0.000006
    11  C   -0.034058  -0.042273   0.000004
    12  C    0.395489   0.394912  -0.000015
    13  C   -0.034676  -0.044668   0.005170
    14  H   -0.002630  -0.000922  -0.000201
    15  N    0.000601   0.004186  -0.041938
    16  C   -0.000074  -0.000063   0.404188
    17  H   -0.000000   0.000000  -0.000059
    18  H    0.000002  -0.000001   0.000003
    19  H   -0.000027   0.000023   0.000080
    20  H    0.000011  -0.000035  -0.000000
    21  H   -0.000086  -0.000074  -0.000000
    22  H   -0.000082   0.002464   0.000000
    23  H   -0.002110   0.003821  -0.000022
    24  H   -0.002371  -0.002787  -0.000000
    25  H    0.511438  -0.023036  -0.000010
    26  H   -0.023036   0.559699   0.000001
    27  H   -0.000010   0.000001   0.466426
 Mulliken charges:
               1
     1  O   -0.449528
     2  N    0.501566
     3  O   -0.489821
     4  C   -0.017057
     5  C    0.198090
     6  N   -0.797962
     7  C    0.062960
     8  H    0.178118
     9  C   -0.312065
    10  C   -0.321224
    11  C   -0.315425
    12  C   -0.312869
    13  C   -0.030786
    14  H    0.194818
    15  N   -0.489745
    16  C    0.131265
    17  H    0.286169
    18  H    0.397055
    19  H    0.189841
    20  H    0.154512
    21  H    0.172660
    22  H    0.149610
    23  H    0.190832
    24  H    0.162958
    25  H    0.182971
    26  H    0.152968
    27  H    0.230090
 Sum of Mulliken charges =  -0.00000
 Mulliken charges with hydrogens summed into heavy atoms:
               1
     1  O   -0.449528
     2  N    0.501566
     3  O   -0.489821
     4  C   -0.017057
     5  C    0.484259
     6  N   -0.400907
     7  C    0.241078
     9  C    0.032288
    10  C    0.001047
    11  C    0.038365
    12  C    0.023069
    13  C    0.164032
    15  N   -0.489745
    16  C    0.361355
 Electronic spatial extent (au):  <R**2>=           3145.7788
 Charge=             -0.0000 electrons
 Dipole moment (field-independent basis, Debye):
    X=              5.3950    Y=              4.2655    Z=              0.3915  Tot=              6.8887
 Quadrupole moment (field-independent basis, Debye-Ang):
   XX=           -105.8624   YY=            -80.6418   ZZ=            -82.1720
   XY=             -1.5119   XZ=              1.3624   YZ=             -0.1044
 Traceless Quadrupole moment (field-independent basis, Debye-Ang):
   XX=            -16.3036   YY=              8.9169   ZZ=              7.3867
   XY=             -1.5119   XZ=              1.3624   YZ=             -0.1044
 Octapole moment (field-independent basis, Debye-Ang**2):
  XXX=            104.7203  YYY=             34.4066  ZZZ=             -6.0029  XYY=             -0.3494
  XXY=             10.2745  XXZ=             -2.9874  XZZ=             -8.1401  YZZ=             -3.0454
  YYZ=             -0.3034  XYZ=             -1.8029
 Hexadecapole moment (field-independent basis, Debye-Ang**3):
 XXXX=          -3607.8366 YYYY=           -610.8785 ZZZZ=           -298.5780 XXXY=            -31.7345
 XXXZ=             47.4286 YYYX=            -13.0146 YYYZ=             10.6753 ZZZX=             32.3399
 ZZZY=             11.0028 XXYY=           -664.5129 XXZZ=           -549.4736 YYZZ=           -161.9891
 XXYZ=              2.8531 YYXZ=             14.9676 ZZXY=              4.6752
 N-N= 9.168150830932D+02 E-N=-3.379588706059D+03  KE= 6.588616734370D+02
 Calling FoFJK, ICntrl=  10002127 FMM=F ISym2X=0 I1Cent= 0 IOpClX= 0 NMat=1 NMatS=1 NMatT=0.
 -------------------------------------------------------------------
 Center     Atomic                   Forces (Hartrees/Bohr)
 Number     Number              X              Y              Z
 -------------------------------------------------------------------
      1        8          -0.004386698   -0.024807211   -0.002318838
      2        7           0.041178236    0.002205578   -0.011879267
      3        8           0.001220340    0.012566590    0.004904089
      4        6           0.007398467    0.040450918    0.020416082
      5        6           0.004327870   -0.014282898   -0.005560368
      6        7           0.014609715   -0.012455418   -0.006686134
      7        6          -0.004475752    0.005797684    0.003159987
      8        1          -0.009581801   -0.001918975   -0.007819098
      9        6          -0.003951518   -0.000004543   -0.002072745
     10        6           0.002837749   -0.000793027    0.001046835
     11        6          -0.001292147   -0.004637525   -0.002528325
     12        6           0.001044158   -0.008864497   -0.002551386
     13        6           0.010814956   -0.003330210    0.006741939
     14        1           0.000933508    0.004939297   -0.009695358
     15        7          -0.002718730    0.006098382   -0.001617019
     16        6          -0.032999977   -0.005736644    0.002952817
     17        1           0.005748999   -0.006398701   -0.008207915
     18        1          -0.017651139   -0.001470751    0.007413940
     19        1           0.002951571    0.005935757    0.007796599
     20        1          -0.003252688   -0.007298269    0.002588099
     21        1          -0.004528413    0.002363486    0.009546163
     22        1          -0.003813454   -0.004033712   -0.007483120
     23        1           0.003901714    0.006185154    0.009294683
     24        1          -0.009374713    0.002555535   -0.002254464
     25        1          -0.000632916    0.010502664   -0.002320799
     26        1          -0.004772449   -0.004884285   -0.004446502
     27        1           0.006465112    0.001315620    0.001580106
 -------------------------------------------------------------------
 Cartesian Forces:  Max     0.041178236 RMS     0.010324024

 GradGradGradGradGradGradGradGradGradGradGradGradGradGradGradGradGradGrad
 Berny optimization.
 FormGI is forming the generalized inverse of G from B-inverse, IUseBI=4.
 Internal  Forces:  Max     0.036883314 RMS     0.007430726
 Search for a local minimum.
 Step number   1 out of a maximum of   20
 All quantities printed in internal units (Hartrees-Bohrs-Radians)
 Mixed Optimization -- RFO/linear search
 Second derivative matrix not updated -- first step.
 ITU=  0
     Eigenvalues ---    0.00240   0.00771   0.00985   0.01135   0.01192
     Eigenvalues ---    0.01531   0.01538   0.01628   0.01964   0.02009
     Eigenvalues ---    0.02029   0.02712   0.03680   0.04504   0.04692
     Eigenvalues ---    0.04840   0.05096   0.05137   0.05309   0.05925
     Eigenvalues ---    0.06251   0.07240   0.07698   0.07735   0.07885
     Eigenvalues ---    0.07988   0.08052   0.08076   0.10456   0.11737
     Eigenvalues ---    0.12260   0.13576   0.15324   0.15847   0.15991
     Eigenvalues ---    0.16004   0.20075   0.21883   0.23179   0.25000
     Eigenvalues ---    0.25000   0.25426   0.26286   0.26645   0.27966
     Eigenvalues ---    0.28087   0.28531   0.30112   0.31440   0.31545
     Eigenvalues ---    0.32036   0.32236   0.32290   0.32382   0.32390
     Eigenvalues ---    0.32409   0.32524   0.32525   0.32574   0.33388
     Eigenvalues ---    0.33425   0.33630   0.35600   0.43129   0.43889
     Eigenvalues ---    0.48707   0.66601   0.89953   0.918831000.00000
     Eigenvalues --- 1000.000001000.000001000.000001000.000001000.00000
     Eigenvalues --- 1000.000001000.000001000.000001000.000001000.00000
     Eigenvalues --- 1000.000001000.000001000.000001000.000001000.00000
     Eigenvalues --- 1000.000001000.000001000.000001000.000001000.00000
     Eigenvalues --- 1000.000001000.000001000.000001000.000001000.00000
     Eigenvalues --- 1000.000001000.000001000.000001000.000001000.00000
     Eigenvalues --- 1000.000001000.000001000.000001000.000001000.00000
     Eigenvalues --- 1000.000001000.000001000.000001000.000001000.00000
     Eigenvalues --- 1000.000001000.000001000.000001000.000001000.00000
     Eigenvalues --- 1000.000001000.000001000.000001000.000001000.00000
     Eigenvalues --- 1000.000001000.000001000.000001000.000001000.00000
     Eigenvalues --- 1000.000001000.000001000.000001000.000001000.00000
     Eigenvalues --- 1000.000001000.000001000.000001000.000001000.00000
     Eigenvalues --- 1000.000001000.000001000.000001000.000001000.00000
     Eigenvalues --- 1000.000001000.000001000.000001000.000001000.00000
     Eigenvalues --- 1000.000001000.000001000.000001000.000001000.00000
     Eigenvalues --- 1000.000001000.000001000.000001000.000001000.00000
     Eigenvalues --- 1000.000001000.000001000.000001000.000001000.00000
     Eigenvalues --- 1000.00000
 RFO step:  Lambda=-2.49576697D-02 EMin= 2.40386526D-03
 Linear search not attempted -- first point.
 Iteration  1 RMS(Cart)=  0.05853490 RMS(Int)=  0.00167519
 Iteration  2 RMS(Cart)=  0.00178807 RMS(Int)=  0.00032628
 Iteration  3 RMS(Cart)=  0.00000478 RMS(Int)=  0.00032625
 Iteration  4 RMS(Cart)=  0.00000001 RMS(Int)=  0.00032625
 Iteration  1 RMS(Cart)=  0.00006661 RMS(Int)=  0.00002404
 Iteration  2 RMS(Cart)=  0.00002728 RMS(Int)=  0.00002672
 Iteration  3 RMS(Cart)=  0.00001170 RMS(Int)=  0.00002953
 Iteration  4 RMS(Cart)=  0.00000555 RMS(Int)=  0.00003124
 Iteration  5 RMS(Cart)=  0.00000313 RMS(Int)=  0.00003226
 Iteration  6 RMS(Cart)=  0.00000213 RMS(Int)=  0.00003291
 Iteration  7 RMS(Cart)=  0.00000165 RMS(Int)=  0.00003335
 Iteration  8 RMS(Cart)=  0.00000136 RMS(Int)=  0.00003367
 Iteration  9 RMS(Cart)=  0.00000115 RMS(Int)=  0.00003392
 Iteration 10 RMS(Cart)=  0.00000099 RMS(Int)=  0.00003412
 Variable       Old X    -DE/DX   Delta X   Delta X   Delta X     New X
                                 (Linear)    (Quad)   (Total)
    R1        2.32077   0.02501   0.00000   0.02650   0.02650   2.34727
    R2        2.32954   0.00971   0.00000   0.01050   0.01050   2.34005
    R3        2.87740  -0.03688   0.00000  -0.11311  -0.11311   2.76429
    R4        2.65822  -0.03605   0.00000  -0.07575  -0.07548   2.58274
    R5        2.80821  -0.02217   0.00000  -0.05732  -0.05708   2.75113
    R6        2.59380  -0.02489   0.00000  -0.04839  -0.04830   2.54550
    R7        2.08376  -0.01034   0.00000  -0.02881  -0.02881   2.05495
    R8        2.82071  -0.01819   0.00000  -0.05452  -0.05465   2.76606
    R9        1.93287  -0.00657   0.00000  -0.01417  -0.01417   1.91870
   R10        2.11881  -0.01171   0.00000  -0.03452  -0.03452   2.08429
   R11        2.92728  -0.01318   0.00000  -0.04512  -0.04515   2.88213
   R12        2.89665  -0.00343   0.00000  -0.00997  -0.01006   2.88659
   R13        2.91123  -0.00463   0.00000  -0.01403  -0.01405   2.89718
   R14        2.09896  -0.01002   0.00000  -0.02861  -0.02861   2.07035
   R15        2.09894  -0.00797   0.00000  -0.02277  -0.02277   2.07617
   R16        2.90437  -0.00168   0.00000  -0.00677  -0.00683   2.89754
   R17        2.10136  -0.01058   0.00000  -0.03031  -0.03031   2.07105
   R18        2.10316  -0.00902   0.00000  -0.02594  -0.02594   2.07722
   R19        2.91822  -0.00909   0.00000  -0.02833  -0.02830   2.88992
   R20        2.10414  -0.01169   0.00000  -0.03366  -0.03366   2.07049
   R21        2.10101  -0.00995   0.00000  -0.02851  -0.02851   2.07251
   R22        2.93545  -0.01041   0.00000  -0.03600  -0.03598   2.89947
   R23        2.10151  -0.01062   0.00000  -0.03046  -0.03046   2.07104
   R24        2.09805  -0.00792   0.00000  -0.02259  -0.02259   2.07546
   R25        2.10778  -0.00901   0.00000  -0.02611  -0.02611   2.08167
   R26        2.76311  -0.00291   0.00000  -0.00828  -0.00856   2.75455
   R27        2.44420  -0.00793   0.00000  -0.00971  -0.00972   2.43448
   R28        2.07959  -0.00467   0.00000  -0.01293  -0.01293   2.06667
    A1        2.16318   0.00960   0.00000   0.03649   0.03460   2.19779
    A2        2.01011   0.00140   0.00000   0.00666   0.00477   2.01488
    A3        2.10854  -0.01079   0.00000  -0.03770  -0.03958   2.06896
    A4        1.97442   0.00804   0.00000  -0.03256  -0.03305   1.94137
    A5        2.15088  -0.02612   0.00000   0.00000  -0.00000   2.15088
    A6        2.15739   0.01803   0.00000   0.03184   0.03208   2.18947
    A7        2.22176   0.00250   0.00000   0.02184   0.02210   2.24386
    A8        2.06636  -0.00288   0.00000  -0.01945  -0.01974   2.04662
    A9        1.99438   0.00041   0.00000  -0.00145  -0.00175   1.99264
   A10        2.25374  -0.00567   0.00000  -0.01693  -0.01700   2.23674
   A11        2.11844  -0.01265   0.00000  -0.07390  -0.07415   2.04428
   A12        1.87746   0.01854   0.00000   0.09677   0.09690   1.97436
   A13        1.83930  -0.00142   0.00000  -0.01651  -0.01632   1.82298
   A14        2.01060  -0.00139   0.00000  -0.01049  -0.01050   2.00010
   A15        1.95811   0.00144   0.00000   0.00141   0.00096   1.95907
   A16        1.85133   0.00273   0.00000   0.02290   0.02273   1.87407
   A17        1.85013   0.00059   0.00000   0.01468   0.01455   1.86468
   A18        1.94055  -0.00164   0.00000  -0.00845  -0.00813   1.93242
   A19        1.90966   0.00018   0.00000  -0.00450  -0.00465   1.90500
   A20        1.92377  -0.00074   0.00000  -0.01272  -0.01268   1.91109
   A21        1.92239  -0.00169   0.00000  -0.00744  -0.00743   1.91496
   A22        1.91944  -0.00044   0.00000   0.00565   0.00562   1.92507
   A23        1.90435   0.00309   0.00000   0.02418   0.02420   1.92854
   A24        1.88401  -0.00037   0.00000  -0.00473  -0.00499   1.87903
   A25        1.93991  -0.00067   0.00000   0.00583   0.00570   1.94561
   A26        1.91912  -0.00072   0.00000  -0.00655  -0.00655   1.91257
   A27        1.90507   0.00024   0.00000  -0.00295  -0.00300   1.90207
   A28        1.91631   0.00071   0.00000   0.00678   0.00683   1.92314
   A29        1.89849   0.00164   0.00000   0.01078   0.01081   1.90930
   A30        1.88391  -0.00120   0.00000  -0.01438  -0.01446   1.86945
   A31        1.94487   0.00061   0.00000   0.00528   0.00541   1.95029
   A32        1.90211   0.00067   0.00000   0.00521   0.00515   1.90726
   A33        1.91775   0.00033   0.00000   0.00550   0.00547   1.92322
   A34        1.90603  -0.00103   0.00000  -0.01312  -0.01317   1.89286
   A35        1.91549  -0.00052   0.00000  -0.00044  -0.00054   1.91495
   A36        1.87621  -0.00009   0.00000  -0.00280  -0.00283   1.87338
   A37        1.95014  -0.00311   0.00000  -0.01795  -0.01798   1.93215
   A38        1.90569   0.00265   0.00000   0.01706   0.01692   1.92261
   A39        1.90990   0.00137   0.00000   0.01286   0.01284   1.92274
   A40        1.90591   0.00024   0.00000  -0.00127  -0.00110   1.90481
   A41        1.91035  -0.00014   0.00000  -0.00578  -0.00573   1.90462
   A42        1.88053  -0.00094   0.00000  -0.00446  -0.00464   1.87589
   A43        1.84771   0.00456   0.00000   0.02545   0.02550   1.87321
   A44        1.94362  -0.00468   0.00000  -0.03270  -0.03315   1.91047
   A45        1.97255   0.00125   0.00000   0.00604   0.00615   1.97869
   A46        1.88017   0.00229   0.00000   0.03036   0.03069   1.91086
   A47        1.89309  -0.00385   0.00000  -0.02583  -0.02582   1.86728
   A48        1.92230   0.00063   0.00000  -0.00085  -0.00081   1.92149
   A49        2.07700  -0.00412   0.00000  -0.00299  -0.00339   2.07361
   A50        2.27389  -0.01062   0.00000  -0.02712  -0.02716   2.24673
   A51        1.95850   0.01036   0.00000   0.04115   0.04074   1.99924
   A52        2.04995   0.00039   0.00000  -0.01232  -0.01274   2.03721
    D1       -3.03016   0.00058   0.00000  -0.02301  -0.02265  -3.05281
    D2        0.14412   0.00190   0.00000   0.00000  -0.00000   0.14412
    D3        0.16499  -0.00398   0.00000  -0.13283  -0.13259   0.03239
    D4       -2.94391  -0.00266   0.00000  -0.10982  -0.10995  -3.05386
    D5        3.08380   0.00023   0.00000   0.00354   0.00352   3.08731
    D6       -0.01579  -0.00100   0.00000  -0.02570  -0.02568  -0.04147
    D7       -0.09063  -0.00205   0.00000  -0.02027  -0.02047  -0.11110
    D8        3.09297  -0.00327   0.00000  -0.04951  -0.04966   3.04330
    D9       -2.62228  -0.00309   0.00000  -0.04429  -0.04472  -2.66700
   D10        0.47337   0.00061   0.00000   0.00232   0.00225   0.47562
   D11        0.55541  -0.00133   0.00000  -0.01761  -0.01749   0.53792
   D12       -2.63213   0.00237   0.00000   0.02900   0.02948  -2.60265
   D13       -0.21044   0.00012   0.00000   0.03167   0.03192  -0.17852
   D14        2.61998   0.00403   0.00000   0.07363   0.07277   2.69275
   D15        2.89062   0.00123   0.00000   0.05948   0.05997   2.95060
   D16       -0.56214   0.00514   0.00000   0.10144   0.10082  -0.46132
   D17       -2.42283  -0.00086   0.00000  -0.02840  -0.02807  -2.45090
   D18        1.82633  -0.00252   0.00000  -0.03994  -0.03962   1.78672
   D19       -0.41741  -0.00028   0.00000  -0.01981  -0.01977  -0.43718
   D20        0.99651  -0.00046   0.00000  -0.04401  -0.04443   0.95208
   D21       -1.03751  -0.00212   0.00000  -0.05555  -0.05597  -1.09348
   D22        3.00193   0.00013   0.00000  -0.03542  -0.03613   2.96581
   D23        2.95126   0.00236   0.00000   0.02472   0.02465   2.97591
   D24       -1.21910   0.00146   0.00000   0.02078   0.02073  -1.19837
   D25        0.85796  -0.00051   0.00000   0.00236   0.00238   0.86034
   D26        0.92409   0.00307   0.00000   0.03567   0.03565   0.95974
   D27        3.03691   0.00217   0.00000   0.03173   0.03173   3.06864
   D28       -1.16922   0.00020   0.00000   0.01331   0.01339  -1.15583
   D29       -1.07950   0.00166   0.00000   0.00969   0.00963  -1.06986
   D30        1.03333   0.00076   0.00000   0.00575   0.00571   1.03904
   D31        3.11038  -0.00121   0.00000  -0.01267  -0.01263   3.09775
   D32       -2.90404  -0.00115   0.00000  -0.01191  -0.01172  -2.91576
   D33       -0.86533   0.00181   0.00000   0.02219   0.02196  -0.84336
   D34        1.30937  -0.00007   0.00000   0.00000  -0.00001   1.30936
   D35       -0.90522  -0.00179   0.00000  -0.02236  -0.02226  -0.92748
   D36        1.13349   0.00118   0.00000   0.01174   0.01142   1.14491
   D37       -2.97500  -0.00070   0.00000  -0.01045  -0.01055  -2.98555
   D38        1.09911   0.00096   0.00000   0.00873   0.00882   1.10793
   D39        3.13782   0.00392   0.00000   0.04282   0.04250  -3.10287
   D40       -0.97066   0.00204   0.00000   0.02063   0.02053  -0.95014
   D41        0.95665   0.00064   0.00000   0.00000   0.00001   0.95666
   D42        3.08230   0.00060   0.00000   0.00800   0.00796   3.09026
   D43       -1.13737  -0.00113   0.00000  -0.01510  -0.01507  -1.15244
   D44       -1.15879   0.00172   0.00000   0.01504   0.01511  -1.14368
   D45        0.96685   0.00168   0.00000   0.02305   0.02307   0.98992
   D46        3.03037  -0.00005   0.00000  -0.00006   0.00004   3.03040
   D47        3.06099   0.00057   0.00000   0.00299   0.00296   3.06395
   D48       -1.09655   0.00054   0.00000   0.01100   0.01091  -1.08563
   D49        0.96697  -0.00120   0.00000  -0.01211  -0.01212   0.95485
   D50       -0.92192  -0.00086   0.00000   0.00000   0.00001  -0.92191
   D51        1.18266  -0.00131   0.00000  -0.00958  -0.00959   1.17306
   D52       -3.04891  -0.00083   0.00000  -0.00675  -0.00678  -3.05569
   D53       -3.04920   0.00001   0.00000  -0.00023  -0.00021  -3.04941
   D54       -0.94463  -0.00044   0.00000  -0.00981  -0.00981  -0.95443
   D55        1.10700   0.00004   0.00000  -0.00698  -0.00700   1.10000
   D56        1.17600   0.00009   0.00000   0.00692   0.00695   1.18295
   D57       -3.00260  -0.00036   0.00000  -0.00267  -0.00265  -3.00526
   D58       -0.95098   0.00011   0.00000   0.00017   0.00016  -0.95083
   D59        0.98461  -0.00069   0.00000  -0.01369  -0.01374   0.97087
   D60        3.09479  -0.00061   0.00000  -0.01536  -0.01551   3.07928
   D61       -1.13400   0.00059   0.00000  -0.00339  -0.00337  -1.13737
   D62       -1.11766  -0.00124   0.00000  -0.01487  -0.01487  -1.13253
   D63        0.99251  -0.00116   0.00000  -0.01654  -0.01664   0.97587
   D64        3.04691   0.00004   0.00000  -0.00458  -0.00450   3.04241
   D65        3.11290  -0.00023   0.00000  -0.00352  -0.00352   3.10938
   D66       -1.06011  -0.00014   0.00000  -0.00519  -0.00529  -1.06540
   D67        0.99429   0.00106   0.00000   0.00678   0.00685   1.00114
   D68       -1.04653  -0.00010   0.00000   0.00259   0.00269  -1.04384
   D69       -3.12757   0.00181   0.00000   0.01199   0.01159  -3.11598
   D70        1.07522   0.00189   0.00000   0.01025   0.01010   1.08532
   D71        3.12661  -0.00158   0.00000  -0.00640  -0.00620   3.12041
   D72        1.04556   0.00032   0.00000   0.00300   0.00270   1.04827
   D73       -1.03483   0.00041   0.00000   0.00126   0.00122  -1.03362
   D74        1.07182  -0.00051   0.00000   0.00308   0.00331   1.07513
   D75       -1.00922   0.00139   0.00000   0.01248   0.01221  -0.99701
   D76       -3.08962   0.00148   0.00000   0.01073   0.01072  -3.07890
   D77       -1.17216   0.00376   0.00000   0.00000  -0.00001  -1.17217
   D78        3.06781  -0.00014   0.00000  -0.01833  -0.01830   3.04951
   D79        1.01410  -0.00099   0.00000  -0.03929  -0.03961   0.97450
   D80        0.06303   0.00478   0.00000   0.02827   0.02789   0.09093
   D81       -3.03063   0.00072   0.00000  -0.02147  -0.02108  -3.05171
         Item               Value     Threshold  Converged?
 Maximum Force            0.036883     0.000450     NO 
 RMS     Force            0.007050     0.000300     NO 
 Maximum Displacement     0.371751     0.001800     NO 
 RMS     Displacement     0.058821     0.001200     NO 
 Predicted change in Energy=-1.436595D-02
 GradGradGradGradGradGradGradGradGradGradGradGradGradGradGradGradGradGrad

                          Input orientation:                          
 ---------------------------------------------------------------------
 Center     Atomic      Atomic             Coordinates (Angstroms)
 Number     Number       Type             X           Y           Z
 ---------------------------------------------------------------------
      1          8           0       -3.593498   -1.359261   -0.160122
      2          7           0       -3.166546   -0.205496    0.011377
      3          8           0       -3.850258    0.787841    0.292808
      4          6           0       -1.713235   -0.055888   -0.061345
      5          6           0       -1.330742    1.218966    0.249125
      6          7           0       -0.084854    1.721794    0.346023
      7          6           0        1.186015    0.995559    0.345163
      8          1           0        1.801050    1.516248    1.098249
      9          6           0        1.945102    1.045967   -0.976709
     10          6           0        3.346925    0.459117   -0.774323
     11          6           0        3.283897   -0.953188   -0.180638
     12          6           0        2.435669   -0.995779    1.091130
     13          6           0        1.028257   -0.446659    0.823116
     14          1           0        0.443889   -0.462050    1.756787
     15          7           0        0.411933   -1.320069   -0.167857
     16          6           0       -0.821235   -1.125338   -0.485691
     17          1           0       -2.118734    1.937950    0.460417
     18          1           0        0.025548    2.718804    0.188904
     19          1           0        1.398914    0.472975   -1.734110
     20          1           0        2.010016    2.085089   -1.327514
     21          1           0        3.880320    0.443529   -1.731586
     22          1           0        3.914587    1.114222   -0.098397
     23          1           0        2.841673   -1.635065   -0.915445
     24          1           0        4.295097   -1.317982    0.036621
     25          1           0        2.355802   -2.025579    1.457514
     26          1           0        2.909768   -0.399871    1.882558
     27          1           0       -1.274372   -1.851837   -1.166057
 ---------------------------------------------------------------------
                    Distance matrix (angstroms):
                    1          2          3          4          5
     1  O    0.000000
     2  N    1.242124   0.000000
     3  O    2.209325   1.238299   0.000000
     4  C    2.289963   1.462801   2.324687   0.000000
     5  C    3.454678   2.335764   2.556509   1.366727   0.000000
     6  N    4.696772   3.650105   3.879868   2.444939   1.347020
     7  C    5.352031   4.527553   5.040827   3.110697   2.528478
     8  H    6.241250   5.368678   5.754702   4.020754   3.258451
     9  C    6.093278   5.354571   5.938393   3.928792   3.501964
    10  C    7.200917   6.594266   7.283287   5.136028   4.848235
    11  C    6.889404   6.496470   7.358770   5.078455   5.118382
    12  C    6.168355   5.759794   6.582666   4.407380   4.449710
    13  C    4.812507   4.279423   5.060151   2.907018   2.944257
    14  H    4.558511   4.018398   4.705865   2.850220   2.871963
    15  N    4.005631   3.752321   4.777214   2.475043   3.107650
    16  C    2.801099   2.567814   3.666237   1.455835   2.509046
    17  H    3.664915   2.427738   2.085431   2.100489   1.087435
    18  H    5.463509   4.332726   4.331431   3.284038   2.023034
    19  H    5.546054   4.934621   5.635721   3.572578   3.455539
    20  H    6.680249   5.816890   6.217002   4.477674   3.794288
    21  H    7.847134   7.288174   7.998660   5.858923   5.628471
    22  H    7.905269   7.203899   7.781541   5.748296   5.257872
    23  H    6.485215   6.245107   7.218884   4.895965   5.187558
    24  H    7.891157   7.544162   8.417062   6.140239   6.175057
    25  H    6.201201   5.991689   6.912818   4.769033   5.057457
    26  H    6.883709   6.360873   7.045276   5.026852   4.823967
    27  H    2.575438   2.770760   3.966280   2.153700   3.381678
                    6          7          8          9         10
     6  N    0.000000
     7  C    1.463737   0.000000
     8  H    2.040765   1.102961   0.000000
     9  C    2.515369   1.525156   2.132455   0.000000
    10  C    3.824478   2.492097   2.648354   1.533121   0.000000
    11  C    4.333749   2.911217   3.151587   2.534309   1.533310
    12  C    3.780665   2.466481   2.590960   2.947091   2.535158
    13  C    2.483712   1.527520   2.127419   2.511555   2.957780
    14  H    2.653112   2.160568   2.487814   3.464066   3.960136
    15  N    3.124708   2.494899   3.402552   2.933083   3.485323
    16  C    3.056169   3.036046   4.045148   3.550815   4.468486
    17  H    2.048531   3.438423   3.993666   4.401787   5.795253
    18  H    1.015334   2.083429   2.329261   2.800308   4.131045
    19  H    2.843954   2.154483   3.045060   1.095581   2.171665
    20  H    2.705769   2.159607   2.500315   1.098660   2.176496
    21  H    4.655430   3.446288   3.671792   2.162831   1.095950
    22  H    4.069666   2.766935   2.461834   2.157536   1.099217
    23  H    4.628646   3.354179   3.881834   2.827636   2.158887
    24  H    5.340406   3.887681   3.921759   3.483901   2.171346
    25  H    4.608147   3.425346   3.602966   3.940623   3.483839
    26  H    3.978714   2.698543   2.348598   3.346108   2.826302
    27  H    4.058594   4.055238   5.092082   4.335682   5.181732
                   11         12         13         14         15
    11  C    0.000000
    12  C    1.529280   0.000000
    13  C    2.520318   1.534331   0.000000
    14  H    3.472819   2.166830   1.101573   0.000000
    15  N    2.895331   2.405352   1.457645   2.107480   0.000000
    16  C    4.120049   3.620853   2.365207   2.658797   1.288272
    17  H    6.161010   5.454095   3.965030   3.742675   4.172972
    18  H    4.923101   4.518941   3.380504   3.570868   4.072968
    19  H    2.828494   3.348744   2.742722   3.738009   2.577264
    20  H    3.488442   3.939895   3.463930   4.295764   3.936213
    21  H    2.170710   3.482292   3.931056   4.979747   4.193476
    22  H    2.163034   2.838006   3.408289   4.239350   4.266050
    23  H    1.095655   2.144731   2.779097   3.777056   2.561591
    24  H    1.096723   2.161777   3.471314   4.303881   3.888544
    25  H    2.166778   1.095949   2.158199   2.487890   2.630247
    26  H    2.168619   1.098287   2.159789   2.469867   3.360081
    27  H    4.749362   4.426300   3.351632   3.664280   2.030470
                   16         17         18         19         20
    16  C    0.000000
    17  H    3.458664   0.000000
    18  H    3.993689   2.298129   0.000000
    19  H    3.007029   4.397267   3.260041   0.000000
    20  H    4.362510   4.501658   2.576671   1.771349   0.000000
    21  H    5.110599   6.559483   4.870773   2.481582   2.521117
    22  H    5.252965   6.114881   4.216853   3.068447   2.465909
    23  H    3.723091   6.266185   5.301540   2.682461   3.834189
    24  H    5.146531   7.205410   5.877745   3.838084   4.320111
    25  H    3.831455   6.060135   5.435865   4.164718   4.977303
    26  H    4.478314   5.724834   4.573109   4.015574   4.158022
    27  H    1.093632   4.209614   4.941303   3.588021   5.129587
                   21         22         23         24         25
    21  H    0.000000
    22  H    1.765873   0.000000
    23  H    2.462809   3.062236   0.000000
    24  H    2.530122   2.465489   1.766186   0.000000
    25  H    4.311730   3.835234   2.453469   2.506092   0.000000
    26  H    3.836057   2.688182   3.059275   2.483858   1.769312
    27  H    5.670925   6.071466   4.129362   5.722799   4.482352
                   26         27
    26  H    0.000000
    27  H    5.376736   0.000000
 Symmetry turned off by external request.
 Stoichiometry    C9H13N3O2
 Framework group  C1[X(C9H13N3O2)]
 Deg. of freedom    75
 Full point group                 C1      NOp   1
 Rotational constants (GHZ):           1.7201432           0.4156409           0.3689688
 Standard basis: 6-31G(d) (6D, 7F)
   236 basis functions,   444 primitive gaussians,   236 cartesian basis functions
    52 alpha electrons       52 beta electrons
       nuclear repulsion energy       931.1086577676 Hartrees.
 NAtoms=   27 NActive=   27 NUniq=   27 SFac= 1.00D+00 NAtFMM=   60 NAOKFM=F Big=F
 Integral buffers will be    131072 words long.
 Raffenetti 1 integral format.
 Two-electron integral symmetry is turned off.
 One-electron integrals computed using PRISM.
 NBasis=   236 RedAO= T EigKep=  1.06D-03  NBF=   236
 NBsUse=   236 1.00D-06 EigRej= -1.00D+00 NBFU=   236
 Initial guess from the checkpoint file:  "/home/alexey/tmp/Gau-1351905.chk"
 B after Tr=     0.053535    0.008260    0.003091
         Rot=    0.999996   -0.002093   -0.000378    0.002105 Ang=  -0.34 deg.
 ExpMin= 1.61D-01 ExpMax= 5.48D+03 ExpMxC= 8.25D+02 IAcc=3 IRadAn=         5 AccDes= 0.00D+00
 Harris functional with IExCor=  205 and IRadAn=       5 diagonalized for initial guess.
 HarFok:  IExCor=  205 AccDes= 0.00D+00 IRadAn=         5 IDoV= 1 UseB2=F ITyADJ=14
 ICtDFT=  3500011 ScaDFX=  1.000000  1.000000  1.000000  1.000000
 FoFCou: FMM=F IPFlag=           0 FMFlag=      100000 FMFlg1=           0
         NFxFlg=           0 DoJE=T BraDBF=F KetDBF=T FulRan=T
         wScrn=  0.000000 ICntrl=       500 IOpCl=  0 I1Cent=   200000004 NGrid=           0
         NMat0=    1 NMatS0=      1 NMatT0=    0 NMatD0=    1 NMtDS0=    0 NMtDT0=    0
 Symmetry not used in FoFCou.
 Keep R1 ints in memory in canonical form, NReq=397720213.
 Requested convergence on RMS density matrix=1.00D-08 within 128 cycles.
 Requested convergence on MAX density matrix=1.00D-06.
 Requested convergence on             energy=1.00D-06.
 No special actions if energy rises.
 SCF Done:  E(RHF) =  -661.293596992     A.U. after   15 cycles
            NFock= 15  Conv=0.62D-08     -V/T= 2.0024
 ExpMin= 1.61D-01 ExpMax= 5.48D+03 ExpMxC= 8.25D+02 IAcc=3 IRadAn=         5 AccDes= 0.00D+00
 HarFok:  IExCor=  205 AccDes= 0.00D+00 IRadAn=         5 IDoV=-2 UseB2=F ITyADJ=14
 ICtDFT= 12500011 ScaDFX=  1.000000  1.000000  1.000000  1.000000
 Range of M.O.s used for correlation:    15   236
 NBasis=   236 NAE=    52 NBE=    52 NFC=    14 NFV=     0
 NROrb=    222 NOA=    38 NOB=    38 NVA=   184 NVB=   184
 Fully direct method using O(ONN) memory.
 JobTyp=1 Pass  1:  I=  15 to  52 NPSUse=  4 ParTrn=T ParDer=T DoDerP=T.
 Spin components of T(2) and E(2):
     alpha-alpha T2 =       0.9128905368D-01 E2=     -0.2723855244D+00
     alpha-beta  T2 =       0.4914432572D+00 E2=     -0.1488230856D+01
     beta-beta   T2 =       0.9128905368D-01 E2=     -0.2723855244D+00
 ANorm=    0.1293839775D+01
 E2 =    -0.2033001905D+01 EUMP2 =    -0.66332659889621D+03
          IDoAtm=111111111111111111111111111
          Differentiating once with respect to electric field.
                with respect to dipole field.
          Differentiating once with respect to nuclear coordinates.
 Keep R1 ints in memory in canonical form, NReq=397723379.
          There are     1 degrees of freedom in the 1st order CPHF.  IDoFFX=0 NUNeed=     1.
 LinEq1:  Iter=  0 NonCon=     1 RMS=4.58D-03 Max=1.08D-01 NDo=     1
 AX will form     1 AO Fock derivatives at one time.
 LinEq1:  Iter=  1 NonCon=     1 RMS=1.54D-03 Max=2.56D-02 NDo=     1
 LinEq1:  Iter=  2 NonCon=     1 RMS=6.43D-04 Max=1.78D-02 NDo=     1
 LinEq1:  Iter=  3 NonCon=     1 RMS=2.82D-04 Max=8.38D-03 NDo=     1
 LinEq1:  Iter=  4 NonCon=     1 RMS=8.71D-05 Max=1.99D-03 NDo=     1
 LinEq1:  Iter=  5 NonCon=     1 RMS=3.64D-05 Max=1.83D-03 NDo=     1
 LinEq1:  Iter=  6 NonCon=     1 RMS=1.39D-05 Max=5.42D-04 NDo=     1
 LinEq1:  Iter=  7 NonCon=     1 RMS=5.29D-06 Max=9.67D-05 NDo=     1
 LinEq1:  Iter=  8 NonCon=     1 RMS=2.02D-06 Max=4.83D-05 NDo=     1
[...]
                   16         17         18         19         20
    16  C    0.000000
    17  H    3.440762   0.000000
    18  H    4.055135   2.211547   0.000000
    19  H    2.973956   4.306701   3.508502   0.000000
    20  H    4.357270   4.454936   2.890144   1.768450   0.000000
    21  H    5.084298   6.510474   5.091602   2.499155   2.521701
    22  H    5.238421   6.092899   4.320846   3.070224   2.460862
    23  H    3.694215   6.226537   5.416978   2.706573   3.844043
    24  H    5.133140   7.187903   5.936231   3.851168   4.317268
    25  H    3.827899   6.065602   5.362293   4.173016   4.986385
    26  H    4.499210   5.764739   4.489467   4.042089   4.188321
    27  H    1.092358   4.209248   5.050742   3.553135   5.121179
                   21         22         23         24         25
    21  H    0.000000
    22  H    1.758770   0.000000
    23  H    2.468554   3.061949   0.000000
    24  H    2.516823   2.459430   1.764441   0.000000
    25  H    4.312377   3.841789   2.443266   2.521200   0.000000
    26  H    3.849425   2.708612   3.060548   2.489581   1.767798
    27  H    5.622678   6.037461   4.069525   5.677028   4.449352
                   26         27
    26  H    0.000000
    27  H    5.373524   0.000000
 Symmetry turned off by external request.
 Stoichiometry    C9H13N3O2
 Framework group  C1[X(C9H13N3O2)]
 Deg. of freedom    75
 Full point group                 C1      NOp   1
 Rotational constants (GHZ):           1.7091704           0.4132785           0.3688586

 **********************************************************************

            Population analysis using the SCF Density.

 **********************************************************************

 Alpha  occ. eigenvalues --  -20.59090 -20.59044 -15.84867 -15.64182 -15.56310
 Alpha  occ. eigenvalues --  -11.34777 -11.29973 -11.29594 -11.28709 -11.27185
 Alpha  occ. eigenvalues --  -11.23760 -11.23255 -11.22758 -11.22152  -1.57162
 Alpha  occ. eigenvalues --   -1.36729  -1.31046  -1.23220  -1.14782  -1.09935
 Alpha  occ. eigenvalues --   -1.02832  -1.01476  -0.94076  -0.90170  -0.85667
 Alpha  occ. eigenvalues --   -0.82456  -0.78786  -0.77406  -0.75036  -0.72208
 Alpha  occ. eigenvalues --   -0.69774  -0.69502  -0.67911  -0.64894  -0.63893
 Alpha  occ. eigenvalues --   -0.62309  -0.60100  -0.57744  -0.57056  -0.55055
 Alpha  occ. eigenvalues --   -0.54632  -0.50820  -0.50094  -0.48449  -0.48200
 Alpha  occ. eigenvalues --   -0.47358  -0.46263  -0.46139  -0.43728  -0.41833
 Alpha  occ. eigenvalues --   -0.39992  -0.33819
 Alpha virt. eigenvalues --    0.07663   0.11537   0.17393   0.21818   0.24025
 Alpha virt. eigenvalues --    0.25582   0.27094   0.28702   0.29038   0.29761
 Alpha virt. eigenvalues --    0.30782   0.31665   0.32122   0.32722   0.33892
 Alpha virt. eigenvalues --    0.34279   0.35895   0.37377   0.38425   0.39316
 Alpha virt. eigenvalues --    0.40978   0.42521   0.44979   0.46181   0.46763
 Alpha virt. eigenvalues --    0.47350   0.48863   0.54020   0.57681   0.59363
 Alpha virt. eigenvalues --    0.63874   0.69691   0.70413   0.72788   0.74265
 Alpha virt. eigenvalues --    0.75347   0.75749   0.76554   0.78780   0.79447
 Alpha virt. eigenvalues --    0.81181   0.84350   0.85564   0.85973   0.88319
 Alpha virt. eigenvalues --    0.89351   0.90924   0.92284   0.92890   0.94333
 Alpha virt. eigenvalues --    0.95507   0.98075   0.99584   1.01721   1.02313
 Alpha virt. eigenvalues --    1.03120   1.05959   1.06796   1.08040   1.09218
 Alpha virt. eigenvalues --    1.09958   1.11729   1.11891   1.12223   1.13892
 Alpha virt. eigenvalues --    1.14728   1.14938   1.15602   1.16663   1.18695
 Alpha virt. eigenvalues --    1.19198   1.21260   1.22409   1.23830   1.24410
 Alpha virt. eigenvalues --    1.25747   1.26248   1.26796   1.27408   1.29900
 Alpha virt. eigenvalues --    1.30097   1.32772   1.35668   1.36367   1.40606
 Alpha virt. eigenvalues --    1.42509   1.46002   1.48421   1.51312   1.54611
 Alpha virt. eigenvalues --    1.56262   1.58994   1.59920   1.63219   1.65793
 Alpha virt. eigenvalues --    1.67915   1.69165   1.72823   1.74923   1.76803
 Alpha virt. eigenvalues --    1.81494   1.84175   1.87058   1.91144   1.93576
 Alpha virt. eigenvalues --    1.95481   1.97169   1.99140   2.00687   2.03052
 Alpha virt. eigenvalues --    2.05445   2.06194   2.09177   2.10116   2.12102
 Alpha virt. eigenvalues --    2.12586   2.15606   2.18693   2.19923   2.21846
 Alpha virt. eigenvalues --    2.22759   2.24565   2.26071   2.28154   2.29478
 Alpha virt. eigenvalues --    2.31571   2.33955   2.34646   2.36275   2.38613
 Alpha virt. eigenvalues --    2.39982   2.42190   2.42988   2.45180   2.47180
 Alpha virt. eigenvalues --    2.50756   2.51954   2.53500   2.54895   2.61594
 Alpha virt. eigenvalues --    2.62431   2.65358   2.67732   2.69707   2.70340
 Alpha virt. eigenvalues --    2.72227   2.72890   2.76453   2.78634   2.83674
 Alpha virt. eigenvalues --    2.88447   2.88956   2.92772   2.94487   2.96593
 Alpha virt. eigenvalues --    2.98978   3.01554   3.04394   3.05376   3.07581
 Alpha virt. eigenvalues --    3.09404   3.15214   3.20533   3.25333   3.27317
 Alpha virt. eigenvalues --    3.33359   3.37347   3.39328   3.52776   3.65221
 Alpha virt. eigenvalues --    4.14241   4.28628   4.33710   4.40076   4.46451
 Alpha virt. eigenvalues --    4.56593   4.62282   4.62330   4.73468   4.80158
 Alpha virt. eigenvalues --    4.99134   5.00918   5.04714   5.11320
          Condensed to atoms (all electrons):
               1          2          3          4          5          6
     1  O    8.313657   0.306894  -0.080736  -0.089756   0.004906  -0.000017
     2  N    0.306894   5.730980   0.300560   0.260345  -0.058378   0.001039
     3  O   -0.080736   0.300560   8.355880  -0.090055  -0.000690   0.000946
     4  C   -0.089756   0.260345  -0.090055   5.247703   0.541598  -0.045101
     5  C    0.004906  -0.058378  -0.000690   0.541598   4.738640   0.314782
     6  N   -0.000017   0.001039   0.000946  -0.045101   0.314782   7.199485
     7  C    0.000003  -0.000118   0.000000   0.005048  -0.029911   0.168418
     8  H   -0.000000   0.000002  -0.000000  -0.000310   0.003171  -0.050820
     9  C   -0.000000  -0.000003   0.000000   0.000973   0.000316  -0.060137
    10  C    0.000000   0.000000   0.000000  -0.000042  -0.000039   0.003715
    11  C   -0.000000  -0.000000  -0.000000  -0.000019   0.000019  -0.000188
    12  C   -0.000000   0.000002  -0.000000  -0.000165  -0.000128   0.003953
    13  C   -0.000014  -0.000034  -0.000003  -0.010753  -0.000809  -0.049872
    14  H   -0.000004  -0.000100  -0.000000   0.002940   0.005893  -0.007180
    15  N    0.000302   0.002052  -0.000009  -0.061265  -0.005536   0.001010
    16  C    0.004020  -0.019884   0.001998   0.321172  -0.050110  -0.002646
    17  H    0.000276  -0.008132   0.018581  -0.024712   0.376989  -0.035186
    18  H    0.000001  -0.000053   0.000017   0.001447  -0.032481   0.339668
    19  H    0.000000  -0.000003   0.000000  -0.001195   0.001211  -0.000350
    20  H    0.000000  -0.000000   0.000000  -0.000068   0.000117  -0.000413
    21  H   -0.000000   0.000000   0.000000   0.000001   0.000001  -0.000076
    22  H   -0.000000   0.000000  -0.000000   0.000000  -0.000003  -0.000116
    23  H    0.000000  -0.000000   0.000000   0.000040  -0.000001  -0.000030
    24  H    0.000000   0.000000   0.000000   0.000000  -0.000000   0.000006
    25  H    0.000000  -0.000000   0.000000   0.000024  -0.000001  -0.000093
    26  H    0.000000  -0.000000   0.000000   0.000007  -0.000003  -0.000062
    27  H    0.005894  -0.000378   0.000023  -0.068208   0.002799   0.000008
               7          8          9         10         11         12
     1  O    0.000003  -0.000000  -0.000000   0.000000  -0.000000  -0.000000
     2  N   -0.000118   0.000002  -0.000003   0.000000  -0.000000   0.000002
     3  O    0.000000  -0.000000   0.000000   0.000000  -0.000000  -0.000000
     4  C    0.005048  -0.000310   0.000973  -0.000042  -0.000019  -0.000165
     5  C   -0.029911   0.003171   0.000316  -0.000039   0.000019  -0.000128
     6  N    0.168418  -0.050820  -0.060137   0.003715  -0.000188   0.003953
     7  C    5.014668   0.418713   0.350936  -0.054989  -0.009039  -0.061470
     8  H    0.418713   0.538505  -0.055076   0.000809  -0.000328  -0.001958
     9  C    0.350936  -0.055076   5.157356   0.324673  -0.050309  -0.005392
    10  C   -0.054989   0.000809   0.324673   5.119544   0.337110  -0.060727
    11  C   -0.009039  -0.000328  -0.050309   0.337110   5.119442   0.335683
    12  C   -0.061470  -0.001958  -0.005392  -0.060727   0.335683   5.119025
    13  C    0.341492  -0.038615  -0.059705  -0.000266  -0.050459   0.372276
    14  H   -0.046175  -0.000799   0.004411  -0.000407   0.004187  -0.036519
    15  N   -0.058406   0.004065  -0.015620   0.001528  -0.012843  -0.082634
    16  C   -0.002166   0.000052  -0.001542  -0.000019   0.000017   0.002538
    17  H    0.001654  -0.000037  -0.000077   0.000001   0.000000   0.000000
    18  H   -0.021558  -0.004462   0.001297  -0.000083   0.000004  -0.000117
    19  H   -0.036705   0.004358   0.390334  -0.031965  -0.002199   0.000712
    20  H   -0.042447  -0.002185   0.399500  -0.035302   0.003931  -0.000421
    21  H    0.004610  -0.000078  -0.036320   0.402474  -0.034872   0.004330
    22  H   -0.004794   0.003553  -0.046930   0.397759  -0.045491  -0.000951
    23  H    0.000592   0.000033  -0.001948  -0.039019   0.399103  -0.037723
    24  H   -0.000133  -0.000100   0.004381  -0.038428   0.402404  -0.038722
    25  H    0.005136  -0.000029  -0.000419   0.004169  -0.033442   0.398046
    26  H   -0.003815   0.001684   0.000952  -0.002162  -0.041432   0.396918
    27  H   -0.000427   0.000010  -0.000067   0.000008   0.000012  -0.000030
              13         14         15         16         17         18
     1  O   -0.000014  -0.000004   0.000302   0.004020   0.000276   0.000001
     2  N   -0.000034  -0.000100   0.002052  -0.019884  -0.008132  -0.000053
     3  O   -0.000003  -0.000000  -0.000009   0.001998   0.018581   0.000017
     4  C   -0.010753   0.002940  -0.061265   0.321172  -0.024712   0.001447
     5  C   -0.000809   0.005893  -0.005536  -0.050110   0.376989  -0.032481
     6  N   -0.049872  -0.007180   0.001010  -0.002646  -0.035186   0.339668
     7  C    0.341492  -0.046175  -0.058406  -0.002166   0.001654  -0.021558
     8  H   -0.038615  -0.000799   0.004065   0.000052  -0.000037  -0.004462
     9  C   -0.059705   0.004411  -0.015620  -0.001542  -0.000077   0.001297
    10  C   -0.000266  -0.000407   0.001528  -0.000019   0.000001  -0.000083
    11  C   -0.050459   0.004187  -0.012843   0.000017   0.000000   0.000004
    12  C    0.372276  -0.036519  -0.082634   0.002538   0.000000  -0.000117
    13  C    5.039490   0.403080   0.241317  -0.069971  -0.000009   0.003147
    14  H    0.403080   0.526252  -0.037429  -0.004075   0.000091  -0.000102
    15  N    0.241317  -0.037429   6.963515   0.590985  -0.000056  -0.000134
    16  C   -0.069971  -0.004075   0.590985   4.695547   0.002164  -0.000232
    17  H   -0.000009   0.000091  -0.000056   0.002164   0.375494  -0.003001
    18  H    0.003147  -0.000102  -0.000134  -0.000232  -0.003001   0.310637
    19  H   -0.007577   0.000096   0.007674   0.003042   0.000016  -0.000147
    20  H    0.004356  -0.000064   0.000141  -0.000039   0.000002   0.000813
    21  H   -0.000424   0.000010  -0.000043   0.000004  -0.000000   0.000001
    22  H   -0.000005  -0.000056   0.000021  -0.000002   0.000000   0.000001
    23  H   -0.007537  -0.000002   0.008479   0.000113   0.000000   0.000000
    24  H    0.004693  -0.000055   0.000140   0.000007   0.000000  -0.000000
    25  H   -0.035459  -0.002757   0.000325  -0.000027  -0.000000   0.000002
    26  H   -0.047499  -0.001050   0.004935  -0.000059   0.000000  -0.000000
    27  H    0.005278  -0.000198  -0.042632   0.405354  -0.000079   0.000001
              19         20         21         22         23         24
     1  O    0.000000   0.000000  -0.000000  -0.000000   0.000000   0.000000
     2  N   -0.000003  -0.000000   0.000000   0.000000  -0.000000   0.000000
     3  O    0.000000   0.000000   0.000000  -0.000000   0.000000   0.000000
     4  C   -0.001195  -0.000068   0.000001   0.000000   0.000040   0.000000
     5  C    0.001211   0.000117   0.000001  -0.000003  -0.000001  -0.000000
     6  N   -0.000350  -0.000413  -0.000076  -0.000116  -0.000030   0.000006
     7  C   -0.036705  -0.042447   0.004610  -0.004794   0.000592  -0.000133
     8  H    0.004358  -0.002185  -0.000078   0.003553   0.000033  -0.000100
     9  C    0.390334   0.399500  -0.036320  -0.046930  -0.001948   0.004381
    10  C   -0.031965  -0.035302   0.402474   0.397759  -0.039019  -0.038428
    11  C   -0.002199   0.003931  -0.034872  -0.045491   0.399103   0.402404
    12  C    0.000712  -0.000421   0.004330  -0.000951  -0.037723  -0.038722
    13  C   -0.007577   0.004356  -0.000424  -0.000005  -0.007537   0.004693
    14  H    0.000096  -0.000064   0.000010  -0.000056  -0.000002  -0.000055
    15  N    0.007674   0.000141  -0.000043   0.000021   0.008479   0.000140
    16  C    0.003042  -0.000039   0.000004  -0.000002   0.000113   0.000007
    17  H    0.000016   0.000002  -0.000000   0.000000   0.000000   0.000000
    18  H   -0.000147   0.000813   0.000001   0.000001   0.000000  -0.000000
    19  H    0.504201  -0.024755  -0.002798   0.003954   0.001501  -0.000067
    20  H   -0.024755   0.541082  -0.002665  -0.003011  -0.000045  -0.000083
    21  H   -0.002798  -0.002665   0.523594  -0.027370  -0.002906  -0.002232
    22  H    0.003954  -0.003011  -0.027370   0.571081   0.004146  -0.003668
    23  H    0.001501  -0.000045  -0.002906   0.004146   0.499560  -0.025517
    24  H   -0.000067  -0.000083  -0.002232  -0.003668  -0.025517   0.537944
    25  H   -0.000028   0.000012  -0.000086  -0.000080  -0.002342  -0.002258
    26  H    0.000019  -0.000030  -0.000081   0.002366   0.004063  -0.003071
    27  H    0.000091   0.000000  -0.000000   0.000000  -0.000039  -0.000000
              25         26         27
     1  O    0.000000   0.000000   0.005894
     2  N   -0.000000  -0.000000  -0.000378
     3  O    0.000000   0.000000   0.000023
     4  C    0.000024   0.000007  -0.068208
     5  C   -0.000001  -0.000003   0.002799
     6  N   -0.000093  -0.000062   0.000008
     7  C    0.005136  -0.003815  -0.000427
     8  H   -0.000029   0.001684   0.000010
     9  C   -0.000419   0.000952  -0.000067
    10  C    0.004169  -0.002162   0.000008
    11  C   -0.033442  -0.041432   0.000012
    12  C    0.398046   0.396918  -0.000030
    13  C   -0.035459  -0.047499   0.005278
    14  H   -0.002757  -0.001050  -0.000198
    15  N    0.000325   0.004935  -0.042632
    16  C   -0.000027  -0.000059   0.405354
    17  H   -0.000000   0.000000  -0.000079
    18  H    0.000002  -0.000000   0.000001
    19  H   -0.000028   0.000019   0.000091
    20  H    0.000012  -0.000030   0.000000
    21  H   -0.000086  -0.000081  -0.000000
    22  H   -0.000080   0.002366   0.000000
    23  H   -0.002342   0.004063  -0.000039
    24  H   -0.002258  -0.003071  -0.000000
    25  H    0.506759  -0.024072  -0.000014
    26  H   -0.024072   0.561492   0.000001
    27  H   -0.000014   0.000001   0.453678
 Mulliken charges:
               1
     1  O   -0.465426
     2  N    0.485209
     3  O   -0.506512
     4  C    0.010351
     5  C    0.187651
     6  N   -0.780743
     7  C    0.060883
     8  H    0.179842
     9  C   -0.301584
    10  C   -0.328342
    11  C   -0.321291
    12  C   -0.306528
    13  C   -0.036120
    14  H    0.190016
    15  N   -0.509883
    16  C    0.123760
    17  H    0.296021
    18  H    0.405335
    19  H    0.190580
    20  H    0.161574
    21  H    0.174926
    22  H    0.149594
    23  H    0.199480
    24  H    0.164762
    25  H    0.186632
    26  H    0.150899
    27  H    0.238914
 Sum of Mulliken charges =  -0.00000
 Mulliken charges with hydrogens summed into heavy atoms:
               1
     1  O   -0.465426
     2  N    0.485209
     3  O   -0.506512
     4  C    0.010351
     5  C    0.483672
     6  N   -0.375407
     7  C    0.240724
     9  C    0.050570
    10  C   -0.003821
    11  C    0.042950
    12  C    0.031003
    13  C    0.153896
    15  N   -0.509883
    16  C    0.362674
 Electronic spatial extent (au):  <R**2>=           3028.7038
 Charge=              0.0000 electrons
 Dipole moment (field-independent basis, Debye):
    X=              5.5425    Y=              4.6007    Z=              1.2150  Tot=              7.3049
 Quadrupole moment (field-independent basis, Debye-Ang):
   XX=           -106.8038   YY=            -79.4190   ZZ=            -81.5030
   XY=             -1.4751   XZ=              0.0895   YZ=              1.6911
 Traceless Quadrupole moment (field-independent basis, Debye-Ang):
   XX=            -17.5618   YY=              9.8229   ZZ=              7.7389
   XY=             -1.4751   XZ=              0.0895   YZ=              1.6911
 Octapole moment (field-independent basis, Debye-Ang**2):
  XXX=             97.4319  YYY=             33.3477  ZZZ=             -1.5768  XYY=             -3.5306
  XXY=              8.4844  XXZ=              4.0598  XZZ=             -9.1602  YZZ=             -0.7551
  YYZ=              7.5088  XYZ=              0.5456
 Hexadecapole moment (field-independent basis, Debye-Ang**3):
 XXXX=          -3437.5824 YYYY=           -590.9305 ZZZZ=           -304.4319 XXXY=            -12.3567
 XXXZ=             -9.0030 YYYX=              1.1309 YYYZ=             24.1483 ZZZX=              3.2685
 ZZZY=              7.2838 XXYY=           -635.6323 XXZZ=           -530.8797 YYZZ=           -155.3181
 XXYZ=             -6.1964 YYXZ=              2.6763 ZZXY=              7.0919
 N-N= 9.302000843159D+02 E-N=-3.407057882645D+03  KE= 6.596274750922D+02
 Unable to Open any file for archive entry.
 1\1\GINC-LOTUS\FOpt\RMP2-FC\6-31G(d)\C9H13N3O2\ALEXEY\01-Jul-2023\0\\#
 MP2/6-31G* SCF=Tight Opt=(ModRedun, MaxCycle=20 ) NoSymm\\MolName:\\0,
 1\O,-3.6047805472,-1.3202732012,-0.3669106791\N,-3.1609363474,-0.18326
 96776,-0.1033432883\O,-3.8851581746,0.8061248219,0.1089932309\C,-1.716
 9659346,-0.0720446345,-0.0330338144\C,-1.3078177785,1.2106046519,0.267
 6541123\N,-0.0701545536,1.7152063086,0.3797911062\C,1.2051082344,1.016
 3371573,0.353826662\H,1.8425971543,1.5578779613,1.0695047426\C,1.91542
 69976,1.0318151396,-0.9977280908\C,3.3167396942,0.4345031372,-0.823449
 1887\C,3.2748638462,-0.9615601579,-0.1957346946\C,2.4716069717,-0.9785
 119463,1.1069507784\C,1.0624710798,-0.427199744,0.8651343808\H,0.47987
 38973,-0.4072962133,1.7998882901\N,0.4250061043,-1.3099220611,-0.10306
 35143\C,-0.8184595564,-1.1416865119,-0.4174224934\H,-2.0971989524,1.94
 0183629,0.4226636842\H,-0.0291244833,2.7025072242,0.6039710232\H,1.330
 1476503,0.4508452744,-1.7180932368\H,1.9773493244,2.0603610767,-1.3745
 753736\H,3.8276554388,0.3988078714,-1.7924065784\H,3.9077049057,1.1055
 051947,-0.1838530008\H,2.8076223433,-1.6621528263,-0.8947813322\H,4.29
 5606977,-1.3170247299,-0.0115814549\H,2.3881080208,-2.0016854318,1.488
 131418\H,2.9746582622,-0.3806083126,1.8795110766\H,-1.2509605743,-1.90
 34440001,-1.0700437649\\Version=ES64L-G16RevC.02\HF=-661.2972146\MP2=-
 663.3317298\RMSD=9.722e-09\RMSF=4.503e-03\Dipole=2.0178234,1.6277391,0
 .4509221\PG=C01 [X(C9H13N3O2)]\\@
 The archive entry for this job was punched.


 IN THE LONG RUN, DIGGING FOR TRUTH HAS ALWAYS PROVED NOT ONLY 
 MORE INTERESTING BUT MORE PROFITABLE THAN DIGGING FOR GOLD.

                             -- GEORGE R. HARRISON
 Job cpu time:       0 days  1 hours 43 minutes  1.3 seconds.
 Elapsed time:       0 days  0 hours 31 minutes 13.1 seconds.
 File lengths (MBytes):  RWF=     36 Int=      0 D2E=      0 Chk=      7 Scr=      1
 Normal termination of Gaussian 16 at Sat Jul  1 16:50:37 2023.
