 Entering Gaussian System, Link 0=g16
 Initial command:
 /home/alexey/programs//g16/l1.exe "/home/alexey/tmp/Gau-1212690.inp" -scrdir="/home/alexey/tmp/"
 Entering Link 1 = /home/alexey/programs//g16/l1.exe PID=   1212692.
  
 Copyright (c) 1988-2021, Gaussian, Inc.  All Rights Reserved.
  
 This is part of the Gaussian(R) 16 program.  It is based on
 the Gaussian(R) 09 system (copyright 2009, Gaussian, Inc.),
 the Gaussian(R) 03 system (copyright 2003, Gaussian, Inc.),
 the Gaussian(R) 98 system (copyright 1998, Gaussian, Inc.),
 the Gaussian(R) 94 system (copyright 1995, Gaussian, Inc.),
 the Gaussian 92(TM) system (copyright 1992, Gaussian, Inc.),
 the Gaussian 90(TM) system (copyright 1990, Gaussian, Inc.),
 the Gaussian 88(TM) system (copyright 1988, Gaussian, Inc.),
 the Gaussian 86(TM) system (copyright 1986, Carnegie Mellon
 University), and the Gaussian 82(TM) system (copyright 1983,
 Carnegie Mellon University). Gaussian is a federally registered
 trademark of Gaussian, Inc.
  
 This software contains proprietary and confidential information,
 including trade secrets, belonging to Gaussian, Inc.
  
 This software is provided under written license and may be
 used, copied, transmitted, or stored only in accord with that
 written license.
  
 The following legend is applicable only to US Government
 contracts under FAR:
  
                    RESTRICTED RIGHTS LEGEND
  
 Use, reproduction and disclosure by the US Government is
 subject to restrictions as set forth in subparagraphs (a)
 and (c) of the Commercial Computer Software - Restricted
 Rights clause in FAR 52.227-19.
  
 Gaussian, Inc.
 340 Quinnipiac St., Bldg. 40, Wallingford CT 06492
  
  
 ---------------------------------------------------------------
 Warning -- This program may not be used in any manner that
 competes with the business of Gaussian, Inc. or will provide
 assistance to any competitor of Gaussian, Inc.  The licensee
 of this program is prohibited from giving any competitor of
 Gaussian, Inc. access to this program.  By using this program,
 the user acknowledges that Gaussian, Inc. is engaged in the
 business of creating and licensing software in the field of
 computational chemistry and represents and warrants to the
 licensee that it is not a competitor of Gaussian, Inc. and that
 it will not use this program in any manner prohibited above.
 ---------------------------------------------------------------
  

 Cite this work as:
 Gaussian 16, Revision C.02,
 M. J. Frisch, G. W. Trucks, H. B. Schlegel, G. E. Scuseria, 
 M. A. Robb, J. R. Cheeseman, G. Scalmani, V. Barone, 
 G. A. Petersson, H. Nakatsuji, X. Li, M. Caricato, A. V. Marenich, 
 J. Bloino, B. G. Janesko, R. Gomperts, B. Mennucci, H. P. Hratchian, 
 J. V. Ortiz, A. F. Izmaylov, J. L. Sonnenberg, D. Williams-Young, 
 F. Ding, F. Lipparini, F. Egidi, J. Goings, B. Peng, A. Petrone, 
 T. Henderson, D. Ranasinghe, V. G. Zakrzewski, J. Gao, N. Rega, 
 G. Zheng, W. Liang, M. Hada, M. Ehara, K. Toyota, R. Fukuda, 
 J. Hasegawa, M. Ishida, T. Nakajima, Y. Honda, O. Kitao, H. Nakai, 
 T. Vreven, K. Throssell, J. A. Montgomery, Jr., J. E. Peralta, 
 F. Ogliaro, M. J. Bearpark, J. J. Heyd, E. N. Brothers, K. N. Kudin, 
 V. N. Staroverov, T. A. Keith, R. Kobayashi, J. Normand, 
 K. Raghavachari, A. P. Rendell, J. C. Burant, S. S. Iyengar, 
 J. Tomasi, M. Cossi, J. M. Millam, M. Klene, C. Adamo, R. Cammi, 
 J. W. Ochterski, R. L. Martin, K. Morokuma, O. Farkas, 
 J. B. Foresman, and D. J. Fox, Gaussian, Inc., Wallingford CT, 2019.
 
 ******************************************
 Gaussian 16:  ES64L-G16RevC.02  7-Dec-2021
                30-Jun-2023 
 ******************************************
 %mem=8GB
 %NPROCS=4
 Will use up to    4 processors via shared memory.
 %NoSave
 ---------------------------------------------------------
 #MP2/6-31G* SCF=Tight Opt=(ModRedun, MaxCycle=20 ) NoSymm
 ---------------------------------------------------------
 1/6=20,18=120,19=15,38=1/1,3;
 2/9=110,12=2,15=1,17=6,18=5,40=1/2;
 3/5=1,6=6,7=1,11=9,25=1,30=1,71=1/1,2,3;
 4//1;
 5/5=2,32=2,38=5/2;
 8/6=4,10=2/1;
 9/15=2,16=-3/6;
 10/5=1,31=1/2;
 6/7=2,8=2,9=2,10=2/1;
 7/12=2,30=1/1,2,3,16;
 1/6=20,18=20,19=15/3(2);
 2/9=110,15=1/2;
 99//99;
 2/9=110,15=1/2;
 3/5=1,6=6,7=1,11=9,25=1,30=1,71=1/1,2,3;
 4/5=5,16=3,69=1/1;
 5/5=2,32=2,38=5/2;
 8/6=4,10=2/1;
 9/15=2,16=-3/6;
 10/5=1,31=1/2;
 7/12=2,30=1/1,2,3,16;
 1/6=20,18=20,19=15/3(-8);
 2/9=110,15=1/2;
 6/7=2,8=2,9=2,10=2/1;
 99/9=10/99;
 --------
 MolName:
 --------
 Symbolic Z-matrix:
 Charge =  0 Multiplicity = 1
 8                    0    -3.58251  -1.48213  -0.20526 
 7                    0    -3.23478  -0.31183  -0.04626 
 8                    0    -4.02967   0.616     0.10385 
 6                    0    -1.74146   0.03632  -0.03613 
 6                    0    -1.36388   1.34385   0.27431 
 7                    0    -0.07366   1.78618   0.40396 
 6                    0     1.19926   1.0012    0.36859 
 1                    0     1.86961   1.49206   1.12102 
 6                    0     1.95811   1.05151  -0.98101 
 6                    0     3.36781   0.45688  -0.79981 
 6                    0     3.30135  -0.9603   -0.20891 
 6                    0     2.45916  -0.99289   1.08455 
 6                    0     1.0235   -0.45078   0.84443 
 1                    0     0.47886  -0.48854   1.8169 
 7                    0     0.35868  -1.31975  -0.13183 
 6                    0    -0.88364  -1.11629  -0.42436 
 1                    0    -2.15679   2.08159   0.48114 
 1                    0     0.16776   2.76811   0.24943 
 1                    0     1.40176   0.4794   -1.75375 
 1                    0     2.04855   2.10178  -1.33089 
 1                    0     3.89773   0.43263  -1.77715 
 1                    0     3.95172   1.1058   -0.10945 
 1                    0     2.84718  -1.64539  -0.96001 
 1                    0     4.32848  -1.32992   0.00234 
 1                    0     2.39795  -2.03967   1.45505 
 1                    0     2.95928  -0.3854    1.86767 
 1                    0    -1.38936  -1.86744  -1.0504 
 
 The following ModRedundant input section has been read:
 A       2       4      16 F                                                   
 D       1       2       4      16 F                                           
 D       7      13      15      16 F                                           
 D       7       9      10      11 F                                           
 D       9      10      11      12 F                                           
 D       6       7      13      15 F                                           
 

 GradGradGradGradGradGradGradGradGradGradGradGradGradGradGradGradGradGrad
 Berny optimization.
 Initialization pass.
                           ----------------------------
                           !    Initial Parameters    !
                           ! (Angstroms and Degrees)  !
 --------------------------                            --------------------------
 ! Name  Definition              Value          Derivative Info.                !
 --------------------------------------------------------------------------------
 ! R1    R(1,2)                  1.2312         estimate D2E/DX2                !
 ! R2    R(2,3)                  1.231          estimate D2E/DX2                !
 ! R3    R(2,4)                  1.5334         estimate D2E/DX2                !
 ! R4    R(4,5)                  1.3959         estimate D2E/DX2                !
 ! R5    R(4,16)                 1.4883         estimate D2E/DX2                !
 ! R6    R(5,6)                  1.3701         estimate D2E/DX2                !
 ! R7    R(5,17)                 1.1026         estimate D2E/DX2                !
 ! R8    R(6,7)                  1.4959         estimate D2E/DX2                !
 ! R9    R(6,18)                 1.0229         estimate D2E/DX2                !
 ! R10   R(7,8)                  1.1209         estimate D2E/DX2                !
 ! R11   R(7,9)                  1.5491         estimate D2E/DX2                !
 ! R12   R(7,13)                 1.538          estimate D2E/DX2                !
 ! R13   R(9,10)                 1.5407         estimate D2E/DX2                !
 ! R14   R(9,19)                 1.1108         estimate D2E/DX2                !
 ! R15   R(9,20)                 1.1107         estimate D2E/DX2                !
 ! R16   R(10,11)                1.5369         estimate D2E/DX2                !
 ! R17   R(10,21)                1.112          estimate D2E/DX2                !
 ! R18   R(10,22)                1.1129         estimate D2E/DX2                !
 ! R19   R(11,12)                1.5438         estimate D2E/DX2                !
 ! R20   R(11,23)                1.1134         estimate D2E/DX2                !
 ! R21   R(11,24)                1.1119         estimate D2E/DX2                !
 ! R22   R(12,13)                1.5533         estimate D2E/DX2                !
 ! R23   R(12,25)                1.1121         estimate D2E/DX2                !
 ! R24   R(12,26)                1.1102         estimate D2E/DX2                !
 ! R25   R(13,14)                1.1152         estimate D2E/DX2                !
 ! R26   R(13,15)                1.4663         estimate D2E/DX2                !
 ! R27   R(15,16)                1.2924         estimate D2E/DX2                !
 ! R28   R(16,27)                1.1009         estimate D2E/DX2                !
 ! A1    A(1,2,3)              123.3562         estimate D2E/DX2                !
 ! A2    A(1,2,4)              119.4541         estimate D2E/DX2                !
 ! A3    A(3,2,4)              117.1893         estimate D2E/DX2                !
 ! A4    A(2,4,5)              118.526          estimate D2E/DX2                !
 ! A5    A(2,4,16)             112.5661         Frozen                          !
 ! A6    A(5,4,16)             128.8669         estimate D2E/DX2                !
 ! A7    A(4,5,6)              125.3222         estimate D2E/DX2                !
 ! A8    A(4,5,17)             118.2893         estimate D2E/DX2                !
 ! A9    A(6,5,17)             116.3235         estimate D2E/DX2                !
 ! A10   A(5,6,7)              129.0262         estimate D2E/DX2                !
 ! A11   A(5,6,18)             121.1897         estimate D2E/DX2                !
 ! A12   A(7,6,18)             107.4169         estimate D2E/DX2                !
 ! A13   A(6,7,8)              105.2614         estimate D2E/DX2                !
 ! A14   A(6,7,9)              114.8592         estimate D2E/DX2                !
 ! A15   A(6,7,13)             113.0062         estimate D2E/DX2                !
 ! A16   A(8,7,9)              106.1187         estimate D2E/DX2                !
 ! A17   A(8,7,13)             105.9066         estimate D2E/DX2                !
 ! A18   A(9,7,13)             110.8652         estimate D2E/DX2                !
 ! A19   A(7,9,10)             109.4641         estimate D2E/DX2                !
 ! A20   A(7,9,19)             110.1191         estimate D2E/DX2                !
 ! A21   A(7,9,20)             110.1836         estimate D2E/DX2                !
 ! A22   A(10,9,19)            109.9561         estimate D2E/DX2                !
 ! A23   A(10,9,20)            109.1171         estimate D2E/DX2                !
 ! A24   A(19,9,20)            107.9781         estimate D2E/DX2                !
 ! A25   A(9,10,11)            111.1953         estimate D2E/DX2                !
 ! A26   A(9,10,21)            109.9425         estimate D2E/DX2                !
 ! A27   A(9,10,22)            109.1456         estimate D2E/DX2                !
 ! A28   A(11,10,21)           109.7802         estimate D2E/DX2                !
 ! A29   A(11,10,22)           108.7748         estimate D2E/DX2                !
 ! A30   A(21,10,22)           107.931          estimate D2E/DX2                !
 ! A31   A(10,11,12)           111.4191         estimate D2E/DX2                !
 ! A32   A(10,11,23)           109.0047         estimate D2E/DX2                !
 ! A33   A(10,11,24)           109.8552         estimate D2E/DX2                !
 ! A34   A(12,11,23)           109.2488         estimate D2E/DX2                !
 ! A35   A(12,11,24)           109.7397         estimate D2E/DX2                !
 ! A36   A(23,11,24)           107.4837         estimate D2E/DX2                !
 ! A37   A(11,12,13)           111.5509         estimate D2E/DX2                !
 ! A38   A(11,12,25)           109.2094         estimate D2E/DX2                !
 ! A39   A(11,12,26)           109.4942         estimate D2E/DX2                !
 ! A40   A(13,12,25)           109.2167         estimate D2E/DX2                !
 ! A41   A(13,12,26)           109.5392         estimate D2E/DX2                !
 ! A42   A(25,12,26)           107.7495         estimate D2E/DX2                !
 ! A43   A(7,13,12)            105.7647         estimate D2E/DX2                !
 ! A44   A(7,13,14)            110.9496         estimate D2E/DX2                !
 ! A45   A(7,13,15)            113.9088         estimate D2E/DX2                !
 ! A46   A(12,13,14)           107.7441         estimate D2E/DX2                !
 ! A47   A(12,13,15)           108.3698         estimate D2E/DX2                !
 ! A48   A(14,13,15)           109.82           estimate D2E/DX2                !
 ! A49   A(13,15,16)           119.5521         estimate D2E/DX2                !
 ! A50   A(4,16,15)            128.0905         estimate D2E/DX2                !
 ! A51   A(4,16,27)            114.3297         estimate D2E/DX2                !
 ! A52   A(15,16,27)           117.5731         estimate D2E/DX2                !
 ! D1    D(1,2,4,5)           -173.8633         estimate D2E/DX2                !
 ! D2    D(1,2,4,16)             8.2593         Frozen                          !
 ! D3    D(3,2,4,5)              6.3737         estimate D2E/DX2                !
 ! D4    D(3,2,4,16)          -171.5036         estimate D2E/DX2                !
 ! D5    D(2,4,5,6)            175.7692         estimate D2E/DX2                !
 ! D6    D(2,4,5,17)            -1.1837         estimate D2E/DX2                !
 ! D7    D(16,4,5,6)            -6.7485         estimate D2E/DX2                !
 ! D8    D(16,4,5,17)          176.2986         estimate D2E/DX2                !
 ! D9    D(2,4,16,15)         -156.2309         estimate D2E/DX2                !
 ! D10   D(2,4,16,27)           24.7476         estimate D2E/DX2                !
 ! D11   D(5,4,16,15)           26.1645         estimate D2E/DX2                !
 ! D12   D(5,4,16,27)         -152.8571         estimate D2E/DX2                !
 ! D13   D(4,5,6,7)             -5.7356         estimate D2E/DX2                !
 ! D14   D(4,5,6,18)           154.4985         estimate D2E/DX2                !
 ! D15   D(17,5,6,7)           171.2708         estimate D2E/DX2                !
 ! D16   D(17,5,6,18)          -28.495          estimate D2E/DX2                !
 ! D17   D(5,6,7,8)           -143.483          estimate D2E/DX2                !
 ! D18   D(5,6,7,9)            100.1846         estimate D2E/DX2                !
 ! D19   D(5,6,7,13)           -28.3647         estimate D2E/DX2                !
 ! D20   D(18,6,7,8)            54.1667         estimate D2E/DX2                !
 ! D21   D(18,6,7,9)           -62.1657         estimate D2E/DX2                !
 ! D22   D(18,6,7,13)          169.285          estimate D2E/DX2                !
 ! D23   D(6,7,9,10)           168.4812         estimate D2E/DX2                !
 ! D24   D(6,7,9,19)           -70.523          estimate D2E/DX2                !
 ! D25   D(6,7,9,20)            48.4817         estimate D2E/DX2                !
 ! D26   D(8,7,9,10)            52.6407         estimate D2E/DX2                !
 ! D27   D(8,7,9,19)           173.6365         estimate D2E/DX2                !
 ! D28   D(8,7,9,20)           -67.3588         estimate D2E/DX2                !
 ! D29   D(13,7,9,10)          -61.9077         estimate D2E/DX2                !
 ! D30   D(13,7,9,19)           59.0882         estimate D2E/DX2                !
 ! D31   D(13,7,9,20)          178.0928         estimate D2E/DX2                !
 ! D32   D(6,7,13,12)         -166.0735         estimate D2E/DX2                !
 ! D33   D(6,7,13,14)          -49.5108         estimate D2E/DX2                !
 ! D34   D(6,7,13,15)           75.0217         Frozen                          !
 ! D35   D(8,7,13,12)          -51.3425         estimate D2E/DX2                !
 ! D36   D(8,7,13,14)           65.2202         estimate D2E/DX2                !
 ! D37   D(8,7,13,15)         -170.2473         estimate D2E/DX2                !
 ! D38   D(9,7,13,12)           63.3387         estimate D2E/DX2                !
 ! D39   D(9,7,13,14)          179.9014         estimate D2E/DX2                !
 ! D40   D(9,7,13,15)          -55.5662         estimate D2E/DX2                !
 ! D41   D(7,9,10,11)           54.8128         Frozen                          !
 ! D42   D(7,9,10,21)          176.6036         estimate D2E/DX2                !
 ! D43   D(7,9,10,22)          -65.1898         estimate D2E/DX2                !
 ! D44   D(19,9,10,11)         -66.2818         estimate D2E/DX2                !
 ! D45   D(19,9,10,21)          55.509          estimate D2E/DX2                !
 ! D46   D(19,9,10,22)         173.7155         estimate D2E/DX2                !
 ! D47   D(20,9,10,11)         175.4634         estimate D2E/DX2                !
 ! D48   D(20,9,10,21)         -62.7458         estimate D2E/DX2                !
 ! D49   D(20,9,10,22)          55.4608         estimate D2E/DX2                !
 ! D50   D(9,10,11,12)         -52.8226         Frozen                          !
 ! D51   D(9,10,11,23)          67.8182         estimate D2E/DX2                !
 ! D52   D(9,10,11,24)        -174.652          estimate D2E/DX2                !
 ! D53   D(21,10,11,12)       -174.7078         estimate D2E/DX2                !
 ! D54   D(21,10,11,23)        -54.0671         estimate D2E/DX2                !
 ! D55   D(21,10,11,24)         63.4628         estimate D2E/DX2                !
 ! D56   D(22,10,11,12)         67.3997         estimate D2E/DX2                !
 ! D57   D(22,10,11,23)       -171.9596         estimate D2E/DX2                !
 ! D58   D(22,10,11,24)        -54.4297         estimate D2E/DX2                !
 ! D59   D(10,11,12,13)         56.6947         estimate D2E/DX2                !
 ! D60   D(10,11,12,25)        177.5152         estimate D2E/DX2                !
 ! D61   D(10,11,12,26)        -64.7226         estimate D2E/DX2                !
 ! D62   D(23,11,12,13)        -63.8028         estimate D2E/DX2                !
 ! D63   D(23,11,12,25)         57.0177         estimate D2E/DX2                !
 ! D64   D(23,11,12,26)        174.78           estimate D2E/DX2                !
 ! D65   D(24,11,12,13)        178.591          estimate D2E/DX2                !
 ! D66   D(24,11,12,25)        -60.5885         estimate D2E/DX2                !
 ! D67   D(24,11,12,26)         57.1737         estimate D2E/DX2                !
 ! D68   D(11,12,13,7)         -60.4629         estimate D2E/DX2                !
 ! D69   D(11,12,13,14)       -179.1753         estimate D2E/DX2                !
 ! D70   D(11,12,13,15)         62.0494         estimate D2E/DX2                !
 ! D71   D(25,12,13,7)         178.7208         estimate D2E/DX2                !
 ! D72   D(25,12,13,14)         60.0084         estimate D2E/DX2                !
 ! D73   D(25,12,13,15)        -58.7669         estimate D2E/DX2                !
 ! D74   D(26,12,13,7)          60.9282         estimate D2E/DX2                !
 ! D75   D(26,12,13,14)        -57.7842         estimate D2E/DX2                !
 ! D76   D(26,12,13,15)       -176.5595         estimate D2E/DX2                !
 ! D77   D(7,13,15,16)         -67.1599         Frozen                          !
 ! D78   D(12,13,15,16)        175.4297         estimate D2E/DX2                !
 ! D79   D(14,13,15,16)         57.9758         estimate D2E/DX2                !
 ! D80   D(13,15,16,4)           9.3486         estimate D2E/DX2                !
 ! D81   D(13,15,16,27)       -171.6572         estimate D2E/DX2                !
 --------------------------------------------------------------------------------
 Trust Radius=3.00D-01 FncErr=1.00D-07 GrdErr=1.00D-07 EigMax=2.50D+02 EigMin=1.00D-04
 Number of steps in this run=     20 maximum allowed number of steps=    162.
 GradGradGradGradGradGradGradGradGradGradGradGradGradGradGradGradGradGrad

                          Input orientation:                          
 ---------------------------------------------------------------------
 Center     Atomic      Atomic             Coordinates (Angstroms)
 Number     Number       Type             X           Y           Z
 ---------------------------------------------------------------------
      1          8           0       -3.582510   -1.482130   -0.205260
      2          7           0       -3.234780   -0.311830   -0.046260
      3          8           0       -4.029670    0.616000    0.103850
      4          6           0       -1.741460    0.036320   -0.036130
      5          6           0       -1.363880    1.343850    0.274310
      6          7           0       -0.073660    1.786180    0.403960
      7          6           0        1.199260    1.001200    0.368590
      8          1           0        1.869610    1.492060    1.121020
      9          6           0        1.958110    1.051510   -0.981010
     10          6           0        3.367810    0.456880   -0.799810
     11          6           0        3.301350   -0.960300   -0.208910
     12          6           0        2.459160   -0.992890    1.084550
     13          6           0        1.023500   -0.450780    0.844430
     14          1           0        0.478860   -0.488540    1.816900
     15          7           0        0.358680   -1.319750   -0.131830
     16          6           0       -0.883640   -1.116290   -0.424360
     17          1           0       -2.156790    2.081590    0.481140
     18          1           0        0.167760    2.768110    0.249430
     19          1           0        1.401760    0.479400   -1.753750
     20          1           0        2.048550    2.101780   -1.330890
     21          1           0        3.897730    0.432630   -1.777150
     22          1           0        3.951720    1.105800   -0.109450
     23          1           0        2.847180   -1.645390   -0.960010
     24          1           0        4.328480   -1.329920    0.002340
     25          1           0        2.397950   -2.039670    1.455050
     26          1           0        2.959280   -0.385400    1.867670
     27          1           0       -1.389360   -1.867440   -1.050400
 ---------------------------------------------------------------------
                    Distance matrix (angstroms):
                    1          2          3          4          5
     1  O    0.000000
     2  N    1.231178   0.000000
     3  O    2.167406   1.230956   0.000000
     4  C    2.392438   1.533400   2.364641   0.000000
     5  C    3.624703   2.518791   2.768620   1.395913   0.000000
     6  N    4.833738   3.820605   4.136351   2.457081   1.370085
     7  C    5.418630   4.642936   5.249779   3.121318   2.587660
     8  H    6.350625   5.538173   6.050093   4.061773   3.345795
     9  C    6.141628   5.449639   6.100828   3.950978   3.563272
    10  C    7.240179   6.689764   7.454169   5.183119   4.932478
    11  C    6.903611   6.570233   7.505091   5.143252   5.225608
    12  C    6.197156   5.844957   6.756864   4.467707   4.553293
    13  C    4.835376   4.352653   5.217375   2.942390   3.040611
    14  H    4.644468   4.158571   4.947867   2.939221   3.022073
    15  N    3.945217   3.733119   4.802113   2.501734   3.197957
    16  C    2.732351   2.513558   3.630060   1.488317   2.602126
    17  H    3.899221   2.677438   2.407900   2.150162   1.102608
    18  H    5.686458   4.598994   4.719236   3.345047   2.091664
    19  H    5.575694   5.003905   5.741931   3.609206   3.536816
    20  H    6.769069   5.948896   6.419562   4.506296   3.846531
    21  H    7.879793   7.377188   8.149568   5.915123   5.720433
    22  H    7.966880   7.325261   7.999249   5.793226   5.334749
    23  H    6.475895   6.293136   7.316881   4.973663   5.309626
    24  H    7.915177   7.631630   8.582283   6.221918   6.294917
    25  H    6.231644   6.080050   7.084675   4.864984   5.195548
    26  H    6.949451   6.483434   7.277313   5.089131   4.921261
    27  H    2.381729   2.614153   3.804077   2.185640   3.473887
                    6          7          8          9         10
     6  N    0.000000
     7  C    1.495918   0.000000
     8  H    2.092123   1.120921   0.000000
     9  C    2.566315   1.549130   2.149522   0.000000
    10  C    3.880698   2.522707   2.646845   1.540673   0.000000
    11  C    4.394252   2.932537   3.135708   2.539254   1.536873
    12  C    3.821205   2.465024   2.554188   2.949095   2.545249
    13  C    2.530171   1.538038   2.137061   2.542165   3.003858
    14  H    2.734233   2.199069   2.518176   3.519692   4.010863
    15  N    3.181319   2.518691   3.429113   2.983648   3.557735
    16  C    3.125142   3.074249   4.095372   3.617286   4.548698
    17  H    2.105387   3.527461   4.119331   4.486797   5.899298
    18  H    1.022912   2.049430   2.298753   2.768763   4.084484
    19  H    2.922371   2.194905   3.083613   1.110839   2.185374
    20  H    2.759182   2.195633   2.532911   1.110704   2.174440
    21  H    4.728771   3.494168   3.692567   2.186087   1.112024
    22  H    4.114631   2.795621   2.449170   2.176475   1.112944
    23  H    4.708226   3.388991   3.889720   2.839746   2.171695
    24  H    5.408347   3.919219   3.906540   3.500977   2.181510
    25  H    4.674481   3.444437   3.586619   3.960207   3.501112
    26  H    4.007110   2.695843   2.295588   3.343954   2.826974
    27  H    4.146706   4.116258   5.159670   4.441918   5.300559
                   11         12         13         14         15
    11  C    0.000000
    12  C    1.543822   0.000000
    13  C    2.560808   1.553274   0.000000
    14  H    3.506125   2.170782   1.115238   0.000000
    15  N    2.965544   2.449170   1.466349   2.122004   0.000000
    16  C    4.193434   3.669652   2.385354   2.696984   1.292412
    17  H    6.286538   5.578846   4.081559   3.916181   4.274627
    18  H    4.891881   4.482528   3.383426   3.627605   4.110038
    19  H    2.840371   3.367741   2.785472   3.812898   2.637344
    20  H    3.493520   3.947142   3.506894   4.368325   4.000034
    21  H    2.180665   3.505841   3.989272   5.045238   4.278176
    22  H    2.168327   2.838639   3.450696   4.279428   4.335174
    23  H    1.113450   2.180950   2.830001   3.828638   2.642831
    24  H    1.111864   2.186121   3.522058   4.338217   3.972080
    25  H    2.179434   1.112099   2.187816   2.493962   2.682367
    26  H    2.181675   1.110154   2.190557   2.483083   3.410884
    27  H    4.851162   4.487088   3.379231   3.689583   2.049239
                   16         17         18         19         20
    16  C    0.000000
    17  H    3.559112   0.000000
    18  H    4.080196   2.434858   0.000000
    19  H    3.088132   4.497224   3.282328   0.000000
    20  H    4.446966   4.579164   2.545344   1.797016   0.000000
    21  H    5.204872   6.669045   4.845015   2.496518   2.530746
    22  H    5.330812   6.214085   4.148545   3.098128   2.471022
    23  H    3.806033   6.403672   5.302926   2.689609   3.849240
    24  H    5.233919   7.343458   5.845211   3.863053   4.330375
    25  H    3.892768   6.219240   5.435257   4.199346   5.003514
    26  H    4.533832   5.846595   4.511752   4.035893   4.152864
    27  H    1.100866   4.304579   5.059892   3.713854   5.258575
                   21         22         23         24         25
    21  H    0.000000
    22  H    1.799249   0.000000
    23  H    2.467699   3.084235   0.000000
    24  H    2.541400   2.467221   1.794405   0.000000
    25  H    4.336903   3.841333   2.487927   2.518146   0.000000
    26  H    3.851568   2.667886   3.097727   2.499256   1.794981
    27  H    5.811352   6.184875   4.243318   5.838740   4.544300
                   26         27
    26  H    0.000000
    27  H    5.442632   0.000000
 Symmetry turned off by external request.
 Stoichiometry    C9H13N3O2
 Framework group  C1[X(C9H13N3O2)]
 Deg. of freedom    75
 Full point group                 C1      NOp   1
 Rotational constants (GHZ):           1.6571378           0.4031366           0.3567708
 Standard basis: 6-31G(d) (6D, 7F)
   236 basis functions,   444 primitive gaussians,   236 cartesian basis functions
    52 alpha electrons       52 beta electrons
       nuclear repulsion energy       917.8231273814 Hartrees.
 NAtoms=   27 NActive=   27 NUniq=   27 SFac= 1.00D+00 NAtFMM=   60 NAOKFM=F Big=F
 Integral buffers will be    131072 words long.
 Raffenetti 1 integral format.
 Two-electron integral symmetry is turned off.
 One-electron integrals computed using PRISM.
 NBasis=   236 RedAO= T EigKep=  1.25D-03  NBF=   236
 NBsUse=   236 1.00D-06 EigRej= -1.00D+00 NBFU=   236
 ExpMin= 1.61D-01 ExpMax= 5.48D+03 ExpMxC= 8.25D+02 IAcc=3 IRadAn=         5 AccDes= 0.00D+00
 Harris functional with IExCor=  205 and IRadAn=       5 diagonalized for initial guess.
 HarFok:  IExCor=  205 AccDes= 0.00D+00 IRadAn=         5 IDoV= 1 UseB2=F ITyADJ=14
 ICtDFT=  3500011 ScaDFX=  1.000000  1.000000  1.000000  1.000000
 FoFCou: FMM=F IPFlag=           0 FMFlag=      100000 FMFlg1=           0
         NFxFlg=           0 DoJE=T BraDBF=F KetDBF=T FulRan=T
         wScrn=  0.000000 ICntrl=       500 IOpCl=  0 I1Cent=   200000004 NGrid=           0
         NMat0=    1 NMatS0=      1 NMatT0=    0 NMatD0=    1 NMtDS0=    0 NMtDT0=    0
 Symmetry not used in FoFCou.
 Keep R1 ints in memory in canonical form, NReq=397720213.
 Requested convergence on RMS density matrix=1.00D-08 within 128 cycles.
 Requested convergence on MAX density matrix=1.00D-06.
 Requested convergence on             energy=1.00D-06.
 No special actions if energy rises.
 SCF Done:  E(RHF) =  -661.279973875     A.U. after   16 cycles
            NFock= 16  Conv=0.89D-08     -V/T= 2.0037
 ExpMin= 1.61D-01 ExpMax= 5.48D+03 ExpMxC= 8.25D+02 IAcc=3 IRadAn=         5 AccDes= 0.00D+00
 HarFok:  IExCor=  205 AccDes= 0.00D+00 IRadAn=         5 IDoV=-2 UseB2=F ITyADJ=14
 ICtDFT= 12500011 ScaDFX=  1.000000  1.000000  1.000000  1.000000
 Range of M.O.s used for correlation:    15   236
 NBasis=   236 NAE=    52 NBE=    52 NFC=    14 NFV=     0
 NROrb=    222 NOA=    38 NOB=    38 NVA=   184 NVB=   184
 Fully direct method using O(ONN) memory.
 JobTyp=1 Pass  1:  I=  15 to  52 NPSUse=  4 ParTrn=T ParDer=T DoDerP=T.
 Spin components of T(2) and E(2):
     alpha-alpha T2 =       0.9197519853D-01 E2=     -0.2717491542D+00
     alpha-beta  T2 =       0.4998823070D+00 E2=     -0.1493959568D+01
     beta-beta   T2 =       0.9197519853D-01 E2=     -0.2717491542D+00
 ANorm=    0.1297625795D+01
 E2 =    -0.2037457876D+01 EUMP2 =    -0.66331743175121D+03
          IDoAtm=111111111111111111111111111
          Differentiating once with respect to electric field.
                with respect to dipole field.
          Differentiating once with respect to nuclear coordinates.
 Keep R1 ints in memory in canonical form, NReq=397723379.
          There are     1 degrees of freedom in the 1st order CPHF.  IDoFFX=0 NUNeed=     1.
 LinEq1:  Iter=  0 NonCon=     1 RMS=4.61D-03 Max=1.12D-01 NDo=     1
 AX will form     1 AO Fock derivatives at one time.
 LinEq1:  Iter=  1 NonCon=     1 RMS=1.56D-03 Max=2.76D-02 NDo=     1
 LinEq1:  Iter=  2 NonCon=     1 RMS=6.41D-04 Max=1.80D-02 NDo=     1
 LinEq1:  Iter=  3 NonCon=     1 RMS=2.94D-04 Max=8.97D-03 NDo=     1
 LinEq1:  Iter=  4 NonCon=     1 RMS=9.03D-05 Max=2.10D-03 NDo=     1
 LinEq1:  Iter=  5 NonCon=     1 RMS=3.73D-05 Max=1.86D-03 NDo=     1
 LinEq1:  Iter=  6 NonCon=     1 RMS=1.52D-05 Max=5.94D-04 NDo=     1
 LinEq1:  Iter=  7 NonCon=     1 RMS=5.78D-06 Max=9.45D-05 NDo=     1
 LinEq1:  Iter=  8 NonCon=     1 RMS=2.28D-06 Max=5.03D-05 NDo=     1
 LinEq1:  Iter=  9 NonCon=     1 RMS=8.05D-07 Max=2.11D-05 NDo=     1
 LinEq1:  Iter= 10 NonCon=     1 RMS=4.00D-07 Max=1.53D-05 NDo=     1
 LinEq1:  Iter= 11 NonCon=     1 RMS=1.49D-07 Max=5.46D-06 NDo=     1
 LinEq1:  Iter= 12 NonCon=     1 RMS=5.35D-08 Max=8.64D-07 NDo=     1
 LinEq1:  Iter= 13 NonCon=     1 RMS=1.69D-08 Max=3.30D-07 NDo=     1
 LinEq1:  Iter= 14 NonCon=     1 RMS=5.32D-09 Max=1.37D-07 NDo=     1
 LinEq1:  Iter= 15 NonCon=     1 RMS=1.96D-09 Max=4.70D-08 NDo=     1
 LinEq1:  Iter= 16 NonCon=     1 RMS=7.34D-10 Max=1.25D-08 NDo=     1
 LinEq1:  Iter= 17 NonCon=     1 RMS=2.46D-10 Max=3.72D-09 NDo=     1
 LinEq1:  Iter= 18 NonCon=     1 RMS=8.48D-11 Max=1.00D-09 NDo=     1
 LinEq1:  Iter= 19 NonCon=     0 RMS=2.87D-11 Max=3.73D-10 NDo=     1
 Linear equations converged to 1.000D-10 1.000D-09 after    19 iterations.
 End of Minotr F.D. properties file   721 does not exist.
 End of Minotr F.D. properties file   722 does not exist.
 End of Minotr F.D. properties file   788 does not exist.

 **********************************************************************

            Population analysis using the SCF Density.

 **********************************************************************

 Alpha  occ. eigenvalues --  -20.59839 -20.59288 -15.85143 -15.63393 -15.56653
 Alpha  occ. eigenvalues --  -11.36008 -11.30270 -11.30117 -11.30117 -11.27682
 Alpha  occ. eigenvalues --  -11.24627 -11.23870 -11.23375 -11.22829  -1.58389
 Alpha  occ. eigenvalues --   -1.37862  -1.28603  -1.22626  -1.13239  -1.08266
 Alpha  occ. eigenvalues --   -1.01810  -1.00610  -0.93846  -0.88645  -0.84904
 Alpha  occ. eigenvalues --   -0.81522  -0.77907  -0.76918  -0.74432  -0.71046
 Alpha  occ. eigenvalues --   -0.70262  -0.69658  -0.67347  -0.64403  -0.63182
 Alpha  occ. eigenvalues --   -0.61672  -0.60474  -0.57429  -0.56445  -0.54832
 Alpha  occ. eigenvalues --   -0.53670  -0.50735  -0.49395  -0.48568  -0.47721
 Alpha  occ. eigenvalues --   -0.47646  -0.46118  -0.45636  -0.43928  -0.42034
 Alpha  occ. eigenvalues --   -0.39732  -0.33766
 Alpha virt. eigenvalues --    0.07251   0.12039   0.18031   0.21350   0.23441
 Alpha virt. eigenvalues --    0.24267   0.26231   0.27791   0.28556   0.28840
 Alpha virt. eigenvalues --    0.29814   0.31180   0.31831   0.32305   0.33374
 Alpha virt. eigenvalues --    0.33756   0.34082   0.35442   0.37614   0.38764
 Alpha virt. eigenvalues --    0.40633   0.41781   0.44604   0.45267   0.45468
 Alpha virt. eigenvalues --    0.46256   0.49750   0.53147   0.57427   0.59031
 Alpha virt. eigenvalues --    0.63235   0.68771   0.69187   0.72191   0.73934
 Alpha virt. eigenvalues --    0.74717   0.75769   0.75852   0.77784   0.79302
 Alpha virt. eigenvalues --    0.80748   0.83621   0.85066   0.85376   0.87985
 Alpha virt. eigenvalues --    0.89163   0.90279   0.90625   0.91771   0.94000
 Alpha virt. eigenvalues --    0.95231   0.97181   0.98878   1.00394   1.02111
 Alpha virt. eigenvalues --    1.02794   1.04888   1.06640   1.07000   1.08441
 Alpha virt. eigenvalues --    1.09765   1.10491   1.11188   1.12118   1.13271
 Alpha virt. eigenvalues --    1.13783   1.14152   1.15568   1.16466   1.17196
 Alpha virt. eigenvalues --    1.18015   1.20054   1.21226   1.22373   1.22653
 Alpha virt. eigenvalues --    1.23947   1.24228   1.25699   1.26940   1.27475
 Alpha virt. eigenvalues --    1.29428   1.31411   1.32997   1.36495   1.39637
 Alpha virt. eigenvalues --    1.42344   1.46024   1.47771   1.49478   1.52717
 Alpha virt. eigenvalues --    1.54895   1.55640   1.59896   1.61792   1.65338
 Alpha virt. eigenvalues --    1.68517   1.70196   1.72902   1.73742   1.77072
 Alpha virt. eigenvalues --    1.77434   1.81015   1.84379   1.89025   1.92440
 Alpha virt. eigenvalues --    1.94121   1.95915   1.97499   1.99040   2.00602
 Alpha virt. eigenvalues --    2.02819   2.03508   2.06018   2.08627   2.12057
 Alpha virt. eigenvalues --    2.12853   2.13933   2.17680   2.18892   2.19578
 Alpha virt. eigenvalues --    2.20596   2.21936   2.24054   2.25312   2.26360
 Alpha virt. eigenvalues --    2.29396   2.32232   2.33441   2.35644   2.35755
 Alpha virt. eigenvalues --    2.38736   2.39518   2.41901   2.42881   2.46306
 Alpha virt. eigenvalues --    2.49006   2.49998   2.50878   2.56746   2.57364
 Alpha virt. eigenvalues --    2.60675   2.62798   2.65725   2.68489   2.68663
 Alpha virt. eigenvalues --    2.69595   2.70054   2.74236   2.78028   2.81017
 Alpha virt. eigenvalues --    2.85285   2.86963   2.89403   2.91227   2.94960
 Alpha virt. eigenvalues --    2.97748   2.98396   3.01997   3.03611   3.05669
 Alpha virt. eigenvalues --    3.07168   3.12718   3.19353   3.22538   3.27442
 Alpha virt. eigenvalues --    3.30519   3.33795   3.37002   3.42823   3.60347
 Alpha virt. eigenvalues --    4.09867   4.22969   4.32050   4.36289   4.42897
 Alpha virt. eigenvalues --    4.52502   4.59458   4.60118   4.70797   4.77469
 Alpha virt. eigenvalues --    4.96613   4.99235   5.02972   5.09794
          Condensed to atoms (all electrons):
               1          2          3          4          5          6
     1  O    8.300988   0.314195  -0.090942  -0.074688   0.003123  -0.000011
     2  N    0.314195   5.688479   0.305932   0.264428  -0.041246   0.000811
     3  O   -0.090942   0.305932   8.331937  -0.089517   0.008369   0.000434
     4  C   -0.074688   0.264428  -0.089517   5.227279   0.579126  -0.049215
     5  C    0.003123  -0.041246   0.008369   0.579126   4.658081   0.308840
     6  N   -0.000011   0.000811   0.000434  -0.049215   0.308840   7.186259
     7  C    0.000002  -0.000099   0.000002   0.003975  -0.029389   0.198718
     8  H   -0.000000   0.000002  -0.000000  -0.000148   0.002302  -0.049592
     9  C   -0.000000  -0.000004   0.000000   0.000409   0.001767  -0.056763
    10  C   -0.000000   0.000000  -0.000000  -0.000017  -0.000067   0.003347
    11  C   -0.000000  -0.000000  -0.000000  -0.000017   0.000017  -0.000155
    12  C   -0.000000   0.000002  -0.000000  -0.000093  -0.000147   0.003561
    13  C   -0.000022  -0.000029  -0.000003  -0.010530   0.000501  -0.043830
    14  H   -0.000002  -0.000054   0.000001   0.002782   0.004729  -0.005492
    15  N    0.000194   0.001799  -0.000019  -0.063036  -0.004006   0.002100
    16  C    0.002776  -0.033919   0.002348   0.321182  -0.041167  -0.001059
    17  H    0.000104  -0.003948   0.011482  -0.025780   0.375510  -0.033045
    18  H    0.000000  -0.000034   0.000007   0.001021  -0.024247   0.328131
    19  H    0.000000   0.000000   0.000000  -0.000783   0.000680   0.000592
    20  H    0.000000  -0.000000   0.000000  -0.000029   0.000037  -0.001647
    21  H   -0.000000  -0.000000   0.000000   0.000000   0.000001  -0.000059
    22  H   -0.000000   0.000000  -0.000000  -0.000000  -0.000002  -0.000097
    23  H    0.000000  -0.000000   0.000000   0.000025  -0.000000  -0.000024
    24  H    0.000000   0.000000   0.000000   0.000000  -0.000000   0.000004
    25  H    0.000000  -0.000000   0.000000   0.000019  -0.000000  -0.000070
    26  H    0.000000  -0.000000   0.000000   0.000005  -0.000000  -0.000066
    27  H    0.005283  -0.000411   0.000001  -0.063047   0.001788   0.000041
               7          8          9         10         11         12
     1  O    0.000002  -0.000000  -0.000000  -0.000000  -0.000000  -0.000000
     2  N   -0.000099   0.000002  -0.000004   0.000000  -0.000000   0.000002
     3  O    0.000002  -0.000000   0.000000  -0.000000  -0.000000  -0.000000
     4  C    0.003975  -0.000148   0.000409  -0.000017  -0.000017  -0.000093
     5  C   -0.029389   0.002302   0.001767  -0.000067   0.000017  -0.000147
     6  N    0.198718  -0.049592  -0.056763   0.003347  -0.000155   0.003561
     7  C    5.006673   0.416309   0.340666  -0.049239  -0.007730  -0.063956
     8  H    0.416309   0.546762  -0.060444   0.001409  -0.000321  -0.002900
     9  C    0.340666  -0.060444   5.181143   0.318069  -0.053047  -0.006137
    10  C   -0.049239   0.001409   0.318069   5.126735   0.332757  -0.060229
    11  C   -0.007730  -0.000321  -0.053047   0.332757   5.124096   0.330702
    12  C   -0.063956  -0.002900  -0.006137  -0.060229   0.330702   5.136640
    13  C    0.330754  -0.039837  -0.050866  -0.001678  -0.047949   0.368228
    14  H   -0.040408  -0.000935   0.003865  -0.000389   0.003967  -0.040778
    15  N   -0.058451   0.003989  -0.012600   0.001449  -0.007834  -0.074007
    16  C   -0.001721  -0.000015  -0.000737  -0.000035   0.000009   0.002421
    17  H    0.001376  -0.000022  -0.000062   0.000001   0.000000   0.000001
    18  H   -0.028330  -0.002729   0.000834  -0.000119   0.000011  -0.000135
    19  H   -0.035075   0.004095   0.386058  -0.032643  -0.002247   0.000616
    20  H   -0.041707  -0.001824   0.397215  -0.037356   0.004133  -0.000362
    21  H    0.004042  -0.000080  -0.035844   0.400133  -0.035850   0.004216
    22  H   -0.004246   0.003517  -0.045710   0.395931  -0.045597  -0.001235
    23  H    0.000430   0.000034  -0.002005  -0.040090   0.396686  -0.036609
    24  H   -0.000139  -0.000099   0.004397  -0.038497   0.400260  -0.037902
    25  H    0.004975  -0.000005  -0.000371   0.004098  -0.033865   0.395439
    26  H   -0.004442   0.001587   0.001048  -0.002424  -0.042336   0.394572
    27  H   -0.000388   0.000008  -0.000055   0.000005   0.000005  -0.000021
              13         14         15         16         17         18
     1  O   -0.000022  -0.000002   0.000194   0.002776   0.000104   0.000000
     2  N   -0.000029  -0.000054   0.001799  -0.033919  -0.003948  -0.000034
     3  O   -0.000003   0.000001  -0.000019   0.002348   0.011482   0.000007
     4  C   -0.010530   0.002782  -0.063036   0.321182  -0.025780   0.001021
     5  C    0.000501   0.004729  -0.004006  -0.041167   0.375510  -0.024247
     6  N   -0.043830  -0.005492   0.002100  -0.001059  -0.033045   0.328131
     7  C    0.330754  -0.040408  -0.058451  -0.001721   0.001376  -0.028330
     8  H   -0.039837  -0.000935   0.003989  -0.000015  -0.000022  -0.002729
     9  C   -0.050866   0.003865  -0.012600  -0.000737  -0.000062   0.000834
    10  C   -0.001678  -0.000389   0.001449  -0.000035   0.000001  -0.000119
    11  C   -0.047949   0.003967  -0.007834   0.000009   0.000000   0.000011
    12  C    0.368228  -0.040778  -0.074007   0.002421   0.000001  -0.000135
    13  C    5.022009   0.402498   0.241854  -0.069828  -0.000039   0.003618
    14  H    0.402498   0.519182  -0.035612  -0.004849   0.000061   0.000007
    15  N    0.241854  -0.035612   6.940222   0.584730  -0.000066  -0.000119
    16  C   -0.069828  -0.004849   0.584730   4.710938   0.001617  -0.000185
    17  H   -0.000039   0.000061  -0.000066   0.001617   0.385174  -0.001825
    18  H    0.003618   0.000007  -0.000119  -0.000185  -0.001825   0.324546
    19  H   -0.006244   0.000067   0.006973   0.002475   0.000011  -0.000125
    20  H    0.003859  -0.000050   0.000076  -0.000030  -0.000001   0.002831
    21  H   -0.000381   0.000009  -0.000030   0.000002  -0.000000  -0.000000
    22  H    0.000326  -0.000044   0.000003  -0.000001   0.000000   0.000002
    23  H   -0.005879   0.000009   0.006853   0.000065   0.000000   0.000000
    24  H    0.004152  -0.000059   0.000044   0.000005   0.000000  -0.000000
    25  H   -0.034375  -0.002669   0.000829  -0.000055  -0.000000   0.000002
    26  H   -0.044880  -0.000903   0.004184  -0.000052   0.000000  -0.000001
    27  H    0.004742  -0.000162  -0.038780   0.401225  -0.000058   0.000002
              19         20         21         22         23         24
     1  O    0.000000   0.000000  -0.000000  -0.000000   0.000000   0.000000
     2  N    0.000000  -0.000000  -0.000000   0.000000  -0.000000   0.000000
     3  O    0.000000   0.000000   0.000000  -0.000000   0.000000   0.000000
     4  C   -0.000783  -0.000029   0.000000  -0.000000   0.000025   0.000000
     5  C    0.000680   0.000037   0.000001  -0.000002  -0.000000  -0.000000
     6  N    0.000592  -0.001647  -0.000059  -0.000097  -0.000024   0.000004
     7  C   -0.035075  -0.041707   0.004042  -0.004246   0.000430  -0.000139
     8  H    0.004095  -0.001824  -0.000080   0.003517   0.000034  -0.000099
     9  C    0.386058   0.397215  -0.035844  -0.045710  -0.002005   0.004397
    10  C   -0.032643  -0.037356   0.400133   0.395931  -0.040090  -0.038497
    11  C   -0.002247   0.004133  -0.035850  -0.045597   0.396686   0.400260
    12  C    0.000616  -0.000362   0.004216  -0.001235  -0.036609  -0.037902
    13  C   -0.006244   0.003859  -0.000381   0.000326  -0.005879   0.004152
    14  H    0.000067  -0.000050   0.000009  -0.000044   0.000009  -0.000059
    15  N    0.006973   0.000076  -0.000030   0.000003   0.006853   0.000044
    16  C    0.002475  -0.000030   0.000002  -0.000001   0.000065   0.000005
    17  H    0.000011  -0.000001  -0.000000   0.000000   0.000000   0.000000
    18  H   -0.000125   0.002831  -0.000000   0.000002   0.000000  -0.000000
    19  H    0.506954  -0.023986  -0.002590   0.003759   0.001645  -0.000070
    20  H   -0.023986   0.550202  -0.002629  -0.002957  -0.000049  -0.000090
    21  H   -0.002590  -0.002629   0.526175  -0.024707  -0.002813  -0.002066
    22  H    0.003759  -0.002957  -0.024707   0.569045   0.004059  -0.003599
    23  H    0.001645  -0.000049  -0.002813   0.004059   0.509289  -0.024978
    24  H   -0.000070  -0.000090  -0.002066  -0.003599  -0.024978   0.541246
    25  H   -0.000027   0.000011  -0.000086  -0.000083  -0.002085  -0.002384
    26  H    0.000023  -0.000035  -0.000074   0.002466   0.003822  -0.002758
    27  H    0.000072   0.000000  -0.000000   0.000000  -0.000021  -0.000000
              25         26         27
     1  O    0.000000   0.000000   0.005283
     2  N   -0.000000  -0.000000  -0.000411
     3  O    0.000000   0.000000   0.000001
     4  C    0.000019   0.000005  -0.063047
     5  C   -0.000000  -0.000000   0.001788
     6  N   -0.000070  -0.000066   0.000041
     7  C    0.004975  -0.004442  -0.000388
     8  H   -0.000005   0.001587   0.000008
     9  C   -0.000371   0.001048  -0.000055
    10  C    0.004098  -0.002424   0.000005
    11  C   -0.033865  -0.042336   0.000005
    12  C    0.395439   0.394572  -0.000021
    13  C   -0.034375  -0.044880   0.004742
    14  H   -0.002669  -0.000903  -0.000162
    15  N    0.000829   0.004184  -0.038780
    16  C   -0.000055  -0.000052   0.401225
    17  H   -0.000000   0.000000  -0.000058
    18  H    0.000002  -0.000001   0.000002
    19  H   -0.000027   0.000023   0.000072
    20  H    0.000011  -0.000035   0.000000
    21  H   -0.000086  -0.000074  -0.000000
    22  H   -0.000083   0.002466   0.000000
    23  H   -0.002085   0.003822  -0.000021
    24  H   -0.002384  -0.002758  -0.000000
    25  H    0.509869  -0.023132  -0.000010
    26  H   -0.023132   0.561546   0.000001
    27  H   -0.000010   0.000001   0.444427
 Mulliken charges:
               1
     1  O   -0.461001
     2  N    0.504096
     3  O   -0.480032
     4  C   -0.023352
     5  C    0.195400
     6  N   -0.791711
     7  C    0.057399
     8  H    0.178936
     9  C   -0.310827
    10  C   -0.321152
    11  C   -0.315695
    12  C   -0.311887
    13  C   -0.026171
    14  H    0.195228
    15  N   -0.500741
    16  C    0.123861
    17  H    0.289511
    18  H    0.396836
    19  H    0.189771
    20  H    0.154389
    21  H    0.172630
    22  H    0.149169
    23  H    0.191635
    24  H    0.162532
    25  H    0.183974
    26  H    0.151849
    27  H    0.245353
 Sum of Mulliken charges =  -0.00000
 Mulliken charges with hydrogens summed into heavy atoms:
               1
     1  O   -0.461001
     2  N    0.504096
     3  O   -0.480032
     4  C   -0.023352
     5  C    0.484911
     6  N   -0.394875
     7  C    0.236336
     9  C    0.033333
    10  C    0.000647
    11  C    0.038472
    12  C    0.023936
    13  C    0.169057
    15  N   -0.500741
    16  C    0.369214
 Electronic spatial extent (au):  <R**2>=           3114.2498
 Charge=             -0.0000 electrons
 Dipole moment (field-independent basis, Debye):
    X=              5.3325    Y=              4.6269    Z=              0.5464  Tot=              7.0811
 Quadrupole moment (field-independent basis, Debye-Ang):
   XX=           -105.2178   YY=            -80.0652   ZZ=            -82.2821
   XY=             -2.1281   XZ=              0.7459   YZ=              0.1415
 Traceless Quadrupole moment (field-independent basis, Debye-Ang):
   XX=            -16.0294   YY=              9.1232   ZZ=              6.9062
   XY=             -2.1281   XZ=              0.7459   YZ=              0.1415
 Octapole moment (field-independent basis, Debye-Ang**2):
  XXX=             99.4220  YYY=             38.3177  ZZZ=             -5.0319  XYY=             -1.8971
  XXY=             12.8577  XXZ=              0.5193  XZZ=             -8.4558  YZZ=             -2.7796
  YYZ=              1.1727  XYZ=             -1.3895
 Hexadecapole moment (field-independent basis, Debye-Ang**3):
 XXXX=          -3531.7997 YYYY=           -625.8736 ZZZZ=           -299.2844 XXXY=            -49.1076
 XXXZ=             18.9404 YYYX=            -27.1381 YYYZ=             11.4857 ZZZX=             17.4736
 ZZZY=              7.8117 XXYY=           -652.6333 XXZZ=           -539.9405 YYZZ=           -166.0408
 XXYZ=              2.4663 YYXZ=              8.4821 ZZXY=              0.7461
 N-N= 9.178231273814D+02 E-N=-3.381686943765D+03  KE= 6.588505236786D+02
 Calling FoFJK, ICntrl=  10002127 FMM=F ISym2X=0 I1Cent= 0 IOpClX= 0 NMat=1 NMatS=1 NMatT=0.
 -------------------------------------------------------------------
 Center     Atomic                   Forces (Hartrees/Bohr)
 Number     Number              X              Y              Z
 -------------------------------------------------------------------
      1        8           0.006953600   -0.015811647   -0.002799730
      2        7           0.035792484    0.021690569    0.002254698
      3        8          -0.009477040    0.017865224    0.003342714
      4        6          -0.008787325   -0.010982059    0.003631657
      5        6           0.002059244   -0.018214802   -0.005105221
      6        7           0.015326636   -0.009002650   -0.006073751
      7        6          -0.004774118    0.004964958    0.002668893
      8        1          -0.010289044   -0.001652773   -0.007578788
      9        6          -0.003951000    0.000218617   -0.002165424
     10        6           0.002839422   -0.000919433    0.000949541
     11        6          -0.000935183   -0.004603696   -0.002381395
     12        6           0.000711405   -0.008665437   -0.003029436
     13        6           0.007814850   -0.001448385    0.003849688
     14        1           0.000857232    0.004272896   -0.009908704
     15        7           0.001826082   -0.001510409    0.002616967
     16        6          -0.012064004    0.014737838    0.003973917
     17        1           0.007716236   -0.005694777   -0.005506898
     18        1          -0.017479946   -0.001797210    0.005657377
     19        1           0.003177283    0.005859624    0.007646053
     20        1          -0.003272045   -0.007361157    0.002603947
     21        1          -0.004296883    0.002423497    0.009643242
     22        1          -0.004056508   -0.003935023   -0.007376208
     23        1           0.004017359    0.006096817    0.009317562
     24        1          -0.009366071    0.002670766   -0.002092177
     25        1          -0.000828790    0.010644985   -0.002447573
     26        1          -0.004775511   -0.004756666   -0.004350141
     27        1           0.005261638    0.004910335    0.002659190
 -------------------------------------------------------------------
 Cartesian Forces:  Max     0.035792484 RMS     0.008375665

 GradGradGradGradGradGradGradGradGradGradGradGradGradGradGradGradGradGrad
 Berny optimization.
 FormGI is forming the generalized inverse of G from B-inverse, IUseBI=4.
 Internal  Forces:  Max     0.037808916 RMS     0.007064274
 Search for a local minimum.
 Step number   1 out of a maximum of   20
 All quantities printed in internal units (Hartrees-Bohrs-Radians)
 Mixed Optimization -- RFO/linear search
 Second derivative matrix not updated -- first step.
 ITU=  0
     Eigenvalues ---    0.00230   0.00769   0.01061   0.01157   0.01204
     Eigenvalues ---    0.01459   0.01528   0.01591   0.01977   0.02023
     Eigenvalues ---    0.02119   0.02674   0.03657   0.04507   0.04697
     Eigenvalues ---    0.04837   0.05073   0.05139   0.05301   0.05876
     Eigenvalues ---    0.06273   0.07231   0.07702   0.07721   0.07867
     Eigenvalues ---    0.07996   0.08047   0.08050   0.10462   0.11743
     Eigenvalues ---    0.12278   0.13499   0.15265   0.15801   0.15990
     Eigenvalues ---    0.16000   0.20106   0.21988   0.23415   0.25000
     Eigenvalues ---    0.25000   0.25327   0.26143   0.26654   0.27987
     Eigenvalues ---    0.28082   0.28432   0.29112   0.31471   0.31482
     Eigenvalues ---    0.32052   0.32238   0.32290   0.32379   0.32387
     Eigenvalues ---    0.32403   0.32511   0.32526   0.32584   0.33160
     Eigenvalues ---    0.33395   0.33587   0.35181   0.43877   0.44765
     Eigenvalues ---    0.49384   0.67109   0.90597   0.906891000.00000
     Eigenvalues --- 1000.000001000.000001000.000001000.000001000.00000
     Eigenvalues --- 1000.000001000.000001000.000001000.000001000.00000
     Eigenvalues --- 1000.000001000.000001000.000001000.000001000.00000
     Eigenvalues --- 1000.000001000.000001000.000001000.000001000.00000
     Eigenvalues --- 1000.000001000.000001000.000001000.000001000.00000
     Eigenvalues --- 1000.000001000.000001000.000001000.000001000.00000
     Eigenvalues --- 1000.000001000.000001000.000001000.000001000.00000
     Eigenvalues --- 1000.000001000.000001000.000001000.000001000.00000
     Eigenvalues --- 1000.000001000.000001000.000001000.000001000.00000
     Eigenvalues --- 1000.000001000.000001000.000001000.000001000.00000
     Eigenvalues --- 1000.000001000.000001000.000001000.000001000.00000
     Eigenvalues --- 1000.000001000.000001000.000001000.000001000.00000
     Eigenvalues --- 1000.000001000.000001000.000001000.000001000.00000
     Eigenvalues --- 1000.000001000.000001000.000001000.000001000.00000
     Eigenvalues --- 1000.000001000.000001000.000001000.000001000.00000
     Eigenvalues --- 1000.000001000.000001000.000001000.000001000.00000
     Eigenvalues --- 1000.000001000.000001000.000001000.000001000.00000
     Eigenvalues --- 1000.000001000.000001000.000001000.000001000.00000
     Eigenvalues --- 1000.00000
 RFO step:  Lambda=-2.40488424D-02 EMin= 2.30060773D-03
 Linear search not attempted -- first point.
 Iteration  1 RMS(Cart)=  0.05473714 RMS(Int)=  0.00101336
 Iteration  2 RMS(Cart)=  0.00108052 RMS(Int)=  0.00022218
 Iteration  3 RMS(Cart)=  0.00000082 RMS(Int)=  0.00022218
 Iteration  1 RMS(Cart)=  0.00008325 RMS(Int)=  0.00002667
 Iteration  2 RMS(Cart)=  0.00003301 RMS(Int)=  0.00002964
 Iteration  3 RMS(Cart)=  0.00001326 RMS(Int)=  0.00003258
 Iteration  4 RMS(Cart)=  0.00000571 RMS(Int)=  0.00003427
 Iteration  5 RMS(Cart)=  0.00000306 RMS(Int)=  0.00003523
 Iteration  6 RMS(Cart)=  0.00000218 RMS(Int)=  0.00003584
 Iteration  7 RMS(Cart)=  0.00000180 RMS(Int)=  0.00003627
 Iteration  8 RMS(Cart)=  0.00000154 RMS(Int)=  0.00003661
 Iteration  9 RMS(Cart)=  0.00000131 RMS(Int)=  0.00003688
 Iteration 10 RMS(Cart)=  0.00000112 RMS(Int)=  0.00003710
 Iteration 11 RMS(Cart)=  0.00000096 RMS(Int)=  0.00003730
 Variable       Old X    -DE/DX   Delta X   Delta X   Delta X     New X
                                 (Linear)    (Quad)   (Total)
    R1        2.32659   0.01343   0.00000   0.01444   0.01444   2.34103
    R2        2.32617   0.01999   0.00000   0.02148   0.02148   2.34765
    R3        2.89771  -0.03781   0.00000  -0.11997  -0.11997   2.77774
    R4        2.63789  -0.03413   0.00000  -0.07462  -0.07439   2.56350
    R5        2.81251  -0.02105   0.00000  -0.06357  -0.06335   2.74916
    R6        2.58909  -0.02362   0.00000  -0.04571  -0.04561   2.54347
    R7        2.08363  -0.01039   0.00000  -0.02903  -0.02903   2.05460
    R8        2.82687  -0.02012   0.00000  -0.05375  -0.05384   2.77303
    R9        1.93302  -0.00671   0.00000  -0.01449  -0.01449   1.91854
   R10        2.11823  -0.01196   0.00000  -0.03532  -0.03532   2.08291
   R11        2.92743  -0.01290   0.00000  -0.04366  -0.04368   2.88375
   R12        2.90647  -0.00522   0.00000  -0.00899  -0.00898   2.89749
   R13        2.91145  -0.00463   0.00000  -0.01447  -0.01449   2.89696
   R14        2.09918  -0.00993   0.00000  -0.02843  -0.02843   2.07075
   R15        2.09893  -0.00805   0.00000  -0.02304  -0.02304   2.07589
   R16        2.90427  -0.00193   0.00000  -0.00736  -0.00740   2.89687
   R17        2.10142  -0.01058   0.00000  -0.03040  -0.03040   2.07102
   R18        2.10316  -0.00900   0.00000  -0.02593  -0.02593   2.07723
   R19        2.91740  -0.00906   0.00000  -0.02887  -0.02884   2.88856
   R20        2.10411  -0.01168   0.00000  -0.03370  -0.03370   2.07041
   R21        2.10112  -0.00994   0.00000  -0.02855  -0.02855   2.07257
   R22        2.93526  -0.01065   0.00000  -0.03647  -0.03645   2.89881
   R23        2.10156  -0.01079   0.00000  -0.03102  -0.03102   2.07054
   R24        2.09789  -0.00782   0.00000  -0.02236  -0.02236   2.07553
   R25        2.10749  -0.00920   0.00000  -0.02671  -0.02671   2.08078
   R26        2.77100  -0.00671   0.00000  -0.01310  -0.01344   2.75756
   R27        2.44230  -0.00452   0.00000  -0.00664  -0.00669   2.43561
   R28        2.08033  -0.00728   0.00000  -0.02023  -0.02023   2.06011
    A1        2.15297   0.01217   0.00000   0.04442   0.04441   2.19739
    A2        2.08487  -0.01392   0.00000  -0.05080  -0.05080   2.03406
    A3        2.04534   0.00175   0.00000   0.00640   0.00639   2.05173
    A4        2.06867  -0.01752   0.00000  -0.02891  -0.02948   2.03919
    A5        1.96465   0.01241   0.00000   0.00000  -0.00000   1.96465
    A6        2.24915   0.00507   0.00000   0.02769   0.02773   2.27688
    A7        2.18729   0.00839   0.00000   0.01946   0.01981   2.20710
    A8        2.06454  -0.00378   0.00000  -0.00720  -0.00743   2.05711
    A9        2.03023  -0.00457   0.00000  -0.01149  -0.01174   2.01848
   A10        2.25193  -0.00515   0.00000  -0.01890  -0.01891   2.23302
   A11        2.11516  -0.01251   0.00000  -0.07066  -0.07106   2.04410
   A12        1.87478   0.01785   0.00000   0.09731   0.09746   1.97224
   A13        1.83716  -0.00164   0.00000  -0.01785  -0.01767   1.81949
   A14        2.00467  -0.00098   0.00000  -0.01339  -0.01341   1.99126
   A15        1.97233   0.00077   0.00000   0.00178   0.00130   1.97363
   A16        1.85212   0.00263   0.00000   0.02436   0.02420   1.87632
   A17        1.84842   0.00093   0.00000   0.01909   0.01891   1.86733
   A18        1.93496  -0.00138   0.00000  -0.00947  -0.00917   1.92579
   A19        1.91051   0.00012   0.00000  -0.00473  -0.00486   1.90565
   A20        1.92194  -0.00072   0.00000  -0.01284  -0.01282   1.90912
   A21        1.92307  -0.00163   0.00000  -0.00695  -0.00695   1.91612
   A22        1.91910  -0.00038   0.00000   0.00562   0.00557   1.92467
   A23        1.90445   0.00304   0.00000   0.02439   0.02440   1.92885
   A24        1.88457  -0.00040   0.00000  -0.00507  -0.00532   1.87925
   A25        1.94072  -0.00101   0.00000   0.00526   0.00515   1.94587
   A26        1.91886  -0.00069   0.00000  -0.00688  -0.00689   1.91196
   A27        1.90495   0.00036   0.00000  -0.00290  -0.00295   1.90200
   A28        1.91603   0.00085   0.00000   0.00723   0.00727   1.92330
   A29        1.89848   0.00176   0.00000   0.01124   0.01127   1.90975
   A30        1.88375  -0.00124   0.00000  -0.01443  -0.01451   1.86924
   A31        1.94463   0.00066   0.00000   0.00488   0.00502   1.94965
   A32        1.90249   0.00057   0.00000   0.00613   0.00607   1.90856
   A33        1.91734   0.00043   0.00000   0.00516   0.00513   1.92247
   A34        1.90675  -0.00117   0.00000  -0.01445  -0.01450   1.89225
   A35        1.91532  -0.00047   0.00000   0.00039   0.00030   1.91562
   A36        1.87594  -0.00005   0.00000  -0.00246  -0.00249   1.87345
   A37        1.94693  -0.00290   0.00000  -0.01784  -0.01786   1.92907
   A38        1.90606   0.00246   0.00000   0.01667   0.01652   1.92258
   A39        1.91103   0.00143   0.00000   0.01323   0.01321   1.92425
   A40        1.90619   0.00018   0.00000  -0.00372  -0.00356   1.90263
   A41        1.91182  -0.00026   0.00000  -0.00429  -0.00423   1.90759
   A42        1.88058  -0.00084   0.00000  -0.00358  -0.00376   1.87682
   A43        1.84594   0.00458   0.00000   0.02250   0.02254   1.86848
   A44        1.93644  -0.00410   0.00000  -0.03015  -0.03054   1.90590
   A45        1.98808   0.00038   0.00000   0.01283   0.01302   2.00110
   A46        1.88049   0.00218   0.00000   0.02990   0.03018   1.91067
   A47        1.89141  -0.00379   0.00000  -0.02899  -0.02904   1.86237
   A48        1.91672   0.00097   0.00000  -0.00382  -0.00365   1.91307
   A49        2.08658  -0.00735   0.00000  -0.02035  -0.02065   2.06593
   A50        2.23560  -0.00108   0.00000  -0.01387  -0.01383   2.22177
   A51        1.99543   0.00229   0.00000   0.01623   0.01581   2.01124
   A52        2.05204  -0.00123   0.00000  -0.00297  -0.00340   2.04863
    D1       -3.03449  -0.00088   0.00000  -0.03091  -0.03035  -3.06484
    D2        0.14415   0.00015   0.00000   0.00000  -0.00000   0.14415
    D3        0.11124  -0.00111   0.00000  -0.03800  -0.03772   0.07353
    D4       -2.99330  -0.00008   0.00000  -0.00708  -0.00737  -3.00067
    D5        3.06775   0.00055   0.00000   0.01713   0.01697   3.08472
    D6       -0.02066  -0.00033   0.00000  -0.00064  -0.00087  -0.02153
    D7       -0.11778  -0.00062   0.00000  -0.02053  -0.02091  -0.13869
    D8        3.07699  -0.00150   0.00000  -0.03829  -0.03875   3.03824
    D9       -2.72674  -0.00140   0.00000  -0.03957  -0.04022  -2.76697
   D10        0.43193   0.00017   0.00000   0.00497   0.00454   0.43647
   D11        0.45666   0.00032   0.00000  -0.00309  -0.00297   0.45369
   D12       -2.66786   0.00189   0.00000   0.04145   0.04179  -2.62607
   D13       -0.10010  -0.00015   0.00000   0.01722   0.01739  -0.08271
   D14        2.69651   0.00373   0.00000   0.06550   0.06453   2.76104
   D15        2.98924   0.00072   0.00000   0.03476   0.03498   3.02422
   D16       -0.49733   0.00461   0.00000   0.08304   0.08212  -0.41521
   D17       -2.50425  -0.00063   0.00000  -0.01280  -0.01239  -2.51664
   D18        1.74855  -0.00226   0.00000  -0.02384  -0.02349   1.72506
   D19       -0.49506  -0.00011   0.00000   0.00027   0.00029  -0.49477
   D20        0.94539   0.00012   0.00000  -0.03222  -0.03273   0.91266
   D21       -1.08500  -0.00151   0.00000  -0.04326  -0.04383  -1.12882
   D22        2.95458   0.00064   0.00000  -0.01915  -0.02005   2.93453
   D23        2.94055   0.00235   0.00000   0.02540   0.02529   2.96584
   D24       -1.23086   0.00150   0.00000   0.02121   0.02111  -1.20975
   D25        0.84617  -0.00046   0.00000   0.00262   0.00259   0.84875
   D26        0.91875   0.00317   0.00000   0.03871   0.03872   0.95747
   D27        3.03053   0.00233   0.00000   0.03452   0.03454   3.06507
   D28       -1.17563   0.00037   0.00000   0.01593   0.01602  -1.15961
   D29       -1.08049   0.00131   0.00000   0.00746   0.00746  -1.07303
   D30        1.03128   0.00046   0.00000   0.00327   0.00328   1.03457
   D31        3.10831  -0.00150   0.00000  -0.01532  -0.01524   3.09307
   D32       -2.89853  -0.00099   0.00000  -0.01355  -0.01332  -2.91184
   D33       -0.86413   0.00212   0.00000   0.01940   0.01927  -0.84485
   D34        1.30938   0.00042   0.00000   0.00000  -0.00001   1.30937
   D35       -0.89610  -0.00201   0.00000  -0.02264  -0.02253  -0.91863
   D36        1.13831   0.00111   0.00000   0.01031   0.01006   1.14836
   D37       -2.97138  -0.00059   0.00000  -0.00909  -0.00923  -2.98060
   D38        1.10547   0.00092   0.00000   0.01190   0.01201   1.11747
   D39        3.13987   0.00404   0.00000   0.04485   0.04459  -3.09872
   D40       -0.96981   0.00234   0.00000   0.02545   0.02531  -0.94450
   D41        0.95666   0.00067   0.00000   0.00000   0.00001   0.95667
   D42        3.08232   0.00059   0.00000   0.00796   0.00791   3.09023
   D43       -1.13778  -0.00111   0.00000  -0.01537  -0.01534  -1.15312
   D44       -1.15684   0.00172   0.00000   0.01536   0.01543  -1.14141
   D45        0.96881   0.00164   0.00000   0.02331   0.02334   0.99215
   D46        3.03191  -0.00006   0.00000  -0.00001   0.00008   3.03199
   D47        3.06241   0.00061   0.00000   0.00362   0.00359   3.06600
   D48       -1.09512   0.00053   0.00000   0.01158   0.01150  -1.08362
   D49        0.96797  -0.00117   0.00000  -0.01175  -0.01176   0.95622
   D50       -0.92193  -0.00079   0.00000   0.00000   0.00001  -0.92192
   D51        1.18365  -0.00146   0.00000  -0.01088  -0.01089   1.17276
   D52       -3.04825  -0.00094   0.00000  -0.00729  -0.00733  -3.05558
   D53       -3.04923   0.00017   0.00000   0.00027   0.00029  -3.04894
   D54       -0.94365  -0.00049   0.00000  -0.01062  -0.01061  -0.95426
   D55        1.10764   0.00003   0.00000  -0.00703  -0.00705   1.10059
   D56        1.17635   0.00016   0.00000   0.00695   0.00698   1.18332
   D57       -3.00126  -0.00051   0.00000  -0.00394  -0.00392  -3.00518
   D58       -0.94998   0.00001   0.00000  -0.00035  -0.00036  -0.95033
   D59        0.98951  -0.00093   0.00000  -0.01082  -0.01087   0.97864
   D60        3.09822  -0.00092   0.00000  -0.01578  -0.01594   3.08229
   D61       -1.12962   0.00033   0.00000  -0.00271  -0.00268  -1.13230
   D62       -1.11357  -0.00129   0.00000  -0.01203  -0.01203  -1.12559
   D63        0.99515  -0.00127   0.00000  -0.01699  -0.01709   0.97806
   D64        3.05049  -0.00002   0.00000  -0.00391  -0.00384   3.04665
   D65        3.11700  -0.00026   0.00000  -0.00078  -0.00078   3.11622
   D66       -1.05747  -0.00025   0.00000  -0.00574  -0.00585  -1.06332
   D67        0.99787   0.00100   0.00000   0.00734   0.00741   1.00528
   D68       -1.05528   0.00017   0.00000  -0.00128  -0.00118  -1.05646
   D69       -3.12720   0.00147   0.00000   0.00720   0.00685  -3.12034
   D70        1.08297   0.00118   0.00000   0.01102   0.01092   1.09389
   D71        3.11927  -0.00117   0.00000  -0.00822  -0.00807   3.11120
   D72        1.04734   0.00013   0.00000   0.00025  -0.00003   1.04731
   D73       -1.02568  -0.00016   0.00000   0.00407   0.00404  -1.02164
   D74        1.06340  -0.00012   0.00000   0.00077   0.00096   1.06436
   D75       -1.00852   0.00118   0.00000   0.00924   0.00900  -0.99953
   D76       -3.08155   0.00090   0.00000   0.01307   0.01307  -3.06848
   D77       -1.17216   0.00373   0.00000   0.00000  -0.00001  -1.17217
   D78        3.06183   0.00032   0.00000  -0.01639  -0.01624   3.04559
   D79        1.01187  -0.00066   0.00000  -0.03342  -0.03366   0.97821
   D80        0.16316   0.00039   0.00000   0.01479   0.01453   0.17769
   D81       -2.99598  -0.00119   0.00000  -0.03084  -0.03091  -3.02690
         Item               Value     Threshold  Converged?
 Maximum Force            0.037809     0.000450     NO 
 RMS     Force            0.007043     0.000300     NO 
 Maximum Displacement     0.295206     0.001800     NO 
 RMS     Displacement     0.054920     0.001200     NO 
 Predicted change in Energy=-1.338166D-02
 GradGradGradGradGradGradGradGradGradGradGradGradGradGradGradGradGradGrad

                          Input orientation:                          
 ---------------------------------------------------------------------
 Center     Atomic      Atomic             Coordinates (Angstroms)
 Number     Number       Type             X           Y           Z
 ---------------------------------------------------------------------
      1          8           0       -3.426294   -1.458659   -0.236369
      2          7           0       -3.109108   -0.274646   -0.056992
      3          8           0       -3.895287    0.674436    0.099615
      4          6           0       -1.669826    0.022072   -0.024097
      5          6           0       -1.314241    1.299274    0.263189
      6          7           0       -0.060428    1.768057    0.403792
      7          6           0        1.195041    1.008843    0.376792
      8          1           0        1.834875    1.516191    1.117146
      9          6           0        1.921181    1.053373   -0.964646
     10          6           0        3.319887    0.447683   -0.800721
     11          6           0        3.254272   -0.965358   -0.209985
     12          6           0        2.439387   -1.000385    1.082774
     13          6           0        1.030565   -0.441626    0.845884
     14          1           0        0.466707   -0.454637    1.791572
     15          7           0        0.386143   -1.324644   -0.120748
     16          6           0       -0.855117   -1.122200   -0.402658
     17          1           0       -2.108622    2.022739    0.429518
     18          1           0        0.076944    2.766368    0.280390
     19          1           0        1.347387    0.488300   -1.707756
     20          1           0        1.990134    2.091941   -1.315860
     21          1           0        3.827333    0.428582   -1.771913
     22          1           0        3.913691    1.093493   -0.138444
     23          1           0        2.784106   -1.640057   -0.933932
     24          1           0        4.266381   -1.343036   -0.020596
     25          1           0        2.358138   -2.029465    1.450086
     26          1           0        2.937972   -0.409101    1.862587
     27          1           0       -1.350222   -1.854556   -1.040608
 ---------------------------------------------------------------------
                    Distance matrix (angstroms):
                    1          2          3          4          5
     1  O    0.000000
     2  N    1.238818   0.000000
     3  O    2.209737   1.242320   0.000000
     4  C    2.307120   1.469917   2.322404   0.000000
     5  C    3.509490   2.408586   2.660634   1.356547   0.000000
     6  N    4.706438   3.698568   3.999334   2.412823   1.345948
     7  C    5.274587   4.512340   5.108825   3.056451   2.528587
     8  H    6.193677   5.387826   5.880364   3.977154   3.270050
     9  C    5.952830   5.281219   5.925162   3.852732   3.469295
    10  C    7.033036   6.512056   7.274666   5.067694   4.830348
    11  C    6.698806   6.402585   7.341728   5.025566   5.120915
    12  C    6.029624   5.710653   6.625686   4.376781   4.477709
    13  C    4.697788   4.240278   5.105539   2.874716   2.977983
    14  H    4.502895   4.029397   4.812953   2.844060   2.929836
    15  N    3.816543   3.650115   4.730277   2.459673   3.150184
    16  C    2.598423   2.432757   3.566905   1.454792   2.552976
    17  H    3.781507   2.552575   2.262505   2.097850   1.087247
    18  H    5.512764   4.417298   4.493047   3.267273   2.021894
    19  H    5.361311   4.813259   5.548592   3.486496   3.409776
    20  H    6.565801   5.760881   6.216998   4.398672   3.747080
    21  H    7.650795   7.179812   7.949963   5.782635   5.597815
    22  H    7.771644   7.155288   7.823837   5.686535   5.247374
    23  H    6.252085   6.112556   7.144186   4.840247   5.183553
    24  H    7.696569   7.452558   8.408179   6.091148   6.181075
    25  H    6.052239   5.936451   6.945515   4.754631   5.096626
    26  H    6.783145   6.345868   7.139716   4.997728   4.853652
    27  H    2.261329   2.560722   3.764740   2.158049   3.412892
                    6          7          8          9         10
     6  N    0.000000
     7  C    1.467425   0.000000
     8  H    2.040707   1.102231   0.000000
     9  C    2.512005   1.526014   2.134363   0.000000
    10  C    3.823711   2.493273   2.650506   1.533007   0.000000
    11  C    4.339990   2.912424   3.151833   2.534150   1.532958
    12  C    3.791353   2.466537   2.588392   2.945910   2.533720
    13  C    2.503679   1.533285   2.133904   2.511223   2.956886
    14  H    2.672859   2.161908   2.492167   3.462127   3.959141
    15  N    3.168495   2.519330   3.420752   2.953552   3.494333
    16  C    3.104107   3.058110   4.062877   3.571664   4.478130
    17  H    2.064128   3.456147   4.034921   4.372948   5.784721
    18  H    1.015246   2.085264   2.313747   2.808145   4.130591
    19  H    2.842245   2.153954   3.045369   1.095792   2.171432
    20  H    2.695720   2.161098   2.505016   1.098512   2.176510
    21  H    4.652157   3.447114   3.674159   2.162281   1.095938
    22  H    4.067269   2.768338   2.465087   2.157386   1.099220
    23  H    4.636391   3.355562   3.881992   2.828453   2.159505
    24  H    5.346053   3.888751   3.921971   3.483385   2.170512
    25  H    4.622268   3.425795   3.599490   3.940273   3.482436
    26  H    3.982273   2.693689   2.340781   3.341547   2.823676
    27  H    4.107698   4.084904   5.114947   4.377659   5.212271
                   11         12         13         14         15
    11  C    0.000000
    12  C    1.528559   0.000000
    13  C    2.516750   1.533984   0.000000
    14  H    3.469522   2.166033   1.101104   0.000000
    15  N    2.891922   2.401962   1.459238   2.102467   0.000000
    16  C    4.116892   3.615952   2.361744   2.647170   1.288869
    17  H    6.172383   5.500037   4.012599   3.824252   4.210892
    18  H    4.925613   4.518117   3.394172   3.579170   4.122243
    19  H    2.827127   3.345998   2.736096   3.729614   2.594099
    20  H    3.488277   3.939258   3.465959   4.296745   3.959057
    21  H    2.170504   3.481031   3.928363   4.977178   4.200230
    22  H    2.163058   2.837124   3.411439   4.243037   4.276833
    23  H    1.095615   2.143622   2.771081   3.768810   2.551663
    24  H    1.096756   2.161653   3.468982   4.302409   3.881574
    25  H    2.165922   1.095685   2.156094   2.484794   2.617834
    26  H    2.169107   1.098322   2.161699   2.472704   3.359117
    27  H    4.762559   4.427132   3.350130   3.644482   2.035169
                   16         17         18         19         20
    16  C    0.000000
    17  H    3.486321   0.000000
    18  H    4.056631   2.313422   0.000000
    19  H    3.024569   4.343552   3.279687   0.000000
    20  H    4.388633   4.455438   2.581310   1.771545   0.000000
    21  H    5.119094   6.528644   4.872639   2.481494   2.519930
    22  H    5.265040   6.119995   4.206490   3.068374   2.466430
    23  H    3.714078   6.262097   5.312239   2.681952   3.834588
    24  H    5.140476   7.222998   5.876153   3.836773   4.319499
    25  H    3.818481   6.116686   5.438019   4.163259   4.977135
    26  H    4.475195   5.782356   4.557678   4.010316   4.154050
    27  H    1.090162   4.215431   5.013460   3.634715   5.177700
                   21         22         23         24         25
    21  H    0.000000
    22  H    1.765726   0.000000
    23  H    2.463696   3.062851   0.000000
    24  H    2.529527   2.464742   1.766223   0.000000
    25  H    4.310662   3.833542   2.452882   2.505091   0.000000
    26  H    3.834353   2.685878   3.059321   2.486621   1.769730
    27  H    5.705663   6.100301   4.141263   5.731344   4.470580
                   26         27
    26  H    0.000000
    27  H    5.376475   0.000000
 Symmetry turned off by external request.
 Stoichiometry    C9H13N3O2
 Framework group  C1[X(C9H13N3O2)]
 Deg. of freedom    75
 Full point group                 C1      NOp   1
 Rotational constants (GHZ):           1.6719369           0.4245909           0.3737694
 Standard basis: 6-31G(d) (6D, 7F)
   236 basis functions,   444 primitive gaussians,   236 cartesian basis functions
    52 alpha electrons       52 beta electrons
       nuclear repulsion energy       932.5693867125 Hartrees.
 NAtoms=   27 NActive=   27 NUniq=   27 SFac= 1.00D+00 NAtFMM=   60 NAOKFM=F Big=F
 Integral buffers will be    131072 words long.
 Raffenetti 1 integral format.
 Two-electron integral symmetry is turned off.
 One-electron integrals computed using PRISM.
 NBasis=   236 RedAO= T EigKep=  9.88D-04  NBF=   236
 NBsUse=   236 1.00D-06 EigRej= -1.00D+00 NBFU=   236
 Initial guess from the checkpoint file:  "/home/alexey/tmp/Gau-1212692.chk"
 B after Tr=     0.055262    0.005729   -0.000299
         Rot=    0.999999   -0.000642    0.000768    0.001043 Ang=  -0.17 deg.
 ExpMin= 1.61D-01 ExpMax= 5.48D+03 ExpMxC= 8.25D+02 IAcc=3 IRadAn=         5 AccDes= 0.00D+00
 Harris functional with IExCor=  205 and IRadAn=       5 diagonalized for initial guess.
 HarFok:  IExCor=  205 AccDes= 0.00D+00 IRadAn=         5 IDoV= 1 UseB2=F ITyADJ=14
 ICtDFT=  3500011 ScaDFX=  1.000000  1.000000  1.000000  1.000000
 FoFCou: FMM=F IPFlag=           0 FMFlag=      100000 FMFlg1=           0
         NFxFlg=           0 DoJE=T BraDBF=F KetDBF=T FulRan=T
         wScrn=  0.000000 ICntrl=       500 IOpCl=  0 I1Cent=   200000004 NGrid=           0
         NMat0=    1 NMatS0=      1 NMatT0=    0 NMatD0=    1 NMtDS0=    0 NMtDT0=    0
 Symmetry not used in FoFCou.
 Keep R1 ints in memory in canonical form, NReq=397720213.
 Requested convergence on RMS density matrix=1.00D-08 within 128 cycles.
 Requested convergence on MAX density matrix=1.00D-06.
 Requested convergence on             energy=1.00D-06.
 No special actions if energy rises.
 SCF Done:  E(RHF) =  -661.297031092     A.U. after   14 cycles
            NFock= 14  Conv=0.94D-08     -V/T= 2.0024
 ExpMin= 1.61D-01 ExpMax= 5.48D+03 ExpMxC= 8.25D+02 IAcc=3 IRadAn=         5 AccDes= 0.00D+00
 HarFok:  IExCor=  205 AccDes= 0.00D+00 IRadAn=         5 IDoV=-2 UseB2=F ITyADJ=14
 ICtDFT= 12500011 ScaDFX=  1.000000  1.000000  1.000000  1.000000
 Range of M.O.s used for correlation:    15   236
 NBasis=   236 NAE=    52 NBE=    52 NFC=    14 NFV=     0
 NROrb=    222 NOA=    38 NOB=    38 NVA=   184 NVB=   184
 Fully direct method using O(ONN) memory.
 JobTyp=1 Pass  1:  I=  15 to  52 NPSUse=  4 ParTrn=T ParDer=T DoDerP=T.
 Spin components of T(2) and E(2):
     alpha-alpha T2 =       0.9127524183D-01 E2=     -0.2723630214D+00
     alpha-beta  T2 =       0.4915343799D+00 E2=     -0.1488342949D+01
     beta-beta   T2 =       0.9127524183D-01 E2=     -0.2723630214D+00
 ANorm=    0.1293864314D+01
 E2 =    -0.2033068992D+01 EUMP2 =    -0.66333010008420D+03
          IDoAtm=111111111111111111111111111
          Differentiating once with respect to electric field.
                with respect to dipole field.
          Differentiating once with respect to nuclear coordinates.
 Keep R1 ints in memory in canonical form, NReq=397723379.
          There are     1 degrees of freedom in the 1st order CPHF.  IDoFFX=0 NUNeed=     1.
 LinEq1:  Iter=  0 NonCon=     1 RMS=4.57D-03 Max=1.08D-01 NDo=     1
 AX will form     1 AO Fock derivatives at one time.
 LinEq1:  Iter=  1 NonCon=     1 RMS=1.53D-03 Max=2.72D-02 NDo=     1
 LinEq1:  Iter=  2 NonCon=     1 RMS=6.42D-04 Max=1.81D-02 NDo=     1
 LinEq1:  Iter=  3 NonCon=     1 RMS=2.80D-04 Max=8.04D-03 NDo=     1
 LinEq1:  Iter=  4 NonCon=     1 RMS=8.75D-05 Max=1.90D-03 NDo=     1
 LinEq1:  Iter=  5 NonCon=     1 RMS=3.66D-05 Max=1.77D-03 NDo=     1
 LinEq1:  Iter=  6 NonCon=     1 RMS=1.44D-05 Max=5.31D-04 NDo=     1
 LinEq1:  Iter=  7 NonCon=     1 RMS=5.52D-06 Max=9.89D-05 NDo=     1
 LinEq1:  Iter=  8 NonCon=     1 RMS=2.26D-06 Max=6.74D-05 NDo=     1
[...]
    26  H    2.175648   1.098799   2.168134   2.497529   3.364240
    27  H    4.732260   4.422386   3.355155   3.650492   2.031142
                   16         17         18         19         20
    16  C    0.000000
    17  H    3.478344   0.000000
    18  H    4.107086   2.249524   0.000000
    19  H    3.000418   4.306511   3.514843   0.000000
    20  H    4.385012   4.450003   2.877998   1.768532   0.000000
    21  H    5.103876   6.515003   5.083978   2.499194   2.520661
    22  H    5.254601   6.105706   4.308699   3.070225   2.461677
    23  H    3.696312   6.241938   5.423992   2.703071   3.842303
    24  H    5.134826   7.208712   5.936796   3.848875   4.316938
    25  H    3.818443   6.099348   5.373694   4.170915   4.984280
    26  H    4.493257   5.788191   4.482480   4.032898   4.178969
    27  H    1.087738   4.220872   5.093729   3.594942   5.157859
                   21         22         23         24         25
    21  H    0.000000
    22  H    1.758915   0.000000
    23  H    2.469921   3.062425   0.000000
    24  H    2.517594   2.460071   1.764662   0.000000
    25  H    4.311795   3.838212   2.444593   2.518831   0.000000
    26  H    3.845227   2.702021   3.060371   2.492790   1.768055
    27  H    5.665250   6.069636   4.099473   5.702487   4.457827
                   26         27
    26  H    0.000000
    27  H    5.380657   0.000000
 Symmetry turned off by external request.
 Stoichiometry    C9H13N3O2
 Framework group  C1[X(C9H13N3O2)]
 Deg. of freedom    75
 Full point group                 C1      NOp   1
 Rotational constants (GHZ):           1.6632627           0.4229663           0.3739625

 **********************************************************************

            Population analysis using the SCF Density.

 **********************************************************************

 Alpha  occ. eigenvalues --  -20.59341 -20.58822 -15.84646 -15.64078 -15.56008
 Alpha  occ. eigenvalues --  -11.35145 -11.29632 -11.29328 -11.28646 -11.27101
 Alpha  occ. eigenvalues --  -11.23698 -11.23174 -11.22653 -11.22050  -1.57093
 Alpha  occ. eigenvalues --   -1.36689  -1.30914  -1.22968  -1.14627  -1.09717
 Alpha  occ. eigenvalues --   -1.02786  -1.01195  -0.94730  -0.89377  -0.85500
 Alpha  occ. eigenvalues --   -0.82422  -0.78482  -0.77405  -0.75295  -0.71884
 Alpha  occ. eigenvalues --   -0.69763  -0.69380  -0.67761  -0.64896  -0.63674
 Alpha  occ. eigenvalues --   -0.62395  -0.60399  -0.57667  -0.56968  -0.55086
 Alpha  occ. eigenvalues --   -0.54534  -0.50744  -0.50109  -0.48764  -0.48027
 Alpha  occ. eigenvalues --   -0.47345  -0.46063  -0.45969  -0.43643  -0.41584
 Alpha  occ. eigenvalues --   -0.39746  -0.33847
 Alpha virt. eigenvalues --    0.07340   0.11989   0.17257   0.21852   0.24122
 Alpha virt. eigenvalues --    0.25652   0.27143   0.28662   0.29044   0.29545
 Alpha virt. eigenvalues --    0.30599   0.31904   0.32016   0.32797   0.33993
 Alpha virt. eigenvalues --    0.34436   0.35746   0.37160   0.38565   0.40503
 Alpha virt. eigenvalues --    0.41611   0.42420   0.45208   0.46127   0.46674
 Alpha virt. eigenvalues --    0.47173   0.49142   0.53822   0.57639   0.59500
 Alpha virt. eigenvalues --    0.63831   0.69299   0.69751   0.72900   0.74203
 Alpha virt. eigenvalues --    0.74616   0.75806   0.76759   0.78637   0.79455
 Alpha virt. eigenvalues --    0.81517   0.84685   0.85762   0.85988   0.88642
 Alpha virt. eigenvalues --    0.89501   0.91039   0.92043   0.92865   0.94640
 Alpha virt. eigenvalues --    0.95794   0.98020   0.99633   1.01679   1.02564
 Alpha virt. eigenvalues --    1.03196   1.05720   1.07044   1.07881   1.08929
 Alpha virt. eigenvalues --    1.10464   1.11101   1.11937   1.12589   1.13939
 Alpha virt. eigenvalues --    1.14802   1.15026   1.15921   1.17062   1.18758
 Alpha virt. eigenvalues --    1.19120   1.21376   1.22554   1.23902   1.24190
 Alpha virt. eigenvalues --    1.24694   1.25926   1.27149   1.27449   1.29314
 Alpha virt. eigenvalues --    1.30055   1.33253   1.36169   1.37811   1.40940
 Alpha virt. eigenvalues --    1.41428   1.46906   1.48958   1.51633   1.54245
 Alpha virt. eigenvalues --    1.56277   1.58338   1.59473   1.63539   1.65460
 Alpha virt. eigenvalues --    1.67876   1.68602   1.72913   1.75453   1.77872
 Alpha virt. eigenvalues --    1.81610   1.84882   1.88068   1.90446   1.93307
 Alpha virt. eigenvalues --    1.95962   1.96804   1.99922   2.01631   2.02426
 Alpha virt. eigenvalues --    2.04636   2.05532   2.08133   2.09494   2.12637
 Alpha virt. eigenvalues --    2.13568   2.15200   2.18910   2.20092   2.22367
 Alpha virt. eigenvalues --    2.22893   2.24413   2.25311   2.28291   2.29585
 Alpha virt. eigenvalues --    2.32393   2.33590   2.34797   2.36445   2.38307
 Alpha virt. eigenvalues --    2.40682   2.41708   2.43886   2.45431   2.47705
 Alpha virt. eigenvalues --    2.50791   2.51867   2.52937   2.55876   2.61494
 Alpha virt. eigenvalues --    2.62238   2.65017   2.67353   2.70497   2.70662
 Alpha virt. eigenvalues --    2.72338   2.72443   2.77228   2.78931   2.83559
 Alpha virt. eigenvalues --    2.88802   2.89100   2.92228   2.93056   2.95915
 Alpha virt. eigenvalues --    2.99651   3.01198   3.04163   3.05694   3.07632
 Alpha virt. eigenvalues --    3.09421   3.14876   3.21505   3.24784   3.27695
 Alpha virt. eigenvalues --    3.33472   3.37506   3.38188   3.52110   3.66056
 Alpha virt. eigenvalues --    4.13549   4.27514   4.35495   4.38243   4.46235
 Alpha virt. eigenvalues --    4.56134   4.61723   4.62369   4.73464   4.79508
 Alpha virt. eigenvalues --    4.99585   5.00906   5.05191   5.11075
          Condensed to atoms (all electrons):
               1          2          3          4          5          6
     1  O    8.319483   0.305954  -0.083374  -0.082082   0.004443  -0.000015
     2  N    0.305954   5.723711   0.300892   0.265516  -0.050442   0.000931
     3  O   -0.083374   0.300892   8.351985  -0.093805   0.005848   0.000694
     4  C   -0.082082   0.265516  -0.093805   5.209455   0.570803  -0.048705
     5  C    0.004443  -0.050442   0.005848   0.570803   4.695907   0.318570
     6  N   -0.000015   0.000931   0.000694  -0.048705   0.318570   7.193944
     7  C    0.000004  -0.000152   0.000003   0.004295  -0.030335   0.169895
     8  H   -0.000000   0.000002  -0.000000  -0.000221   0.003028  -0.050605
     9  C   -0.000000  -0.000005  -0.000000   0.000767   0.000844  -0.062510
    10  C    0.000000   0.000000   0.000000  -0.000035  -0.000061   0.003764
    11  C   -0.000000  -0.000000  -0.000000  -0.000034   0.000029  -0.000191
    12  C   -0.000000   0.000002  -0.000000  -0.000104  -0.000195   0.003819
    13  C   -0.000034  -0.000051  -0.000004  -0.012183  -0.000386  -0.046374
    14  H   -0.000003  -0.000103   0.000001   0.002544   0.006127  -0.006805
    15  N    0.000419   0.002574  -0.000022  -0.065082  -0.006665   0.001869
    16  C   -0.002220  -0.033460   0.002837   0.333302  -0.050687  -0.001467
    17  H    0.000187  -0.006691   0.016377  -0.022174   0.373250  -0.033657
    18  H    0.000001  -0.000049   0.000009   0.001548  -0.030885   0.338157
    19  H    0.000001  -0.000004   0.000000  -0.001213   0.001214  -0.000332
    20  H    0.000000  -0.000000   0.000000  -0.000084   0.000173  -0.000444
    21  H   -0.000000   0.000000  -0.000000   0.000001   0.000001  -0.000077
    22  H   -0.000000   0.000000  -0.000000  -0.000000  -0.000003  -0.000117
    23  H    0.000000  -0.000000   0.000000   0.000041   0.000001  -0.000030
    24  H    0.000000   0.000000   0.000000   0.000000  -0.000000   0.000006
    25  H    0.000000  -0.000000   0.000000   0.000024   0.000001  -0.000089
    26  H    0.000000  -0.000000   0.000000   0.000006  -0.000001  -0.000058
    27  H    0.005566  -0.001470   0.000008  -0.060314   0.001918   0.000022
               7          8          9         10         11         12
     1  O    0.000004  -0.000000  -0.000000   0.000000  -0.000000  -0.000000
     2  N   -0.000152   0.000002  -0.000005   0.000000  -0.000000   0.000002
     3  O    0.000003  -0.000000  -0.000000   0.000000  -0.000000  -0.000000
     4  C    0.004295  -0.000221   0.000767  -0.000035  -0.000034  -0.000104
     5  C   -0.030335   0.003028   0.000844  -0.000061   0.000029  -0.000195
     6  N    0.169895  -0.050605  -0.062510   0.003764  -0.000191   0.003819
     7  C    5.018688   0.418313   0.350209  -0.054481  -0.009012  -0.060774
     8  H    0.418313   0.538014  -0.055075   0.000764  -0.000326  -0.002388
     9  C    0.350209  -0.055075   5.158689   0.324798  -0.050465  -0.005316
    10  C   -0.054481   0.000764   0.324798   5.119231   0.336926  -0.061124
    11  C   -0.009012  -0.000326  -0.050465   0.336926   5.120111   0.336135
    12  C   -0.060774  -0.002388  -0.005316  -0.061124   0.336135   5.118378
    13  C    0.337324  -0.037624  -0.060457  -0.000306  -0.050812   0.371721
    14  H   -0.046773  -0.000715   0.004427  -0.000403   0.004199  -0.036226
    15  N   -0.057671   0.003813  -0.014053   0.001575  -0.013144  -0.081646
    16  C   -0.001590  -0.000011  -0.001147  -0.000032   0.000031   0.002657
    17  H    0.001599  -0.000049  -0.000065   0.000001   0.000000  -0.000000
    18  H   -0.021051  -0.004478   0.001347  -0.000083   0.000004  -0.000112
    19  H   -0.036931   0.004366   0.390147  -0.032131  -0.002222   0.000677
    20  H   -0.042382  -0.002018   0.399489  -0.035326   0.003933  -0.000412
    21  H    0.004590  -0.000075  -0.036370   0.402405  -0.034915   0.004359
    22  H   -0.004871   0.003562  -0.046972   0.397751  -0.045367  -0.001062
    23  H    0.000566   0.000035  -0.001965  -0.039020   0.399217  -0.037945
    24  H   -0.000128  -0.000103   0.004392  -0.038449   0.402304  -0.038680
    25  H    0.005155  -0.000021  -0.000426   0.004202  -0.033385   0.398410
    26  H   -0.003960   0.001689   0.000975  -0.002270  -0.041509   0.396632
    27  H   -0.000399   0.000009  -0.000053   0.000006   0.000012  -0.000039
              13         14         15         16         17         18
     1  O   -0.000034  -0.000003   0.000419  -0.002220   0.000187   0.000001
     2  N   -0.000051  -0.000103   0.002574  -0.033460  -0.006691  -0.000049
     3  O   -0.000004   0.000001  -0.000022   0.002837   0.016377   0.000009
     4  C   -0.012183   0.002544  -0.065082   0.333302  -0.022174   0.001548
     5  C   -0.000386   0.006127  -0.006665  -0.050687   0.373250  -0.030885
     6  N   -0.046374  -0.006805   0.001869  -0.001467  -0.033657   0.338157
     7  C    0.337324  -0.046773  -0.057671  -0.001590   0.001599  -0.021051
     8  H   -0.037624  -0.000715   0.003813  -0.000011  -0.000049  -0.004478
     9  C   -0.060457   0.004427  -0.014053  -0.001147  -0.000065   0.001347
    10  C   -0.000306  -0.000403   0.001575  -0.000032   0.000001  -0.000083
    11  C   -0.050812   0.004199  -0.013144   0.000031   0.000000   0.000004
    12  C    0.371721  -0.036226  -0.081646   0.002657  -0.000000  -0.000112
    13  C    5.040990   0.402958   0.246466  -0.071785  -0.000007   0.002869
    14  H    0.402958   0.527062  -0.037273  -0.004807   0.000095  -0.000111
    15  N    0.246466  -0.037273   6.966568   0.581305  -0.000093  -0.000130
    16  C   -0.071785  -0.004807   0.581305   4.721334   0.001949  -0.000177
    17  H   -0.000007   0.000095  -0.000093   0.001949   0.377490  -0.002716
    18  H    0.002869  -0.000111  -0.000130  -0.000177  -0.002716   0.310710
    19  H   -0.007535   0.000112   0.007696   0.002969   0.000016  -0.000149
    20  H    0.004327  -0.000067   0.000118  -0.000035   0.000002   0.000799
    21  H   -0.000437   0.000010  -0.000040   0.000004  -0.000000   0.000001
    22  H    0.000074  -0.000054   0.000018  -0.000002   0.000000   0.000001
    23  H   -0.007501   0.000006   0.008639   0.000102   0.000000   0.000000
    24  H    0.004702  -0.000057   0.000133   0.000007   0.000000  -0.000000
    25  H   -0.035628  -0.002847   0.000440  -0.000020  -0.000000   0.000002
    26  H   -0.047340  -0.001047   0.004874  -0.000062   0.000000  -0.000000
    27  H    0.004964  -0.000162  -0.039161   0.402793  -0.000078   0.000001
              19         20         21         22         23         24
     1  O    0.000001   0.000000  -0.000000  -0.000000   0.000000   0.000000
     2  N   -0.000004  -0.000000   0.000000   0.000000  -0.000000   0.000000
     3  O    0.000000   0.000000  -0.000000  -0.000000   0.000000   0.000000
     4  C   -0.001213  -0.000084   0.000001  -0.000000   0.000041   0.000000
     5  C    0.001214   0.000173   0.000001  -0.000003   0.000001  -0.000000
     6  N   -0.000332  -0.000444  -0.000077  -0.000117  -0.000030   0.000006
     7  C   -0.036931  -0.042382   0.004590  -0.004871   0.000566  -0.000128
     8  H    0.004366  -0.002018  -0.000075   0.003562   0.000035  -0.000103
     9  C    0.390147   0.399489  -0.036370  -0.046972  -0.001965   0.004392
    10  C   -0.032131  -0.035326   0.402405   0.397751  -0.039020  -0.038449
    11  C   -0.002222   0.003933  -0.034915  -0.045367   0.399217   0.402304
    12  C    0.000677  -0.000412   0.004359  -0.001062  -0.037945  -0.038680
    13  C   -0.007535   0.004327  -0.000437   0.000074  -0.007501   0.004702
    14  H    0.000112  -0.000067   0.000010  -0.000054   0.000006  -0.000057
    15  N    0.007696   0.000118  -0.000040   0.000018   0.008639   0.000133
    16  C    0.002969  -0.000035   0.000004  -0.000002   0.000102   0.000007
    17  H    0.000016   0.000002  -0.000000   0.000000   0.000000   0.000000
    18  H   -0.000149   0.000799   0.000001   0.000001   0.000000  -0.000000
    19  H    0.505459  -0.024728  -0.002781   0.003962   0.001522  -0.000066
    20  H   -0.024728   0.541233  -0.002707  -0.002981  -0.000045  -0.000083
    21  H   -0.002781  -0.002707   0.524334  -0.027429  -0.002895  -0.002247
    22  H    0.003962  -0.002981  -0.027429   0.571504   0.004134  -0.003651
    23  H    0.001522  -0.000045  -0.002895   0.004134   0.498713  -0.025420
    24  H   -0.000066  -0.000083  -0.002247  -0.003651  -0.025420   0.538287
    25  H   -0.000029   0.000012  -0.000087  -0.000081  -0.002306  -0.002309
    26  H    0.000019  -0.000030  -0.000081   0.002388   0.004069  -0.003016
    27  H    0.000077   0.000000  -0.000000   0.000000  -0.000034  -0.000000
              25         26         27
     1  O    0.000000   0.000000   0.005566
     2  N   -0.000000  -0.000000  -0.001470
     3  O    0.000000   0.000000   0.000008
     4  C    0.000024   0.000006  -0.060314
     5  C    0.000001  -0.000001   0.001918
     6  N   -0.000089  -0.000058   0.000022
     7  C    0.005155  -0.003960  -0.000399
     8  H   -0.000021   0.001689   0.000009
     9  C   -0.000426   0.000975  -0.000053
    10  C    0.004202  -0.002270   0.000006
    11  C   -0.033385  -0.041509   0.000012
    12  C    0.398410   0.396632  -0.000039
    13  C   -0.035628  -0.047340   0.004964
    14  H   -0.002847  -0.001047  -0.000162
    15  N    0.000440   0.004874  -0.039161
    16  C   -0.000020  -0.000062   0.402793
    17  H   -0.000000   0.000000  -0.000078
    18  H    0.000002  -0.000000   0.000001
    19  H   -0.000029   0.000019   0.000077
    20  H    0.000012  -0.000030   0.000000
    21  H   -0.000087  -0.000081  -0.000000
    22  H   -0.000081   0.002388   0.000000
    23  H   -0.002306   0.004069  -0.000034
    24  H   -0.002309  -0.003016  -0.000000
    25  H    0.505816  -0.024091  -0.000012
    26  H   -0.024091   0.562747   0.000001
    27  H   -0.000012   0.000001   0.431565
 Mulliken charges:
               1
     1  O   -0.468329
     2  N    0.492842
     3  O   -0.501448
     4  C   -0.002266
     5  C    0.187504
     6  N   -0.780196
     7  C    0.059868
     8  H    0.180115
     9  C   -0.301206
    10  C   -0.327704
    11  C   -0.321518
    12  C   -0.306768
    13  C   -0.037931
    14  H    0.189914
    15  N   -0.511527
    16  C    0.118214
    17  H    0.294563
    18  H    0.404491
    19  H    0.189884
    20  H    0.161255
    21  H    0.174436
    22  H    0.149196
    23  H    0.200117
    24  H    0.164379
    25  H    0.187270
    26  H    0.150066
    27  H    0.254779
 Sum of Mulliken charges =  -0.00000
 Mulliken charges with hydrogens summed into heavy atoms:
               1
     1  O   -0.468329
     2  N    0.492842
     3  O   -0.501448
     4  C   -0.002266
     5  C    0.482067
     6  N   -0.375704
     7  C    0.239983
     9  C    0.049933
    10  C   -0.004073
    11  C    0.042978
    12  C    0.030568
    13  C    0.151983
    15  N   -0.511527
    16  C    0.372993
 Electronic spatial extent (au):  <R**2>=           2992.1946
 Charge=             -0.0000 electrons
 Dipole moment (field-independent basis, Debye):
    X=              5.3342    Y=              4.9054    Z=              1.3001  Tot=              7.3626
 Quadrupole moment (field-independent basis, Debye-Ang):
   XX=           -105.7606   YY=            -79.1176   ZZ=            -81.4846
   XY=             -1.9764   XZ=             -0.1535   YZ=              1.9740
 Traceless Quadrupole moment (field-independent basis, Debye-Ang):
   XX=            -16.9730   YY=              9.6700   ZZ=              7.3030
   XY=             -1.9764   XZ=             -0.1535   YZ=              1.9740
 Octapole moment (field-independent basis, Debye-Ang**2):
  XXX=             89.6115  YYY=             38.0833  ZZZ=             -1.4639  XYY=             -5.1811
  XXY=             10.3118  XXZ=              5.0303  XZZ=            -10.1463  YZZ=             -0.2274
  YYZ=              8.2547  XYZ=              0.0197
 Hexadecapole moment (field-independent basis, Debye-Ang**3):
 XXXX=          -3351.1625 YYYY=           -607.8007 ZZZZ=           -302.9749 XXXY=            -27.1844
 XXXZ=            -13.7033 YYYX=            -15.6907 YYYZ=             25.4841 ZZZX=              1.9748
 ZZZY=              7.0265 XXYY=           -623.1510 XXZZ=           -519.5308 YYZZ=           -158.4711
 XXYZ=             -3.0935 YYXZ=              1.6003 ZZXY=              3.2781
 N-N= 9.317834897833D+02 E-N=-3.410316125491D+03  KE= 6.596267759853D+02
 Unable to Open any file for archive entry.
 1\1\GINC-LOTUS\FOpt\RMP2-FC\6-31G(d)\C9H13N3O2\ALEXEY\30-Jun-2023\0\\#
 MP2/6-31G* SCF=Tight Opt=(ModRedun, MaxCycle=20 ) NoSymm\\MolName:\\0,
 1\O,-3.4493603779,-1.4343806972,-0.363124579\N,-3.0973727471,-0.264629
 0945,-0.1220112163\O,-3.9015773509,0.6766292807,0.0333915702\C,-1.6695
 689356,0.0074180716,-0.0017301739\C,-1.2979462355,1.2920434877,0.27690
 4245\N,-0.0492367436,1.7720733327,0.3860577526\C,1.205388849,1.0285917
 14,0.3611766814\H,1.8575911985,1.5488339764,1.0786787443\C,1.908944228
 8,1.0377645558,-0.9950453986\C,3.3045641588,0.4243334423,-0.8335249051
 \C,3.2500632821,-0.9723261023,-0.2091025487\C,2.4561826266,-0.97993336
 92,1.0988807773\C,1.0472672464,-0.423294648,0.8625691863\H,0.472001076
 9,-0.4012763217,1.8017464449\N,0.3969376395,-1.3204224453,-0.089832792
 3\C,-0.8515262665,-1.1321018405,-0.3776028335\H,-2.0947767268,2.017682
 8366,0.4174201931\H,0.0206806244,2.7551234669,0.620842634\H,1.31113728
 13,0.463777001,-1.7112318847\H,1.9793344413,2.0656834398,-1.3719496193
 \H,3.8072778332,0.3853989867,-1.8066902722\H,3.9081969585,1.086721763,
 -0.1968008211\H,2.767811046,-1.6657651747,-0.9051661633\H,4.2674736778
 ,-1.3414846601,-0.0334524418\H,2.3676323252,-2.0014654603,1.4829710059
 \H,2.9686314364,-0.383492992,1.8663531768\H,-1.3247505469,-1.878522549
 5,-1.0117067622\\Version=ES64L-G16RevC.02\HF=-661.2988664\MP2=-663.333
 5059\RMSD=8.754e-09\RMSF=2.955e-03\Dipole=1.9519445,1.7274506,0.476898
 3\PG=C01 [X(C9H13N3O2)]\\@
 The archive entry for this job was punched.


 UNLESS WE CHANGE DIRECTIONS, WE WILL WIND UP WHERE WE ARE HEADED.
     -- CONFUCIUS
 Job cpu time:       0 days  1 hours 20 minutes 40.9 seconds.
 Elapsed time:       0 days  0 hours 24 minutes 10.7 seconds.
 File lengths (MBytes):  RWF=     36 Int=      0 D2E=      0 Chk=      7 Scr=      1
 Normal termination of Gaussian 16 at Fri Jun 30 22:09:42 2023.
