 Entering Gaussian System, Link 0=g16
 Initial command:
 /home/alexey/programs//g16/l1.exe "/home/alexey/tmp/Gau-1169435.inp" -scrdir="/home/alexey/tmp/"
 Entering Link 1 = /home/alexey/programs//g16/l1.exe PID=   1169437.
  
 Copyright (c) 1988-2021, Gaussian, Inc.  All Rights Reserved.
  
 This is part of the Gaussian(R) 16 program.  It is based on
 the Gaussian(R) 09 system (copyright 2009, Gaussian, Inc.),
 the Gaussian(R) 03 system (copyright 2003, Gaussian, Inc.),
 the Gaussian(R) 98 system (copyright 1998, Gaussian, Inc.),
 the Gaussian(R) 94 system (copyright 1995, Gaussian, Inc.),
 the Gaussian 92(TM) system (copyright 1992, Gaussian, Inc.),
 the Gaussian 90(TM) system (copyright 1990, Gaussian, Inc.),
 the Gaussian 88(TM) system (copyright 1988, Gaussian, Inc.),
 the Gaussian 86(TM) system (copyright 1986, Carnegie Mellon
 University), and the Gaussian 82(TM) system (copyright 1983,
 Carnegie Mellon University). Gaussian is a federally registered
 trademark of Gaussian, Inc.
  
 This software contains proprietary and confidential information,
 including trade secrets, belonging to Gaussian, Inc.
  
 This software is provided under written license and may be
 used, copied, transmitted, or stored only in accord with that
 written license.
  
 The following legend is applicable only to US Government
 contracts under FAR:
  
                    RESTRICTED RIGHTS LEGEND
  
 Use, reproduction and disclosure by the US Government is
 subject to restrictions as set forth in subparagraphs (a)
 and (c) of the Commercial Computer Software - Restricted
 Rights clause in FAR 52.227-19.
  
 Gaussian, Inc.
 340 Quinnipiac St., Bldg. 40, Wallingford CT 06492
  
  
 ---------------------------------------------------------------
 Warning -- This program may not be used in any manner that
 competes with the business of Gaussian, Inc. or will provide
 assistance to any competitor of Gaussian, Inc.  The licensee
 of this program is prohibited from giving any competitor of
 Gaussian, Inc. access to this program.  By using this program,
 the user acknowledges that Gaussian, Inc. is engaged in the
 business of creating and licensing software in the field of
 computational chemistry and represents and warrants to the
 licensee that it is not a competitor of Gaussian, Inc. and that
 it will not use this program in any manner prohibited above.
 ---------------------------------------------------------------
  

 Cite this work as:
 Gaussian 16, Revision C.02,
 M. J. Frisch, G. W. Trucks, H. B. Schlegel, G. E. Scuseria, 
 M. A. Robb, J. R. Cheeseman, G. Scalmani, V. Barone, 
 G. A. Petersson, H. Nakatsuji, X. Li, M. Caricato, A. V. Marenich, 
 J. Bloino, B. G. Janesko, R. Gomperts, B. Mennucci, H. P. Hratchian, 
 J. V. Ortiz, A. F. Izmaylov, J. L. Sonnenberg, D. Williams-Young, 
 F. Ding, F. Lipparini, F. Egidi, J. Goings, B. Peng, A. Petrone, 
 T. Henderson, D. Ranasinghe, V. G. Zakrzewski, J. Gao, N. Rega, 
 G. Zheng, W. Liang, M. Hada, M. Ehara, K. Toyota, R. Fukuda, 
 J. Hasegawa, M. Ishida, T. Nakajima, Y. Honda, O. Kitao, H. Nakai, 
 T. Vreven, K. Throssell, J. A. Montgomery, Jr., J. E. Peralta, 
 F. Ogliaro, M. J. Bearpark, J. J. Heyd, E. N. Brothers, K. N. Kudin, 
 V. N. Staroverov, T. A. Keith, R. Kobayashi, J. Normand, 
 K. Raghavachari, A. P. Rendell, J. C. Burant, S. S. Iyengar, 
 J. Tomasi, M. Cossi, J. M. Millam, M. Klene, C. Adamo, R. Cammi, 
 J. W. Ochterski, R. L. Martin, K. Morokuma, O. Farkas, 
 J. B. Foresman, and D. J. Fox, Gaussian, Inc., Wallingford CT, 2019.
 
 ******************************************
 Gaussian 16:  ES64L-G16RevC.02  7-Dec-2021
                30-Jun-2023 
 ******************************************
 %mem=8GB
 %NPROCS=4
 Will use up to    4 processors via shared memory.
 %NoSave
 ----------------------------------------------------------
 #MP2/6-31G* SCF=Tight Opt=(ModRedun, MaxCycle=100 ) NoSymm
 ----------------------------------------------------------
 1/6=100,18=120,19=15,38=1/1,3;
 2/9=110,12=2,15=1,17=6,18=5,40=1/2;
 3/5=1,6=6,7=1,11=9,25=1,30=1,71=1/1,2,3;
 4//1;
 5/5=2,32=2,38=5/2;
 8/6=4,10=2/1;
 9/15=2,16=-3/6;
 10/5=1,31=1/2;
 6/7=2,8=2,9=2,10=2/1;
 7/12=2,30=1/1,2,3,16;
 1/6=100,18=20,19=15/3(2);
 2/9=110,15=1/2;
 99//99;
 2/9=110,15=1/2;
 3/5=1,6=6,7=1,11=9,25=1,30=1,71=1/1,2,3;
 4/5=5,16=3,69=1/1;
 5/5=2,32=2,38=5/2;
 8/6=4,10=2/1;
 9/15=2,16=-3/6;
 10/5=1,31=1/2;
 7/12=2,30=1/1,2,3,16;
 1/6=100,18=20,19=15/3(-8);
 2/9=110,15=1/2;
 6/7=2,8=2,9=2,10=2/1;
 99/9=10/99;
 --------
 MolName:
 --------
 Symbolic Z-matrix:
 Charge =  0 Multiplicity = 1
 8                    0    -3.61775  -1.44672  -0.18258 
 7                    0    -3.25788  -0.28194  -0.02059 
 8                    0    -4.03775   0.65771   0.13964 
 6                    0    -1.75781   0.0065   -0.0409 
 6                    0    -1.36972   1.31384   0.27431 
 7                    0    -0.08142   1.76891   0.38697 
 6                    0     1.19752   0.9959    0.35935 
 1                    0     1.86007   1.49271   1.11493 
 6                    0     1.96466   1.04832  -0.98545 
 6                    0     3.37589   0.46064  -0.79411 
 6                    0     3.31179  -0.95606  -0.20175 
 6                    0     2.46092  -0.99083   1.08614 
 6                    0     1.02486  -0.45352   0.8376 
 1                    0     0.47447  -0.49332   1.80681 
 7                    0     0.36993  -1.32114  -0.14416 
 6                    0    -0.87087  -1.1168   -0.44345 
 1                    0    -2.15702   2.05239   0.4991 
 1                    0     0.15047   2.75094   0.21931 
 1                    0     1.41632   0.47315  -1.76159 
 1                    0     2.05244   2.09873  -1.33558 
 1                    0     3.91249   0.4376   -1.76782 
 1                    0     3.9521    1.11313  -0.10064 
 1                    0     2.86551  -1.64401  -0.95496 
 1                    0     4.33906  -1.32098   0.01682 
 1                    0     2.40096  -2.03761   1.45677 
 1                    0     2.95405  -0.38124   1.8721 
 1                    0    -1.37228  -1.86331  -1.07824 
 
 The following ModRedundant input section has been read:
 D       6       7      13      15 F                                           
 D       1       2       4      16 F                                           
 D       7      13      15      16 F                                           
 D       7       9      10      11 F                                           
 D       9      10      11      12 F                                           
 

 GradGradGradGradGradGradGradGradGradGradGradGradGradGradGradGradGradGrad
 Berny optimization.
 Initialization pass.
                           ----------------------------
                           !    Initial Parameters    !
                           ! (Angstroms and Degrees)  !
 --------------------------                            --------------------------
 ! Name  Definition              Value          Derivative Info.                !
 --------------------------------------------------------------------------------
 ! R1    R(1,2)                  1.2298         estimate D2E/DX2                !
 ! R2    R(2,3)                  1.2316         estimate D2E/DX2                !
 ! R3    R(2,4)                  1.5277         estimate D2E/DX2                !
 ! R4    R(4,5)                  1.3997         estimate D2E/DX2                !
 ! R5    R(4,16)                 1.4868         estimate D2E/DX2                !
 ! R6    R(5,6)                  1.3709         estimate D2E/DX2                !
 ! R7    R(5,17)                 1.1026         estimate D2E/DX2                !
 ! R8    R(6,7)                  1.4947         estimate D2E/DX2                !
 ! R9    R(6,18)                 1.0229         estimate D2E/DX2                !
 ! R10   R(7,8)                  1.121          estimate D2E/DX2                !
 ! R11   R(7,9)                  1.5491         estimate D2E/DX2                !
 ! R12   R(7,13)                 1.536          estimate D2E/DX2                !
 ! R13   R(9,10)                 1.5406         estimate D2E/DX2                !
 ! R14   R(9,19)                 1.1108         estimate D2E/DX2                !
 ! R15   R(9,20)                 1.1107         estimate D2E/DX2                !
 ! R16   R(10,11)                1.5369         estimate D2E/DX2                !
 ! R17   R(10,21)                1.112          estimate D2E/DX2                !
 ! R18   R(10,22)                1.113          estimate D2E/DX2                !
 ! R19   R(11,12)                1.544          estimate D2E/DX2                !
 ! R20   R(11,23)                1.1134         estimate D2E/DX2                !
 ! R21   R(11,24)                1.1119         estimate D2E/DX2                !
 ! R22   R(12,13)                1.5533         estimate D2E/DX2                !
 ! R23   R(12,25)                1.1121         estimate D2E/DX2                !
 ! R24   R(12,26)                1.1102         estimate D2E/DX2                !
 ! R25   R(13,14)                1.1153         estimate D2E/DX2                !
 ! R26   R(13,15)                1.4648         estimate D2E/DX2                !
 ! R27   R(15,16)                1.2926         estimate D2E/DX2                !
 ! R28   R(16,27)                1.1007         estimate D2E/DX2                !
 ! A1    A(1,2,3)              123.6728         estimate D2E/DX2                !
 ! A2    A(1,2,4)              117.6716         estimate D2E/DX2                !
 ! A3    A(3,2,4)              118.6497         estimate D2E/DX2                !
 ! A4    A(2,4,5)              116.4628         estimate D2E/DX2                !
 ! A5    A(2,4,16)             116.5333         estimate D2E/DX2                !
 ! A6    A(5,4,16)             126.9594         estimate D2E/DX2                !
 ! A7    A(4,5,6)              126.0932         estimate D2E/DX2                !
 ! A8    A(4,5,17)             118.2647         estimate D2E/DX2                !
 ! A9    A(6,5,17)             115.587          estimate D2E/DX2                !
 ! A10   A(5,6,7)              129.1165         estimate D2E/DX2                !
 ! A11   A(5,6,18)             121.2151         estimate D2E/DX2                !
 ! A12   A(7,6,18)             107.4286         estimate D2E/DX2                !
 ! A13   A(6,7,8)              105.3114         estimate D2E/DX2                !
 ! A14   A(6,7,9)              114.9788         estimate D2E/DX2                !
 ! A15   A(6,7,13)             112.7112         estimate D2E/DX2                !
 ! A16   A(8,7,9)              106.1073         estimate D2E/DX2                !
 ! A17   A(8,7,13)             105.9482         estimate D2E/DX2                !
 ! A18   A(9,7,13)             110.9706         estimate D2E/DX2                !
 ! A19   A(7,9,10)             109.4446         estimate D2E/DX2                !
 ! A20   A(7,9,19)             110.1565         estimate D2E/DX2                !
 ! A21   A(7,9,20)             110.1694         estimate D2E/DX2                !
 ! A22   A(10,9,19)            109.9647         estimate D2E/DX2                !
 ! A23   A(10,9,20)            109.1174         estimate D2E/DX2                !
 ! A24   A(19,9,20)            107.9654         estimate D2E/DX2                !
 ! A25   A(9,10,11)            111.1792         estimate D2E/DX2                !
 ! A26   A(9,10,21)            109.9482         estimate D2E/DX2                !
 ! A27   A(9,10,22)            109.1472         estimate D2E/DX2                !
 ! A28   A(11,10,21)           109.7865         estimate D2E/DX2                !
 ! A29   A(11,10,22)           108.7753         estimate D2E/DX2                !
 ! A30   A(21,10,22)           107.9334         estimate D2E/DX2                !
 ! A31   A(10,11,12)           111.4226         estimate D2E/DX2                !
 ! A32   A(10,11,23)           108.9974         estimate D2E/DX2                !
 ! A33   A(10,11,24)           109.8631         estimate D2E/DX2                !
 ! A34   A(12,11,23)           109.2367         estimate D2E/DX2                !
 ! A35   A(12,11,24)           109.7428         estimate D2E/DX2                !
 ! A36   A(23,11,24)           107.4884         estimate D2E/DX2                !
 ! A37   A(11,12,13)           111.6069         estimate D2E/DX2                !
 ! A38   A(11,12,25)           109.2027         estimate D2E/DX2                !
 ! A39   A(11,12,26)           109.4741         estimate D2E/DX2                !
 ! A40   A(13,12,25)           109.2132         estimate D2E/DX2                !
 ! A41   A(13,12,26)           109.5118         estimate D2E/DX2                !
 ! A42   A(25,12,26)           107.7493         estimate D2E/DX2                !
 ! A43   A(7,13,12)            105.8017         estimate D2E/DX2                !
 ! A44   A(7,13,14)            111.083          estimate D2E/DX2                !
 ! A45   A(7,13,15)            113.6097         estimate D2E/DX2                !
 ! A46   A(12,13,14)           107.7492         estimate D2E/DX2                !
 ! A47   A(12,13,15)           108.4045         estimate D2E/DX2                !
 ! A48   A(14,13,15)           109.9176         estimate D2E/DX2                !
 ! A49   A(13,15,16)           119.3893         estimate D2E/DX2                !
 ! A50   A(4,16,15)            129.0039         estimate D2E/DX2                !
 ! A51   A(4,16,27)            113.3774         estimate D2E/DX2                !
 ! A52   A(15,16,27)           117.6174         estimate D2E/DX2                !
 ! D1    D(1,2,4,5)           -173.995          estimate D2E/DX2                !
 ! D2    D(1,2,4,16)             8.2602         Frozen                          !
 ! D3    D(3,2,4,5)              6.8575         estimate D2E/DX2                !
 ! D4    D(3,2,4,16)          -170.8873         estimate D2E/DX2                !
 ! D5    D(2,4,5,6)            176.1902         estimate D2E/DX2                !
 ! D6    D(2,4,5,17)            -0.9816         estimate D2E/DX2                !
 ! D7    D(16,4,5,6)            -6.3351         estimate D2E/DX2                !
 ! D8    D(16,4,5,17)          176.4932         estimate D2E/DX2                !
 ! D9    D(2,4,16,15)         -154.6809         estimate D2E/DX2                !
 ! D10   D(2,4,16,27)           24.8964         estimate D2E/DX2                !
 ! D11   D(5,4,16,15)           27.8458         estimate D2E/DX2                !
 ! D12   D(5,4,16,27)         -152.5768         estimate D2E/DX2                !
 ! D13   D(4,5,6,7)             -7.4631         estimate D2E/DX2                !
 ! D14   D(4,5,6,18)           153.2979         estimate D2E/DX2                !
 ! D15   D(17,5,6,7)           169.775          estimate D2E/DX2                !
 ! D16   D(17,5,6,18)          -29.4639         estimate D2E/DX2                !
 ! D17   D(5,6,7,8)           -142.1995         estimate D2E/DX2                !
 ! D18   D(5,6,7,9)            101.3854         estimate D2E/DX2                !
 ! D19   D(5,6,7,13)           -27.1491         estimate D2E/DX2                !
 ! D20   D(18,6,7,8)            54.98           estimate D2E/DX2                !
 ! D21   D(18,6,7,9)           -61.4352         estimate D2E/DX2                !
 ! D22   D(18,6,7,13)          170.0303         estimate D2E/DX2                !
 ! D23   D(6,7,9,10)           168.7075         estimate D2E/DX2                !
 ! D24   D(6,7,9,19)           -70.2748         estimate D2E/DX2                !
 ! D25   D(6,7,9,20)            48.7286         estimate D2E/DX2                !
 ! D26   D(8,7,9,10)            52.7475         estimate D2E/DX2                !
 ! D27   D(8,7,9,19)           173.7652         estimate D2E/DX2                !
 ! D28   D(8,7,9,20)           -67.2314         estimate D2E/DX2                !
 ! D29   D(13,7,9,10)          -61.8954         estimate D2E/DX2                !
 ! D30   D(13,7,9,19)           59.1223         estimate D2E/DX2                !
 ! D31   D(13,7,9,20)          178.1257         estimate D2E/DX2                !
 ! D32   D(6,7,13,12)         -166.1781         estimate D2E/DX2                !
 ! D33   D(6,7,13,14)          -49.5203         estimate D2E/DX2                !
 ! D34   D(6,7,13,15)           75.0191         Frozen                          !
 ! D35   D(8,7,13,12)          -51.5122         estimate D2E/DX2                !
 ! D36   D(8,7,13,14)           65.1455         estimate D2E/DX2                !
 ! D37   D(8,7,13,15)         -170.3151         estimate D2E/DX2                !
 ! D38   D(9,7,13,12)           63.23           estimate D2E/DX2                !
 ! D39   D(9,7,13,14)          179.8878         estimate D2E/DX2                !
 ! D40   D(9,7,13,15)          -55.5728         estimate D2E/DX2                !
 ! D41   D(7,9,10,11)           54.8103         Frozen                          !
 ! D42   D(7,9,10,21)          176.6023         estimate D2E/DX2                !
 ! D43   D(7,9,10,22)          -65.1839         estimate D2E/DX2                !
 ! D44   D(19,9,10,11)         -66.3236         estimate D2E/DX2                !
 ! D45   D(19,9,10,21)          55.4683         estimate D2E/DX2                !
 ! D46   D(19,9,10,22)         173.6822         estimate D2E/DX2                !
 ! D47   D(20,9,10,11)         175.4318         estimate D2E/DX2                !
 ! D48   D(20,9,10,21)         -62.7763         estimate D2E/DX2                !
 ! D49   D(20,9,10,22)          55.4376         estimate D2E/DX2                !
 ! D50   D(9,10,11,12)         -52.8197         Frozen                          !
 ! D51   D(9,10,11,23)          67.8033         estimate D2E/DX2                !
 ! D52   D(9,10,11,24)        -174.6609         estimate D2E/DX2                !
 ! D53   D(21,10,11,12)       -174.7058         estimate D2E/DX2                !
 ! D54   D(21,10,11,23)        -54.0827         estimate D2E/DX2                !
 ! D55   D(21,10,11,24)         63.4531         estimate D2E/DX2                !
 ! D56   D(22,10,11,12)         67.3948         estimate D2E/DX2                !
 ! D57   D(22,10,11,23)       -171.9821         estimate D2E/DX2                !
 ! D58   D(22,10,11,24)        -54.4463         estimate D2E/DX2                !
 ! D59   D(10,11,12,13)         56.5976         estimate D2E/DX2                !
 ! D60   D(10,11,12,25)        177.4452         estimate D2E/DX2                !
 ! D61   D(10,11,12,26)        -64.8083         estimate D2E/DX2                !
 ! D62   D(23,11,12,13)        -63.885          estimate D2E/DX2                !
 ! D63   D(23,11,12,25)         56.9627         estimate D2E/DX2                !
 ! D64   D(23,11,12,26)        174.7092         estimate D2E/DX2                !
 ! D65   D(24,11,12,13)        178.5083         estimate D2E/DX2                !
 ! D66   D(24,11,12,25)        -60.644          estimate D2E/DX2                !
 ! D67   D(24,11,12,26)         57.1025         estimate D2E/DX2                !
 ! D68   D(11,12,13,7)         -60.3036         estimate D2E/DX2                !
 ! D69   D(11,12,13,14)       -179.1929         estimate D2E/DX2                !
 ! D70   D(11,12,13,15)         61.8939         estimate D2E/DX2                !
 ! D71   D(25,12,13,7)         178.8549         estimate D2E/DX2                !
 ! D72   D(25,12,13,14)         59.9655         estimate D2E/DX2                !
 ! D73   D(25,12,13,15)        -58.9477         estimate D2E/DX2                !
 ! D74   D(26,12,13,7)          61.0803         estimate D2E/DX2                !
 ! D75   D(26,12,13,14)        -57.809          estimate D2E/DX2                !
 ! D76   D(26,12,13,15)       -176.7222         estimate D2E/DX2                !
 ! D77   D(7,13,15,16)         -67.1595         Frozen                          !
 ! D78   D(12,13,15,16)        175.5408         estimate D2E/DX2                !
 ! D79   D(14,13,15,16)         58.0056         estimate D2E/DX2                !
 ! D80   D(13,15,16,4)           7.6187         estimate D2E/DX2                !
 ! D81   D(13,15,16,27)       -171.9435         estimate D2E/DX2                !
 --------------------------------------------------------------------------------
 Trust Radius=3.00D-01 FncErr=1.00D-07 GrdErr=1.00D-07 EigMax=2.50D+02 EigMin=1.00D-04
 Number of steps in this run=    100 maximum allowed number of steps=    162.
 GradGradGradGradGradGradGradGradGradGradGradGradGradGradGradGradGradGrad

                          Input orientation:                          
 ---------------------------------------------------------------------
 Center     Atomic      Atomic             Coordinates (Angstroms)
 Number     Number       Type             X           Y           Z
 ---------------------------------------------------------------------
      1          8           0       -3.617750   -1.446720   -0.182580
      2          7           0       -3.257880   -0.281940   -0.020590
      3          8           0       -4.037750    0.657710    0.139640
      4          6           0       -1.757810    0.006500   -0.040900
      5          6           0       -1.369720    1.313840    0.274310
      6          7           0       -0.081420    1.768910    0.386970
      7          6           0        1.197520    0.995900    0.359350
      8          1           0        1.860070    1.492710    1.114930
      9          6           0        1.964660    1.048320   -0.985450
     10          6           0        3.375890    0.460640   -0.794110
     11          6           0        3.311790   -0.956060   -0.201750
     12          6           0        2.460920   -0.990830    1.086140
     13          6           0        1.024860   -0.453520    0.837600
     14          1           0        0.474470   -0.493320    1.806810
     15          7           0        0.369930   -1.321140   -0.144160
     16          6           0       -0.870870   -1.116800   -0.443450
     17          1           0       -2.157020    2.052390    0.499100
     18          1           0        0.150470    2.750940    0.219310
     19          1           0        1.416320    0.473150   -1.761590
     20          1           0        2.052440    2.098730   -1.335580
     21          1           0        3.912490    0.437600   -1.767820
     22          1           0        3.952100    1.113130   -0.100640
     23          1           0        2.865510   -1.644010   -0.954960
     24          1           0        4.339060   -1.320980    0.016820
     25          1           0        2.400960   -2.037610    1.456770
     26          1           0        2.954050   -0.381240    1.872100
     27          1           0       -1.372280   -1.863310   -1.078240
 ---------------------------------------------------------------------
                    Distance matrix (angstroms):
                    1          2          3          4          5
     1  O    0.000000
     2  N    1.229821   0.000000
     3  O    2.169989   1.231590   0.000000
     4  C    2.364593   1.527685   2.377981   0.000000
     5  C    3.589301   2.489704   2.750823   1.399682   0.000000
     6  N    4.813553   3.802892   4.116854   2.469705   1.370948
     7  C    5.426500   4.650572   5.250781   3.142147   2.588250
     8  H    6.350614   5.534636   6.035950   4.078458   3.342182
     9  C    6.167100   5.474986   6.119422   3.979239   3.574295
    10  C    7.274819   6.719871   7.474810   5.208497   4.938652
    11  C    6.946916   6.606650   7.532366   5.162677   5.224521
    12  C    6.226373   5.867883   6.770986   4.479126   4.543608
    13  C    4.856031   4.371246   5.229914   2.954088   3.029005
    14  H    4.648969   4.161071   4.946156   2.940566   3.002569
    15  N    3.989842   3.775740   4.839838   2.510093   3.185062
    16  C    2.778894   2.563907   3.676684   1.486779   2.583030
    17  H    3.852556   2.632692   2.368858   2.153285   1.102646
    18  H    5.655205   4.568672   4.682857   3.352789   2.092668
    19  H    5.614360   5.044739   5.778894   3.640555   3.551573
    20  H    6.786065   5.966262   6.429870   4.535596   3.862509
    21  H    7.922636   7.415171   8.178824   5.943097   5.730605
    22  H    7.991381   7.344143   8.006425   5.816466   5.338786
    23  H    6.532087   6.342254   7.358741   4.993473   5.310099
    24  H    7.960301   7.667757   8.608208   6.239981   6.292754
    25  H    6.265899   6.106344   7.103279   4.869987   5.181550
    26  H    6.967461   6.494629   7.277781   5.100151   4.911335
    27  H    2.453139   2.678590   3.865683   2.172763   3.453068
                    6          7          8          9         10
     6  N    0.000000
     7  C    1.494655   0.000000
     8  H    2.091792   1.121024   0.000000
     9  C    2.566950   1.549109   2.149423   0.000000
    10  C    3.880659   2.522354   2.647133   1.540633   0.000000
    11  C    4.391575   2.931743   3.136497   2.538993   1.536892
    12  C    3.816870   2.464041   2.555351   2.948880   2.545442
    13  C    2.523117   1.536019   2.135954   2.542097   3.004248
    14  H    2.728121   2.199027   2.518512   3.520516   4.011616
    15  N    3.167684   2.511394   3.423971   2.977461   3.554289
    16  C    3.104859   3.063695   4.086089   3.608565   4.543814
    17  H    2.097868   3.519750   4.102377   4.494473   5.900776
    18  H    1.022871   2.048436   2.303912   2.764353   4.083605
    19  H    2.922076   2.195342   3.083956   1.110806   2.185426
    20  H    2.762122   2.195429   2.531653   1.110701   2.174408
    21  H    4.729358   3.493939   3.692686   2.186121   1.112017
    22  H    4.115470   2.795182   2.449139   2.176467   1.112952
    23  H    4.704593   3.388027   3.890291   2.839208   2.171615
    24  H    5.406022   3.918486   3.907440   3.500843   2.181622
    25  H    4.668648   3.443077   3.587837   3.959515   3.501172
    26  H    4.005351   2.696354   2.298214   3.344866   2.827611
    27  H    4.123855   4.104341   5.149850   4.429601   5.294015
                   11         12         13         14         15
    11  C    0.000000
    12  C    1.543972   0.000000
    13  C    2.561805   1.553301   0.000000
    14  H    3.506968   2.170913   1.115294   0.000000
    15  N    2.964986   2.448465   1.464770   2.121909   0.000000
    16  C    4.192720   3.668288   2.382188   2.694872   1.292638
    17  H    6.280911   5.561580   4.064299   3.887864   4.263797
    18  H    4.890101   4.482233   3.378669   3.626342   4.094155
    19  H    2.840519   3.368084   2.787068   3.815052   2.632582
    20  H    3.493319   3.946766   3.506082   4.368447   3.993223
    21  H    2.180758   3.506074   3.990077   5.046243   4.275415
    22  H    2.168356   2.838787   3.450133   4.279364   4.331225
    23  H    1.113448   2.180923   2.831701   3.829952   2.643778
    24  H    1.111856   2.186288   3.522796   4.338680   3.972393
    25  H    2.179461   1.112075   2.187776   2.493737   2.683540
    26  H    2.181570   1.110185   2.190249   2.482970   3.409750
    27  H    4.850964   4.487670   3.377015   3.689291   2.049817
                   16         17         18         19         20
    16  C    0.000000
    17  H    3.547724   0.000000
    18  H    4.054849   2.427090   0.000000
    19  H    3.081667   4.513699   3.273327   0.000000
    20  H    4.436358   4.592140   2.541761   1.796843   0.000000
    21  H    5.201024   6.677232   4.842832   2.496431   2.531002
    22  H    5.324579   6.209931   4.151768   3.098146   2.470869
    23  H    3.807903   6.403395   5.297729   2.689455   3.848903
    24  H    5.234206   7.335617   5.845154   3.863166   4.330362
    25  H    3.894047   6.198420   5.433804   4.198961   5.002799
    26  H    4.531317   5.825008   4.516894   4.037115   4.153596
    27  H    1.100749   4.293777   5.029285   3.701662   5.243347
                   21         22         23         24         25
    21  H    0.000000
    22  H    1.799277   0.000000
    23  H    2.467794   3.084212   0.000000
    24  H    2.541556   2.467474   1.794451   0.000000
    25  H    4.336977   3.841708   2.487402   2.518580   0.000000
    26  H    3.852029   2.668511   3.097531   2.498685   1.794984
    27  H    5.805041   6.177695   4.245251   5.840606   4.549065
                   26         27
    26  H    0.000000
    27  H    5.442258   0.000000
 Symmetry turned off by external request.
 Stoichiometry    C9H13N3O2
 Framework group  C1[X(C9H13N3O2)]
 Deg. of freedom    75
 Full point group                 C1      NOp   1
 Rotational constants (GHZ):           1.6760874           0.4000943           0.3551048
 Standard basis: 6-31G(d) (6D, 7F)
   236 basis functions,   444 primitive gaussians,   236 cartesian basis functions
    52 alpha electrons       52 beta electrons
       nuclear repulsion energy       917.4389923656 Hartrees.
 NAtoms=   27 NActive=   27 NUniq=   27 SFac= 1.00D+00 NAtFMM=   60 NAOKFM=F Big=F
 Integral buffers will be    131072 words long.
 Raffenetti 1 integral format.
 Two-electron integral symmetry is turned off.
 One-electron integrals computed using PRISM.
 NBasis=   236 RedAO= T EigKep=  1.27D-03  NBF=   236
 NBsUse=   236 1.00D-06 EigRej= -1.00D+00 NBFU=   236
 ExpMin= 1.61D-01 ExpMax= 5.48D+03 ExpMxC= 8.25D+02 IAcc=3 IRadAn=         5 AccDes= 0.00D+00
 Harris functional with IExCor=  205 and IRadAn=       5 diagonalized for initial guess.
 HarFok:  IExCor=  205 AccDes= 0.00D+00 IRadAn=         5 IDoV= 1 UseB2=F ITyADJ=14
 ICtDFT=  3500011 ScaDFX=  1.000000  1.000000  1.000000  1.000000
 FoFCou: FMM=F IPFlag=           0 FMFlag=      100000 FMFlg1=           0
         NFxFlg=           0 DoJE=T BraDBF=F KetDBF=T FulRan=T
         wScrn=  0.000000 ICntrl=       500 IOpCl=  0 I1Cent=   200000004 NGrid=           0
         NMat0=    1 NMatS0=      1 NMatT0=    0 NMatD0=    1 NMtDS0=    0 NMtDT0=    0
 Symmetry not used in FoFCou.
 Keep R1 ints in memory in canonical form, NReq=397720213.
 Requested convergence on RMS density matrix=1.00D-08 within 128 cycles.
 Requested convergence on MAX density matrix=1.00D-06.
 Requested convergence on             energy=1.00D-06.
 No special actions if energy rises.
 SCF Done:  E(RHF) =  -661.280968316     A.U. after   16 cycles
            NFock= 16  Conv=0.80D-08     -V/T= 2.0037
 ExpMin= 1.61D-01 ExpMax= 5.48D+03 ExpMxC= 8.25D+02 IAcc=3 IRadAn=         5 AccDes= 0.00D+00
 HarFok:  IExCor=  205 AccDes= 0.00D+00 IRadAn=         5 IDoV=-2 UseB2=F ITyADJ=14
 ICtDFT= 12500011 ScaDFX=  1.000000  1.000000  1.000000  1.000000
 Range of M.O.s used for correlation:    15   236
 NBasis=   236 NAE=    52 NBE=    52 NFC=    14 NFV=     0
 NROrb=    222 NOA=    38 NOB=    38 NVA=   184 NVB=   184
 Fully direct method using O(ONN) memory.
 JobTyp=1 Pass  1:  I=  15 to  52 NPSUse=  4 ParTrn=T ParDer=T DoDerP=T.
 Spin components of T(2) and E(2):
     alpha-alpha T2 =       0.9197192588D-01 E2=     -0.2717599813D+00
     alpha-beta  T2 =       0.4996971455D+00 E2=     -0.1493764789D+01
     beta-beta   T2 =       0.9197192588D-01 E2=     -0.2717599813D+00
 ANorm=    0.1297551925D+01
 E2 =    -0.2037284751D+01 EUMP2 =    -0.66331825306765D+03
          IDoAtm=111111111111111111111111111
          Differentiating once with respect to electric field.
                with respect to dipole field.
          Differentiating once with respect to nuclear coordinates.
 Keep R1 ints in memory in canonical form, NReq=397723379.
          There are     1 degrees of freedom in the 1st order CPHF.  IDoFFX=0 NUNeed=     1.
 LinEq1:  Iter=  0 NonCon=     1 RMS=4.61D-03 Max=1.12D-01 NDo=     1
 AX will form     1 AO Fock derivatives at one time.
 LinEq1:  Iter=  1 NonCon=     1 RMS=1.56D-03 Max=2.96D-02 NDo=     1
 LinEq1:  Iter=  2 NonCon=     1 RMS=6.40D-04 Max=1.80D-02 NDo=     1
 LinEq1:  Iter=  3 NonCon=     1 RMS=2.94D-04 Max=9.10D-03 NDo=     1
 LinEq1:  Iter=  4 NonCon=     1 RMS=9.03D-05 Max=2.09D-03 NDo=     1
 LinEq1:  Iter=  5 NonCon=     1 RMS=3.75D-05 Max=1.88D-03 NDo=     1
 LinEq1:  Iter=  6 NonCon=     1 RMS=1.54D-05 Max=5.84D-04 NDo=     1
 LinEq1:  Iter=  7 NonCon=     1 RMS=5.93D-06 Max=1.02D-04 NDo=     1
 LinEq1:  Iter=  8 NonCon=     1 RMS=2.37D-06 Max=6.01D-05 NDo=     1
 LinEq1:  Iter=  9 NonCon=     1 RMS=8.83D-07 Max=2.53D-05 NDo=     1
 LinEq1:  Iter= 10 NonCon=     1 RMS=4.34D-07 Max=1.50D-05 NDo=     1
 LinEq1:  Iter= 11 NonCon=     1 RMS=1.54D-07 Max=5.73D-06 NDo=     1
 LinEq1:  Iter= 12 NonCon=     1 RMS=5.41D-08 Max=7.61D-07 NDo=     1
 LinEq1:  Iter= 13 NonCon=     1 RMS=1.71D-08 Max=3.40D-07 NDo=     1
 LinEq1:  Iter= 14 NonCon=     1 RMS=5.43D-09 Max=1.44D-07 NDo=     1
 LinEq1:  Iter= 15 NonCon=     1 RMS=2.01D-09 Max=4.81D-08 NDo=     1
 LinEq1:  Iter= 16 NonCon=     1 RMS=7.59D-10 Max=1.29D-08 NDo=     1
 LinEq1:  Iter= 17 NonCon=     1 RMS=2.54D-10 Max=3.73D-09 NDo=     1
 LinEq1:  Iter= 18 NonCon=     1 RMS=8.78D-11 Max=1.05D-09 NDo=     1
 LinEq1:  Iter= 19 NonCon=     0 RMS=2.93D-11 Max=3.82D-10 NDo=     1
 Linear equations converged to 1.000D-10 1.000D-09 after    19 iterations.
 End of Minotr F.D. properties file   721 does not exist.
 End of Minotr F.D. properties file   722 does not exist.
 End of Minotr F.D. properties file   788 does not exist.

 **********************************************************************

            Population analysis using the SCF Density.

 **********************************************************************

 Alpha  occ. eigenvalues --  -20.59836 -20.59397 -15.85286 -15.63336 -15.56848
 Alpha  occ. eigenvalues --  -11.35869 -11.30474 -11.30087 -11.30082 -11.27694
 Alpha  occ. eigenvalues --  -11.24629 -11.23880 -11.23403 -11.22854  -1.58490
 Alpha  occ. eigenvalues --   -1.37992  -1.28584  -1.22732  -1.13277  -1.08373
 Alpha  occ. eigenvalues --   -1.01813  -1.00671  -0.93591  -0.88966  -0.84936
 Alpha  occ. eigenvalues --   -0.81541  -0.78027  -0.76959  -0.74320  -0.71118
 Alpha  occ. eigenvalues --   -0.70334  -0.69782  -0.67403  -0.64367  -0.63266
 Alpha  occ. eigenvalues --   -0.61643  -0.60375  -0.57427  -0.56473  -0.54888
 Alpha  occ. eigenvalues --   -0.53595  -0.50728  -0.49361  -0.48484  -0.47786
 Alpha  occ. eigenvalues --   -0.47685  -0.46147  -0.45696  -0.44013  -0.42098
 Alpha  occ. eigenvalues --   -0.39963  -0.33780
 Alpha virt. eigenvalues --    0.07354   0.11781   0.18172   0.21388   0.23406
 Alpha virt. eigenvalues --    0.24246   0.26287   0.27793   0.28558   0.28871
 Alpha virt. eigenvalues --    0.29924   0.31080   0.31850   0.32274   0.33340
 Alpha virt. eigenvalues --    0.33783   0.34232   0.35471   0.37580   0.38580
 Alpha virt. eigenvalues --    0.40627   0.41744   0.44443   0.45265   0.45661
 Alpha virt. eigenvalues --    0.46064   0.49710   0.53178   0.57584   0.58989
 Alpha virt. eigenvalues --    0.63297   0.69135   0.69241   0.72200   0.74021
 Alpha virt. eigenvalues --    0.74927   0.75691   0.75854   0.77772   0.79276
 Alpha virt. eigenvalues --    0.80534   0.83635   0.85018   0.85355   0.87983
 Alpha virt. eigenvalues --    0.89074   0.90169   0.90790   0.91849   0.93901
 Alpha virt. eigenvalues --    0.95182   0.97201   0.98850   1.00375   1.01955
 Alpha virt. eigenvalues --    1.02752   1.05092   1.06476   1.07001   1.08673
 Alpha virt. eigenvalues --    1.09571   1.10467   1.11329   1.11953   1.13255
 Alpha virt. eigenvalues --    1.13830   1.14177   1.15407   1.16357   1.17264
 Alpha virt. eigenvalues --    1.17973   1.19985   1.21224   1.22333   1.22984
 Alpha virt. eigenvalues --    1.23709   1.24280   1.25656   1.27066   1.27513
 Alpha virt. eigenvalues --    1.29415   1.31230   1.33017   1.36010   1.39702
 Alpha virt. eigenvalues --    1.42853   1.46168   1.47255   1.49315   1.52666
 Alpha virt. eigenvalues --    1.54644   1.55395   1.60474   1.61456   1.65973
 Alpha virt. eigenvalues --    1.68639   1.70304   1.72804   1.73436   1.77030
 Alpha virt. eigenvalues --    1.77723   1.79967   1.84356   1.89127   1.92610
 Alpha virt. eigenvalues --    1.93693   1.96118   1.97513   1.99021   2.00836
 Alpha virt. eigenvalues --    2.02966   2.03813   2.05968   2.08863   2.11903
 Alpha virt. eigenvalues --    2.12893   2.13744   2.17740   2.18866   2.19406
 Alpha virt. eigenvalues --    2.20753   2.22064   2.24104   2.25113   2.26381
 Alpha virt. eigenvalues --    2.29188   2.32266   2.33451   2.35561   2.35965
 Alpha virt. eigenvalues --    2.38556   2.39843   2.41599   2.43201   2.46329
 Alpha virt. eigenvalues --    2.48660   2.50380   2.50771   2.56769   2.57193
 Alpha virt. eigenvalues --    2.60758   2.62853   2.65960   2.68537   2.68815
 Alpha virt. eigenvalues --    2.69705   2.70170   2.74717   2.77163   2.80937
 Alpha virt. eigenvalues --    2.84681   2.86740   2.89998   2.91384   2.95240
 Alpha virt. eigenvalues --    2.97605   2.98438   3.02210   3.03563   3.05681
 Alpha virt. eigenvalues --    3.07016   3.12705   3.19218   3.22699   3.27194
 Alpha virt. eigenvalues --    3.30687   3.33772   3.37231   3.43388   3.59839
 Alpha virt. eigenvalues --    4.09978   4.23262   4.32052   4.36360   4.43131
 Alpha virt. eigenvalues --    4.52643   4.59653   4.60152   4.70839   4.77582
 Alpha virt. eigenvalues --    4.96378   4.99234   5.02806   5.09939
          Condensed to atoms (all electrons):
               1          2          3          4          5          6
     1  O    8.299761   0.313195  -0.089674  -0.079238   0.003507  -0.000013
     2  N    0.313195   5.682710   0.309040   0.265345  -0.046118   0.000854
     3  O   -0.089674   0.309040   8.330908  -0.087449   0.008004   0.000463
     4  C   -0.079238   0.265345  -0.087449   5.244934   0.567328  -0.048010
     5  C    0.003507  -0.046118   0.008004   0.567328   4.670923   0.307601
     6  N   -0.000013   0.000854   0.000463  -0.048010   0.307601   7.189873
     7  C    0.000003  -0.000093   0.000002   0.004143  -0.029297   0.198397
     8  H   -0.000000   0.000002  -0.000000  -0.000180   0.002294  -0.049982
     9  C   -0.000000  -0.000003   0.000000   0.000472   0.001666  -0.056176
    10  C   -0.000000   0.000000  -0.000000  -0.000019  -0.000063   0.003334
    11  C   -0.000000  -0.000000  -0.000000  -0.000014   0.000015  -0.000154
    12  C   -0.000000   0.000002  -0.000000  -0.000100  -0.000127   0.003599
    13  C   -0.000019  -0.000025  -0.000003  -0.010504   0.000465  -0.044347
    14  H   -0.000003  -0.000055   0.000000   0.002968   0.004820  -0.005572
    15  N    0.000177   0.001640  -0.000013  -0.061316  -0.003708   0.001872
    16  C    0.003452  -0.026836   0.001944   0.318356  -0.041203  -0.001271
    17  H    0.000125  -0.004099   0.011944  -0.027164   0.377314  -0.033901
    18  H    0.000000  -0.000035   0.000008   0.000944  -0.024353   0.328357
    19  H    0.000000   0.000000   0.000000  -0.000765   0.000656   0.000642
    20  H    0.000000  -0.000000   0.000000  -0.000026   0.000029  -0.001712
    21  H   -0.000000  -0.000000   0.000000   0.000000   0.000001  -0.000059
    22  H   -0.000000   0.000000  -0.000000  -0.000000  -0.000002  -0.000098
    23  H    0.000000  -0.000000   0.000000   0.000025  -0.000000  -0.000024
    24  H    0.000000   0.000000   0.000000   0.000000  -0.000000   0.000004
    25  H    0.000000  -0.000000   0.000000   0.000019  -0.000001  -0.000071
    26  H    0.000000  -0.000000   0.000000   0.000006  -0.000001  -0.000067
    27  H    0.005322  -0.000246   0.000002  -0.066122   0.002141   0.000045
               7          8          9         10         11         12
     1  O    0.000003  -0.000000  -0.000000  -0.000000  -0.000000  -0.000000
     2  N   -0.000093   0.000002  -0.000003   0.000000  -0.000000   0.000002
     3  O    0.000002  -0.000000   0.000000  -0.000000  -0.000000  -0.000000
     4  C    0.004143  -0.000180   0.000472  -0.000019  -0.000014  -0.000100
     5  C   -0.029297   0.002294   0.001666  -0.000063   0.000015  -0.000127
     6  N    0.198397  -0.049982  -0.056176   0.003334  -0.000154   0.003599
     7  C    5.003460   0.416746   0.340744  -0.049327  -0.007709  -0.064133
     8  H    0.416746   0.547430  -0.060571   0.001472  -0.000330  -0.002842
     9  C    0.340744  -0.060571   5.181260   0.317923  -0.053049  -0.006218
    10  C   -0.049327   0.001472   0.317923   5.126758   0.332752  -0.060149
    11  C   -0.007709  -0.000330  -0.053049   0.332752   5.123955   0.330654
    12  C   -0.064133  -0.002842  -0.006218  -0.060149   0.330654   5.136978
    13  C    0.332298  -0.040378  -0.050406  -0.001730  -0.047894   0.368228
    14  H   -0.040246  -0.000941   0.003865  -0.000391   0.003955  -0.040736
    15  N   -0.058216   0.004047  -0.012879   0.001460  -0.007733  -0.074159
    16  C   -0.002336   0.000022  -0.000893  -0.000025   0.000003   0.002508
    17  H    0.001427  -0.000019  -0.000065   0.000001   0.000000   0.000001
    18  H   -0.028453  -0.002669   0.000841  -0.000121   0.000011  -0.000136
    19  H   -0.034997   0.004098   0.385962  -0.032568  -0.002264   0.000629
    20  H   -0.041649  -0.001853   0.397241  -0.037369   0.004139  -0.000361
    21  H    0.004043  -0.000080  -0.035834   0.400145  -0.035841   0.004211
    22  H   -0.004218   0.003510  -0.045689   0.395973  -0.045621  -0.001229
    23  H    0.000428   0.000033  -0.002004  -0.040092   0.396699  -0.036629
    24  H   -0.000141  -0.000098   0.004395  -0.038481   0.400299  -0.037869
    25  H    0.004981  -0.000005  -0.000369   0.004097  -0.033924   0.395439
    26  H   -0.004453   0.001605   0.001041  -0.002402  -0.042316   0.394685
    27  H   -0.000402   0.000009  -0.000059   0.000005   0.000005  -0.000019
              13         14         15         16         17         18
     1  O   -0.000019  -0.000003   0.000177   0.003452   0.000125   0.000000
     2  N   -0.000025  -0.000055   0.001640  -0.026836  -0.004099  -0.000035
     3  O   -0.000003   0.000000  -0.000013   0.001944   0.011944   0.000008
     4  C   -0.010504   0.002968  -0.061316   0.318356  -0.027164   0.000944
     5  C    0.000465   0.004820  -0.003708  -0.041203   0.377314  -0.024353
     6  N   -0.044347  -0.005572   0.001872  -0.001271  -0.033901   0.328357
     7  C    0.332298  -0.040246  -0.058216  -0.002336   0.001427  -0.028453
     8  H   -0.040378  -0.000941   0.004047   0.000022  -0.000019  -0.002669
     9  C   -0.050406   0.003865  -0.012879  -0.000893  -0.000065   0.000841
    10  C   -0.001730  -0.000391   0.001460  -0.000025   0.000001  -0.000121
    11  C   -0.047894   0.003955  -0.007733   0.000003   0.000000   0.000011
    12  C    0.368228  -0.040736  -0.074159   0.002508   0.000001  -0.000136
    13  C    5.024207   0.402305   0.239844  -0.069752  -0.000042   0.003681
    14  H    0.402305   0.519308  -0.035826  -0.004836   0.000064   0.000009
    15  N    0.239844  -0.035826   6.936258   0.587566  -0.000059  -0.000119
    16  C   -0.069752  -0.004836   0.587566   4.699859   0.001652  -0.000213
    17  H   -0.000042   0.000064  -0.000059   0.001652   0.386109  -0.001870
    18  H    0.003681   0.000009  -0.000119  -0.000213  -0.001870   0.324410
    19  H   -0.006275   0.000065   0.006958   0.002533   0.000011  -0.000127
    20  H    0.003863  -0.000049   0.000079  -0.000031  -0.000001   0.002870
    21  H   -0.000377   0.000009  -0.000029   0.000002  -0.000000  -0.000000
    22  H    0.000319  -0.000044   0.000002  -0.000001   0.000000   0.000002
    23  H   -0.005860   0.000008   0.006763   0.000062   0.000000   0.000000
    24  H    0.004142  -0.000058   0.000044   0.000005   0.000000  -0.000000
    25  H   -0.034470  -0.002657   0.000764  -0.000061  -0.000000   0.000002
    26  H   -0.044814  -0.000906   0.004187  -0.000055   0.000000  -0.000001
    27  H    0.004879  -0.000174  -0.039788   0.402360  -0.000059   0.000002
              19         20         21         22         23         24
     1  O    0.000000   0.000000  -0.000000  -0.000000   0.000000   0.000000
     2  N    0.000000  -0.000000  -0.000000   0.000000  -0.000000   0.000000
     3  O    0.000000   0.000000   0.000000  -0.000000   0.000000   0.000000
     4  C   -0.000765  -0.000026   0.000000  -0.000000   0.000025   0.000000
     5  C    0.000656   0.000029   0.000001  -0.000002  -0.000000  -0.000000
     6  N    0.000642  -0.001712  -0.000059  -0.000098  -0.000024   0.000004
     7  C   -0.034997  -0.041649   0.004043  -0.004218   0.000428  -0.000141
     8  H    0.004098  -0.001853  -0.000080   0.003510   0.000033  -0.000098
     9  C    0.385962   0.397241  -0.035834  -0.045689  -0.002004   0.004395
    10  C   -0.032568  -0.037369   0.400145   0.395973  -0.040092  -0.038481
    11  C   -0.002264   0.004139  -0.035841  -0.045621   0.396699   0.400299
    12  C    0.000629  -0.000361   0.004211  -0.001229  -0.036629  -0.037869
    13  C   -0.006275   0.003863  -0.000377   0.000319  -0.005860   0.004142
    14  H    0.000065  -0.000049   0.000009  -0.000044   0.000008  -0.000058
    15  N    0.006958   0.000079  -0.000029   0.000002   0.006763   0.000044
    16  C    0.002533  -0.000031   0.000002  -0.000001   0.000062   0.000005
    17  H    0.000011  -0.000001  -0.000000   0.000000   0.000000   0.000000
    18  H   -0.000127   0.002870  -0.000000   0.000002   0.000000  -0.000000
    19  H    0.506827  -0.024023  -0.002593   0.003757   0.001641  -0.000070
    20  H   -0.024023   0.550146  -0.002614  -0.002967  -0.000049  -0.000090
    21  H   -0.002593  -0.002614   0.526076  -0.024694  -0.002813  -0.002059
    22  H    0.003757  -0.002967  -0.024694   0.568839   0.004061  -0.003596
    23  H    0.001641  -0.000049  -0.002813   0.004061   0.509634  -0.024990
    24  H   -0.000070  -0.000090  -0.002059  -0.003596  -0.024990   0.541024
    25  H   -0.000027   0.000011  -0.000086  -0.000082  -0.002093  -0.002380
    26  H    0.000023  -0.000035  -0.000074   0.002465   0.003821  -0.002767
    27  H    0.000076  -0.000000  -0.000000   0.000000  -0.000022  -0.000000
              25         26         27
     1  O    0.000000   0.000000   0.005322
     2  N   -0.000000  -0.000000  -0.000246
     3  O    0.000000   0.000000   0.000002
     4  C    0.000019   0.000006  -0.066122
     5  C   -0.000001  -0.000001   0.002141
     6  N   -0.000071  -0.000067   0.000045
     7  C    0.004981  -0.004453  -0.000402
     8  H   -0.000005   0.001605   0.000009
     9  C   -0.000369   0.001041  -0.000059
    10  C    0.004097  -0.002402   0.000005
    11  C   -0.033924  -0.042316   0.000005
    12  C    0.395439   0.394685  -0.000019
    13  C   -0.034470  -0.044814   0.004879
    14  H   -0.002657  -0.000906  -0.000174
    15  N    0.000764   0.004187  -0.039788
    16  C   -0.000061  -0.000055   0.402360
    17  H   -0.000000   0.000000  -0.000059
    18  H    0.000002  -0.000001   0.000002
    19  H   -0.000027   0.000023   0.000076
    20  H    0.000011  -0.000035  -0.000000
    21  H   -0.000086  -0.000074  -0.000000
    22  H   -0.000082   0.002465   0.000000
    23  H   -0.002093   0.003821  -0.000022
    24  H   -0.002380  -0.002767  -0.000000
    25  H    0.510368  -0.023099  -0.000010
    26  H   -0.023099   0.560952   0.000001
    27  H   -0.000010   0.000001   0.452276
 Mulliken charges:
               1
     1  O   -0.456597
     2  N    0.504722
     3  O   -0.485176
     4  C   -0.023631
     5  C    0.198107
     6  N   -0.793585
     7  C    0.058996
     8  H    0.178680
     9  C   -0.311194
    10  C   -0.321184
    11  C   -0.315637
    12  C   -0.312226
    13  C   -0.027338
    14  H    0.195118
    15  N   -0.497818
    16  C    0.127188
    17  H    0.288631
    18  H    0.396958
    19  H    0.189833
    20  H    0.154452
    21  H    0.172667
    22  H    0.149314
    23  H    0.191400
    24  H    0.162685
    25  H    0.183654
    26  H    0.152205
    27  H    0.239777
 Sum of Mulliken charges =  -0.00000
 Mulliken charges with hydrogens summed into heavy atoms:
               1
     1  O   -0.456597
     2  N    0.504722
     3  O   -0.485176
     4  C   -0.023631
     5  C    0.486738
     6  N   -0.396627
     7  C    0.237676
     9  C    0.033091
    10  C    0.000797
    11  C    0.038448
    12  C    0.023632
    13  C    0.167780
    15  N   -0.497818
    16  C    0.366965
 Electronic spatial extent (au):  <R**2>=           3126.3297
 Charge=              0.0000 electrons
 Dipole moment (field-independent basis, Debye):
    X=              5.3582    Y=              4.5016    Z=              0.5000  Tot=              7.0160
 Quadrupole moment (field-independent basis, Debye-Ang):
   XX=           -105.4551   YY=            -80.2538   ZZ=            -82.2598
   XY=             -1.8735   XZ=              0.9342   YZ=              0.0446
 Traceless Quadrupole moment (field-independent basis, Debye-Ang):
   XX=            -16.1322   YY=              9.0691   ZZ=              7.0631
   XY=             -1.8735   XZ=              0.9342   YZ=              0.0446
 Octapole moment (field-independent basis, Debye-Ang**2):
  XXX=            101.4317  YYY=             36.8062  ZZZ=             -5.3121  XYY=             -1.3958
  XXY=             11.7814  XXZ=             -0.5497  XZZ=             -8.2946  YZZ=             -2.8708
  YYZ=              0.7439  XYZ=             -1.4348
 Hexadecapole moment (field-independent basis, Debye-Ang**3):
 XXXX=          -3561.2045 YYYY=           -619.7494 ZZZZ=           -298.9899 XXXY=            -41.5568
 XXXZ=             27.4943 YYYX=            -21.0318 YYYZ=             11.3151 ZZZX=             21.8951
 ZZZY=              8.7924 XXYY=           -657.0169 XXZZ=           -543.6500 YYZZ=           -164.5221
 XXYZ=              2.3272 YYXZ=             10.4036 ZZXY=              2.3155
 N-N= 9.174389923656D+02 E-N=-3.380887862558D+03  KE= 6.588550669731D+02
 Calling FoFJK, ICntrl=  10002127 FMM=F ISym2X=0 I1Cent= 0 IOpClX= 0 NMat=1 NMatS=1 NMatT=0.
 -------------------------------------------------------------------
 Center     Atomic                   Forces (Hartrees/Bohr)
 Number     Number              X              Y              Z
 -------------------------------------------------------------------
      1        8           0.002380285   -0.019255915   -0.003137022
      2        7           0.039258737    0.013809791   -0.001789430
      3        8          -0.005249981    0.015797511    0.003646910
      4        6          -0.003011968    0.008671479    0.009463516
      5        6           0.003154790   -0.016607067   -0.005209672
      6        7           0.014756624   -0.010168284   -0.006424692
      7        6          -0.004652196    0.005222750    0.002883347
      8        1          -0.010091218   -0.001725012   -0.007656793
      9        6          -0.003953645    0.000170253   -0.002134185
     10        6           0.002846741   -0.000873217    0.000982939
     11        6          -0.001043640   -0.004611852   -0.002415282
     12        6           0.000823623   -0.008746479   -0.002870549
     13        6           0.008905748   -0.001966362    0.004706510
     14        1           0.000885950    0.004470617   -0.009853047
     15        7           0.000083778    0.001009195    0.001325953
     16        6          -0.021045261    0.007440443    0.003646882
     17        1           0.007138756   -0.005969739   -0.006317679
     18        1          -0.017586010   -0.001693874    0.006220378
     19        1           0.003105834    0.005888254    0.007701396
     20        1          -0.003249509   -0.007343556    0.002602314
     21        1          -0.004366580    0.002403997    0.009618858
     22        1          -0.003985255   -0.003978505   -0.007406548
     23        1           0.003980927    0.006130387    0.009298919
     24        1          -0.009382595    0.002623077   -0.002135743
     25        1          -0.000776198    0.010587542   -0.002408368
     26        1          -0.004778273   -0.004807040   -0.004373446
     27        1           0.005850535    0.003521607    0.002034534
 -------------------------------------------------------------------
 Cartesian Forces:  Max     0.039258737 RMS     0.008383374

 GradGradGradGradGradGradGradGradGradGradGradGradGradGradGradGradGradGrad
 Berny optimization.
 FormGI is forming the generalized inverse of G from B-inverse, IUseBI=4.
 Internal  Forces:  Max     0.037702712 RMS     0.006885427
 Search for a local minimum.
 Step number   1 out of a maximum of  100
 All quantities printed in internal units (Hartrees-Bohrs-Radians)
 Mixed Optimization -- RFO/linear search
 Second derivative matrix not updated -- first step.
 ITU=  0
     Eigenvalues ---    0.00231   0.00770   0.01043   0.01145   0.01197
     Eigenvalues ---    0.01482   0.01531   0.01602   0.01971   0.02017
     Eigenvalues ---    0.02087   0.02689   0.03663   0.04506   0.04694
     Eigenvalues ---    0.04838   0.05081   0.05138   0.05304   0.05893
     Eigenvalues ---    0.06265   0.07216   0.07701   0.07725   0.07872
     Eigenvalues ---    0.07993   0.08050   0.08056   0.10459   0.11738
     Eigenvalues ---    0.12268   0.13480   0.15250   0.15730   0.15991
     Eigenvalues ---    0.16000   0.20086   0.21951   0.23154   0.24981
     Eigenvalues ---    0.25000   0.25000   0.25370   0.26202   0.26651
     Eigenvalues ---    0.27980   0.28084   0.28472   0.29638   0.31460
     Eigenvalues ---    0.31647   0.32046   0.32238   0.32289   0.32381
     Eigenvalues ---    0.32387   0.32404   0.32515   0.32526   0.32580
     Eigenvalues ---    0.33330   0.33391   0.33599   0.35367   0.43883
     Eigenvalues ---    0.44231   0.49162   0.67001   0.90427   0.91161
     Eigenvalues --- 1000.000001000.000001000.000001000.000001000.00000
     Eigenvalues --- 1000.000001000.000001000.000001000.000001000.00000
     Eigenvalues --- 1000.000001000.000001000.000001000.000001000.00000
     Eigenvalues --- 1000.000001000.000001000.000001000.000001000.00000
     Eigenvalues --- 1000.000001000.000001000.000001000.000001000.00000
     Eigenvalues --- 1000.000001000.000001000.000001000.000001000.00000
     Eigenvalues --- 1000.000001000.000001000.000001000.000001000.00000
     Eigenvalues --- 1000.000001000.000001000.000001000.000001000.00000
     Eigenvalues --- 1000.000001000.000001000.000001000.000001000.00000
     Eigenvalues --- 1000.000001000.000001000.000001000.000001000.00000
     Eigenvalues --- 1000.000001000.000001000.000001000.000001000.00000
     Eigenvalues --- 1000.000001000.000001000.000001000.000001000.00000
     Eigenvalues --- 1000.000001000.000001000.000001000.000001000.00000
     Eigenvalues --- 1000.000001000.000001000.000001000.000001000.00000
     Eigenvalues --- 1000.000001000.000001000.000001000.000001000.00000
     Eigenvalues --- 1000.000001000.000001000.000001000.000001000.00000
     Eigenvalues --- 1000.000001000.000001000.000001000.000001000.00000
     Eigenvalues --- 1000.000001000.000001000.000001000.000001000.00000
     Eigenvalues --- 1000.00000
 RFO step:  Lambda=-2.38409517D-02 EMin= 2.30797107D-03
 Linear search not attempted -- first point.
 Iteration  1 RMS(Cart)=  0.05560492 RMS(Int)=  0.00104844
 Iteration  2 RMS(Cart)=  0.00112177 RMS(Int)=  0.00022269
 Iteration  3 RMS(Cart)=  0.00000090 RMS(Int)=  0.00022268
 Iteration  1 RMS(Cart)=  0.00002995 RMS(Int)=  0.00002248
 Iteration  2 RMS(Cart)=  0.00001468 RMS(Int)=  0.00002500
 Iteration  3 RMS(Cart)=  0.00000773 RMS(Int)=  0.00002774
 Iteration  4 RMS(Cart)=  0.00000452 RMS(Int)=  0.00002946
 Iteration  5 RMS(Cart)=  0.00000301 RMS(Int)=  0.00003051
 Iteration  6 RMS(Cart)=  0.00000225 RMS(Int)=  0.00003119
 Iteration  7 RMS(Cart)=  0.00000181 RMS(Int)=  0.00003167
 Iteration  8 RMS(Cart)=  0.00000150 RMS(Int)=  0.00003203
 Iteration  9 RMS(Cart)=  0.00000127 RMS(Int)=  0.00003232
 Iteration 10 RMS(Cart)=  0.00000108 RMS(Int)=  0.00003255
 Iteration 11 RMS(Cart)=  0.00000092 RMS(Int)=  0.00003275
 Variable       Old X    -DE/DX   Delta X   Delta X   Delta X     New X
                                 (Linear)    (Quad)   (Total)
    R1        2.32402   0.01795   0.00000   0.01919   0.01919   2.34322
    R2        2.32737   0.01585   0.00000   0.01708   0.01708   2.34445
    R3        2.88691  -0.03770   0.00000  -0.11774  -0.11774   2.76917
    R4        2.64502  -0.03475   0.00000  -0.07505  -0.07481   2.57021
    R5        2.80961  -0.02181   0.00000  -0.06249  -0.06226   2.74734
    R6        2.59072  -0.02449   0.00000  -0.04745  -0.04735   2.54336
    R7        2.08370  -0.01038   0.00000  -0.02902  -0.02902   2.05467
    R8        2.82449  -0.01942   0.00000  -0.05387  -0.05398   2.77051
    R9        1.93295  -0.00663   0.00000  -0.01434  -0.01434   1.91861
   R10        2.11843  -0.01189   0.00000  -0.03513  -0.03513   2.08330
   R11        2.92739  -0.01299   0.00000  -0.04424  -0.04426   2.88313
   R12        2.90265  -0.00445   0.00000  -0.00876  -0.00881   2.89385
   R13        2.91137  -0.00463   0.00000  -0.01433  -0.01435   2.89702
   R14        2.09912  -0.00996   0.00000  -0.02855  -0.02855   2.07057
   R15        2.09892  -0.00802   0.00000  -0.02298  -0.02298   2.07594
   R16        2.90431  -0.00183   0.00000  -0.00715  -0.00720   2.89711
   R17        2.10141  -0.01058   0.00000  -0.03043  -0.03043   2.07098
   R18        2.10317  -0.00901   0.00000  -0.02599  -0.02599   2.07719
   R19        2.91768  -0.00908   0.00000  -0.02875  -0.02873   2.88896
   R20        2.10411  -0.01167   0.00000  -0.03372  -0.03372   2.07039
   R21        2.10110  -0.00995   0.00000  -0.02860  -0.02860   2.07250
   R22        2.93531  -0.01057   0.00000  -0.03639  -0.03637   2.89894
   R23        2.10152  -0.01073   0.00000  -0.03085  -0.03085   2.07066
   R24        2.09795  -0.00786   0.00000  -0.02247  -0.02247   2.07547
   R25        2.10760  -0.00916   0.00000  -0.02660  -0.02660   2.08100
   R26        2.76801  -0.00524   0.00000  -0.01098  -0.01129   2.75672
   R27        2.44273  -0.00576   0.00000  -0.00784  -0.00787   2.43486
   R28        2.08011  -0.00623   0.00000  -0.01730  -0.01730   2.06281
    A1        2.15850   0.01095   0.00000   0.04013   0.03998   2.19848
    A2        2.05376  -0.00763   0.00000  -0.02774  -0.02788   2.02588
    A3        2.07083  -0.00331   0.00000  -0.01198  -0.01212   2.05871
    A4        2.03266  -0.00745   0.00000  -0.02491  -0.02528   2.00738
    A5        2.03389  -0.00307   0.00000  -0.00887  -0.00927   2.02462
    A6        2.21586   0.01047   0.00000   0.03249   0.03272   2.24858
    A7        2.20074   0.00611   0.00000   0.01911   0.01942   2.22016
    A8        2.06411  -0.00329   0.00000  -0.01058  -0.01082   2.05328
    A9        2.01737  -0.00278   0.00000  -0.00769  -0.00795   2.00943
   A10        2.25351  -0.00552   0.00000  -0.01905  -0.01911   2.23440
   A11        2.11560  -0.01251   0.00000  -0.07176  -0.07210   2.04350
   A12        1.87498   0.01823   0.00000   0.09806   0.09822   1.97320
   A13        1.83803  -0.00160   0.00000  -0.01776  -0.01757   1.82046
   A14        2.00676  -0.00112   0.00000  -0.01259  -0.01259   1.99417
   A15        1.96718   0.00103   0.00000   0.00185   0.00137   1.96855
   A16        1.85192   0.00268   0.00000   0.02395   0.02378   1.87570
   A17        1.84914   0.00082   0.00000   0.01804   0.01788   1.86702
   A18        1.93680  -0.00149   0.00000  -0.00929  -0.00897   1.92783
   A19        1.91017   0.00014   0.00000  -0.00471  -0.00485   1.90532
   A20        1.92259  -0.00073   0.00000  -0.01296  -0.01292   1.90967
   A21        1.92282  -0.00165   0.00000  -0.00707  -0.00706   1.91576
   A22        1.91925  -0.00040   0.00000   0.00570   0.00566   1.92490
   A23        1.90446   0.00305   0.00000   0.02442   0.02443   1.92889
   A24        1.88435  -0.00039   0.00000  -0.00496  -0.00521   1.87914
   A25        1.94044  -0.00087   0.00000   0.00559   0.00547   1.94592
   A26        1.91896  -0.00070   0.00000  -0.00683  -0.00685   1.91211
   A27        1.90498   0.00031   0.00000  -0.00295  -0.00301   1.90197
   A28        1.91614   0.00079   0.00000   0.00710   0.00714   1.92328
   A29        1.89849   0.00171   0.00000   0.01113   0.01116   1.90964
   A30        1.88379  -0.00122   0.00000  -0.01451  -0.01460   1.86919
   A31        1.94469   0.00064   0.00000   0.00504   0.00517   1.94986
   A32        1.90236   0.00062   0.00000   0.00589   0.00584   1.90820
   A33        1.91747   0.00038   0.00000   0.00527   0.00524   1.92272
   A34        1.90654  -0.00113   0.00000  -0.01410  -0.01415   1.89239
   A35        1.91537  -0.00048   0.00000   0.00013   0.00004   1.91541
   A36        1.87603  -0.00007   0.00000  -0.00260  -0.00263   1.87339
   A37        1.94791  -0.00297   0.00000  -0.01801  -0.01803   1.92987
   A38        1.90595   0.00254   0.00000   0.01689   0.01675   1.92269
   A39        1.91068   0.00139   0.00000   0.01317   0.01315   1.92383
   A40        1.90613   0.00019   0.00000  -0.00294  -0.00278   1.90335
   A41        1.91134  -0.00021   0.00000  -0.00477  -0.00471   1.90663
   A42        1.88058  -0.00087   0.00000  -0.00387  -0.00405   1.87653
   A43        1.84659   0.00455   0.00000   0.02352   0.02356   1.87014
   A44        1.93876  -0.00433   0.00000  -0.03120  -0.03161   1.90715
   A45        1.98286   0.00082   0.00000   0.01142   0.01161   1.99447
   A46        1.88058   0.00223   0.00000   0.03007   0.03037   1.91095
   A47        1.89202  -0.00388   0.00000  -0.02834  -0.02838   1.86363
   A48        1.91842   0.00081   0.00000  -0.00316  -0.00302   1.91540
   A49        2.08374  -0.00622   0.00000  -0.01439  -0.01475   2.06899
   A50        2.25154  -0.00500   0.00000  -0.02096  -0.02101   2.23054
   A51        1.97881   0.00562   0.00000   0.02754   0.02706   2.00587
   A52        2.05281  -0.00061   0.00000  -0.00628  -0.00675   2.04606
    D1       -3.03679  -0.00074   0.00000  -0.03180  -0.03115  -3.06794
    D2        0.14417   0.00038   0.00000   0.00000  -0.00000   0.14417
    D3        0.11969  -0.00176   0.00000  -0.06198  -0.06166   0.05803
    D4       -2.98255  -0.00065   0.00000  -0.03018  -0.03051  -3.01305
    D5        3.07510   0.00057   0.00000   0.01512   0.01514   3.09024
    D6       -0.01713  -0.00044   0.00000  -0.00595  -0.00600  -0.02313
    D7       -0.11057  -0.00110   0.00000  -0.02177  -0.02217  -0.13273
    D8        3.08039  -0.00211   0.00000  -0.04284  -0.04330   3.03708
    D9       -2.69969  -0.00199   0.00000  -0.04461  -0.04518  -2.74487
   D10        0.43452   0.00043   0.00000   0.00451   0.00425   0.43877
   D11        0.48600  -0.00022   0.00000  -0.00735  -0.00722   0.47878
   D12       -2.66297   0.00220   0.00000   0.04177   0.04220  -2.62076
   D13       -0.13026  -0.00011   0.00000   0.02280   0.02301  -0.10724
   D14        2.67555   0.00381   0.00000   0.06960   0.06865   2.74421
   D15        2.96313   0.00085   0.00000   0.04328   0.04360   3.00673
   D16       -0.51424   0.00477   0.00000   0.09007   0.08924  -0.42500
   D17       -2.48185  -0.00072   0.00000  -0.01815  -0.01777  -2.49962
   D18        1.76951  -0.00236   0.00000  -0.02912  -0.02880   1.74071
   D19       -0.47384  -0.00017   0.00000  -0.00618  -0.00617  -0.48001
   D20        0.95958  -0.00008   0.00000  -0.03664  -0.03712   0.92246
   D21       -1.07225  -0.00172   0.00000  -0.04761  -0.04814  -1.12039
   D22        2.96759   0.00047   0.00000  -0.02467  -0.02552   2.94207
   D23        2.94450   0.00234   0.00000   0.02523   0.02513   2.96963
   D24       -1.22653   0.00147   0.00000   0.02107   0.02099  -1.20554
   D25        0.85048  -0.00049   0.00000   0.00247   0.00246   0.85294
   D26        0.92062   0.00316   0.00000   0.03822   0.03822   0.95884
   D27        3.03278   0.00229   0.00000   0.03407   0.03408   3.06686
   D28       -1.17341   0.00032   0.00000   0.01547   0.01556  -1.15785
   D29       -1.08028   0.00144   0.00000   0.00826   0.00824  -1.07204
   D30        1.03188   0.00057   0.00000   0.00410   0.00410   1.03598
   D31        3.10888  -0.00139   0.00000  -0.01450  -0.01443   3.09445
   D32       -2.90035  -0.00103   0.00000  -0.01298  -0.01275  -2.91310
   D33       -0.86429   0.00202   0.00000   0.02027   0.02012  -0.84417
   D34        1.30933   0.00029   0.00000   0.00000  -0.00001   1.30932
   D35       -0.89906  -0.00193   0.00000  -0.02261  -0.02250  -0.92156
   D36        1.13700   0.00112   0.00000   0.01064   0.01037   1.14737
   D37       -2.97256  -0.00061   0.00000  -0.00963  -0.00976  -2.98232
   D38        1.10357   0.00095   0.00000   0.01103   0.01114   1.11471
   D39        3.13963   0.00400   0.00000   0.04429   0.04401  -3.09954
   D40       -0.96993   0.00227   0.00000   0.02401   0.02388  -0.94605
   D41        0.95662   0.00065   0.00000   0.00000   0.00001   0.95663
   D42        3.08229   0.00059   0.00000   0.00804   0.00800   3.09029
   D43       -1.13767  -0.00112   0.00000  -0.01539  -0.01536  -1.15303
   D44       -1.15757   0.00172   0.00000   0.01543   0.01551  -1.14206
   D45        0.96811   0.00166   0.00000   0.02348   0.02350   0.99161
   D46        3.03133  -0.00005   0.00000   0.00004   0.00014   3.03147
   D47        3.06186   0.00060   0.00000   0.00349   0.00346   3.06532
   D48       -1.09565   0.00054   0.00000   0.01154   0.01145  -1.08420
   D49        0.96757  -0.00118   0.00000  -0.01190  -0.01191   0.95566
   D50       -0.92188  -0.00081   0.00000   0.00000   0.00001  -0.92187
   D51        1.18339  -0.00140   0.00000  -0.01050  -0.01051   1.17288
   D52       -3.04841  -0.00089   0.00000  -0.00715  -0.00719  -3.05559
   D53       -3.04919   0.00012   0.00000   0.00008   0.00010  -3.04909
   D54       -0.94392  -0.00047   0.00000  -0.01043  -0.01042  -0.95434
   D55        1.10747   0.00003   0.00000  -0.00707  -0.00710   1.10037
   D56        1.17626   0.00014   0.00000   0.00700   0.00704   1.18330
   D57       -3.00165  -0.00045   0.00000  -0.00350  -0.00349  -3.00514
   D58       -0.95027   0.00005   0.00000  -0.00015  -0.00016  -0.95042
   D59        0.98781  -0.00083   0.00000  -0.01174  -0.01179   0.97602
   D60        3.09700  -0.00080   0.00000  -0.01568  -0.01583   3.08117
   D61       -1.13112   0.00044   0.00000  -0.00288  -0.00285  -1.13397
   D62       -1.11500  -0.00126   0.00000  -0.01299  -0.01298  -1.12798
   D63        0.99419  -0.00123   0.00000  -0.01693  -0.01702   0.97716
   D64        3.04925   0.00000   0.00000  -0.00412  -0.00405   3.04521
   D65        3.11556  -0.00024   0.00000  -0.00162  -0.00163   3.11393
   D66       -1.05844  -0.00021   0.00000  -0.00556  -0.00567  -1.06411
   D67        0.99663   0.00102   0.00000   0.00724   0.00731   1.00394
   D68       -1.05250   0.00004   0.00000  -0.00015  -0.00006  -1.05255
   D69       -3.12751   0.00159   0.00000   0.00884   0.00848  -3.11903
   D70        1.08025   0.00151   0.00000   0.01142   0.01132   1.09157
   D71        3.12161  -0.00136   0.00000  -0.00778  -0.00761   3.11399
   D72        1.04660   0.00019   0.00000   0.00121   0.00092   1.04752
   D73       -1.02883   0.00011   0.00000   0.00379   0.00376  -1.02507
   D74        1.06605  -0.00030   0.00000   0.00138   0.00158   1.06763
   D75       -1.00896   0.00125   0.00000   0.01037   0.01012  -0.99884
   D76       -3.08438   0.00117   0.00000   0.01295   0.01296  -3.07143
   D77       -1.17216   0.00377   0.00000   0.00000  -0.00001  -1.17216
   D78        3.06376   0.00018   0.00000  -0.01734  -0.01721   3.04656
   D79        1.01239  -0.00071   0.00000  -0.03526  -0.03551   0.97688
   D80        0.13297   0.00186   0.00000   0.01955   0.01925   0.15223
   D81       -3.00098  -0.00067   0.00000  -0.03145  -0.03127  -3.03225
         Item               Value     Threshold  Converged?
 Maximum Force            0.037703     0.000450     NO 
 RMS     Force            0.006963     0.000300     NO 
 Maximum Displacement     0.291991     0.001800     NO 
 RMS     Displacement     0.055757     0.001200     NO 
 Predicted change in Energy=-1.334040D-02
 GradGradGradGradGradGradGradGradGradGradGradGradGradGradGradGradGradGrad

                          Input orientation:                          
 ---------------------------------------------------------------------
 Center     Atomic      Atomic             Coordinates (Angstroms)
 Number     Number       Type             X           Y           Z
 ---------------------------------------------------------------------
      1          8           0       -3.480339   -1.425183   -0.223154
      2          7           0       -3.128145   -0.250598   -0.039159
      3          8           0       -3.883235    0.714935    0.152521
      4          6           0       -1.683498   -0.005106   -0.030992
      5          6           0       -1.318830    1.272146    0.261410
      6          7           0       -0.068051    1.752436    0.389051
      7          6           0        1.192903    1.004792    0.368023
      8          1           0        1.826018    1.517549    1.110726
      9          6           0        1.926568    1.050631   -0.968895
     10          6           0        3.326921    0.451379   -0.795357
     11          6           0        3.263950   -0.961105   -0.202679
     12          6           0        2.441170   -0.998032    1.085268
     13          6           0        1.032144   -0.442815    0.840939
     14          1           0        0.463410   -0.456110    1.783831
     15          7           0        0.394992   -1.324133   -0.131377
     16          6           0       -0.844330   -1.125792   -0.422765
     17          1           0       -2.111400    1.995006    0.438889
     18          1           0        0.059461    2.750929    0.256555
     19          1           0        1.359945    0.482441   -1.714989
     20          1           0        1.993085    2.089182   -1.320719
     21          1           0        3.840592    0.432993   -1.763261
     22          1           0        3.913700    1.100809   -0.130396
     23          1           0        2.801329   -1.638774   -0.928693
     24          1           0        4.276406   -1.334194   -0.006377
     25          1           0        2.361346   -2.027115    1.453069
     26          1           0        2.933415   -0.404658    1.867475
     27          1           0       -1.328515   -1.858621   -1.070916
 ---------------------------------------------------------------------
                    Distance matrix (angstroms):
                    1          2          3          4          5
     1  O    0.000000
     2  N    1.239978   0.000000
     3  O    2.209879   1.240628   0.000000
     4  C    2.298300   1.465380   2.321849   0.000000
     5  C    3.490345   2.383844   2.626502   1.360094   0.000000
     6  N    4.702740   3.682348   3.960806   2.423852   1.345890
     7  C    5.300327   4.518104   5.088972   3.074539   2.528171
     8  H    6.212594   5.384451   5.844477   3.992330   3.266746
     9  C    5.993365   5.301672   5.926557   3.876444   3.477834
    10  C    7.084328   6.537009   7.276970   5.088903   4.834607
    11  C    6.760267   6.433540   7.349662   5.041889   5.119049
    12  C    6.079366   5.730643   6.618337   4.386892   4.468787
    13  C    4.739181   4.256703   5.096593   2.885579   2.967158
    14  H    4.529928   4.032963   4.788094   2.847139   2.912218
    15  N    3.877734   3.684220   4.747802   2.463743   3.135623
    16  C    2.660455   2.475667   3.599191   1.453831   2.538376
    17  H    3.742992   2.510984   2.204538   2.098652   1.087287
    18  H    5.495473   4.388331   4.438575   3.273579   2.021512
    19  H    5.412296   4.846515   5.570690   3.512277   3.421349
    20  H    6.596497   5.774423   6.212095   4.423426   3.760247
    21  H    7.708487   7.211319   7.962865   5.805881   5.605632
    22  H    7.814157   7.170928   7.811603   5.706273   5.249975
    23  H    6.324773   6.154427   7.168847   4.856790   5.183195
    24  H    7.760306   7.483490   8.414506   6.106352   6.178299
    25  H    6.107154   5.959637   6.942987   4.759383   5.084179
    26  H    6.822641   6.356217   7.117673   5.007964   4.844864
    27  H    2.353064   2.624676   3.827085   2.154755   3.402482
                    6          7          8          9         10
     6  N    0.000000
     7  C    1.466090   0.000000
     8  H    2.040461   1.102434   0.000000
     9  C    2.512977   1.525686   2.133764   0.000000
    10  C    3.823795   2.492740   2.650015   1.533039   0.000000
    11  C    4.337704   2.911990   3.152206   2.534316   1.533084
    12  C    3.787609   2.466559   2.589828   2.946425   2.534186
    13  C    2.496750   1.531359   2.132146   2.511151   2.956866
    14  H    2.665621   2.161227   2.491003   3.462455   3.959223
    15  N    3.154446   2.511963   3.415525   2.947315   3.491351
    16  C    3.089636   3.052057   4.058276   3.565522   4.475001
    17  H    2.058300   3.450212   4.022759   4.379370   5.786319
    18  H    1.015285   2.084733   2.317662   2.806926   4.131676
    19  H    2.842366   2.153995   3.045215   1.095699   2.171562
    20  H    2.699073   2.160565   2.503318   1.098541   2.176585
    21  H    4.653049   3.446677   3.673496   2.162402   1.095916
    22  H    4.068019   2.767738   2.464238   2.157381   1.099200
    23  H    4.633584   3.355138   3.882375   2.828378   2.159345
    24  H    5.343964   3.888318   3.922340   3.483614   2.170779
    25  H    4.617262   3.425645   3.601169   3.940491   3.482915
    26  H    3.980903   2.695234   2.343902   3.343143   2.824592
    27  H    4.093898   4.077650   5.109712   4.366889   5.204337
                   11         12         13         14         15
    11  C    0.000000
    12  C    1.528770   0.000000
    13  C    2.517681   1.534053   0.000000
    14  H    3.470484   2.166381   1.101217   0.000000
    15  N    2.892714   2.402793   1.458795   2.103845   0.000000
    16  C    4.117465   3.617319   2.363167   2.650985   1.288474
    17  H    6.168029   5.486527   3.998310   3.800853   4.198082
    18  H    4.925327   4.518187   3.389340   3.575031   4.107214
    19  H    2.827744   3.346981   2.737941   3.731808   2.588952
    20  H    3.488461   3.939600   3.465139   4.296119   3.952108
    21  H    2.170585   3.481426   3.928903   4.977722   4.197940
    22  H    2.163074   2.837484   3.410225   4.241787   4.273365
    23  H    1.095605   2.143900   2.773434   3.771253   2.554442
    24  H    1.096721   2.161662   3.469544   4.302884   3.883439
    25  H    2.166235   1.095747   2.156731   2.485885   2.621298
    26  H    2.168968   1.098292   2.161033   2.471956   3.359231
    27  H    4.759212   4.427219   3.351478   3.650700   2.034425
                   16         17         18         19         20
    16  C    0.000000
    17  H    3.476679   0.000000
    18  H    4.038228   2.305928   0.000000
    19  H    3.019120   4.356292   3.274796   0.000000
    20  H    4.381016   4.466753   2.581590   1.771421   0.000000
    21  H    5.116174   6.535714   4.873340   2.481609   2.520335
    22  H    5.261376   6.117638   4.210438   3.068383   2.466275
    23  H    3.716173   6.261753   5.309629   2.682424   3.834658
    24  H    5.141862   7.217056   5.877073   3.837350   4.319786
    25  H    3.821976   6.100122   5.436914   4.163805   4.977291
    26  H    4.476225   5.766229   4.562062   4.012081   4.155483
    27  H    1.091592   4.212227   4.993657   3.622598   5.165324
                   21         22         23         24         25
    21  H    0.000000
    22  H    1.765664   0.000000
    23  H    2.463491   3.062673   0.000000
    24  H    2.529728   2.464990   1.766151   0.000000
    25  H    4.311041   3.834198   2.452996   2.505509   0.000000
    26  H    3.834954   2.686797   3.059256   2.485755   1.769565
    27  H    5.696534   6.092915   4.138136   5.729171   4.473698
                   26         27
    26  H    0.000000
    27  H    5.377006   0.000000
 Symmetry turned off by external request.
 Stoichiometry    C9H13N3O2
 Framework group  C1[X(C9H13N3O2)]
 Deg. of freedom    75
 Full point group                 C1      NOp   1
 Rotational constants (GHZ):           1.6875935           0.4216141           0.3721974
 Standard basis: 6-31G(d) (6D, 7F)
   236 basis functions,   444 primitive gaussians,   236 cartesian basis functions
    52 alpha electrons       52 beta electrons
       nuclear repulsion energy       932.1280465694 Hartrees.
 NAtoms=   27 NActive=   27 NUniq=   27 SFac= 1.00D+00 NAtFMM=   60 NAOKFM=F Big=F
 Integral buffers will be    131072 words long.
 Raffenetti 1 integral format.
 Two-electron integral symmetry is turned off.
 One-electron integrals computed using PRISM.
 NBasis=   236 RedAO= T EigKep=  1.01D-03  NBF=   236
 NBsUse=   236 1.00D-06 EigRej= -1.00D+00 NBFU=   236
 Initial guess from the checkpoint file:  "/home/alexey/tmp/Gau-1169437.chk"
 B after Tr=     0.055511    0.005620    0.000098
         Rot=    0.999999   -0.001034    0.000656    0.001175 Ang=  -0.19 deg.
 ExpMin= 1.61D-01 ExpMax= 5.48D+03 ExpMxC= 8.25D+02 IAcc=3 IRadAn=         5 AccDes= 0.00D+00
 Harris functional with IExCor=  205 and IRadAn=       5 diagonalized for initial guess.
 HarFok:  IExCor=  205 AccDes= 0.00D+00 IRadAn=         5 IDoV= 1 UseB2=F ITyADJ=14
 ICtDFT=  3500011 ScaDFX=  1.000000  1.000000  1.000000  1.000000
 FoFCou: FMM=F IPFlag=           0 FMFlag=      100000 FMFlg1=           0
         NFxFlg=           0 DoJE=T BraDBF=F KetDBF=T FulRan=T
         wScrn=  0.000000 ICntrl=       500 IOpCl=  0 I1Cent=   200000004 NGrid=           0
         NMat0=    1 NMatS0=      1 NMatT0=    0 NMatD0=    1 NMtDS0=    0 NMtDT0=    0
 Symmetry not used in FoFCou.
 Keep R1 ints in memory in canonical form, NReq=397720213.
 Requested convergence on RMS density matrix=1.00D-08 within 128 cycles.
 Requested convergence on MAX density matrix=1.00D-06.
 Requested convergence on             energy=1.00D-06.
 No special actions if energy rises.
 SCF Done:  E(RHF) =  -661.298239533     A.U. after   15 cycles
            NFock= 15  Conv=0.37D-08     -V/T= 2.0024
 ExpMin= 1.61D-01 ExpMax= 5.48D+03 ExpMxC= 8.25D+02 IAcc=3 IRadAn=         5 AccDes= 0.00D+00
 HarFok:  IExCor=  205 AccDes= 0.00D+00 IRadAn=         5 IDoV=-2 UseB2=F ITyADJ=14
 ICtDFT= 12500011 ScaDFX=  1.000000  1.000000  1.000000  1.000000
 Range of M.O.s used for correlation:    15   236
 NBasis=   236 NAE=    52 NBE=    52 NFC=    14 NFV=     0
 NROrb=    222 NOA=    38 NOB=    38 NVA=   184 NVB=   184
 Fully direct method using O(ONN) memory.
 JobTyp=1 Pass  1:  I=  15 to  52 NPSUse=  4 ParTrn=T ParDer=T DoDerP=T.
 Spin components of T(2) and E(2):
     alpha-alpha T2 =       0.9124374573D-01 E2=     -0.2723244484D+00
     alpha-beta  T2 =       0.4912715861D+00 E2=     -0.1488026562D+01
     beta-beta   T2 =       0.9124374573D-01 E2=     -0.2723244484D+00
 ANorm=    0.1293738412D+01
 E2 =    -0.2032675459D+01 EUMP2 =    -0.66333091499196D+03
          IDoAtm=111111111111111111111111111
          Differentiating once with respect to electric field.
                with respect to dipole field.
          Differentiating once with respect to nuclear coordinates.
 Keep R1 ints in memory in canonical form, NReq=397723379.
          There are     1 degrees of freedom in the 1st order CPHF.  IDoFFX=0 NUNeed=     1.
 LinEq1:  Iter=  0 NonCon=     1 RMS=4.57D-03 Max=1.05D-01 NDo=     1
 AX will form     1 AO Fock derivatives at one time.
 LinEq1:  Iter=  1 NonCon=     1 RMS=1.53D-03 Max=2.72D-02 NDo=     1
 LinEq1:  Iter=  2 NonCon=     1 RMS=6.41D-04 Max=1.77D-02 NDo=     1
 LinEq1:  Iter=  3 NonCon=     1 RMS=2.80D-04 Max=8.19D-03 NDo=     1
 LinEq1:  Iter=  4 NonCon=     1 RMS=8.71D-05 Max=1.94D-03 NDo=     1
 LinEq1:  Iter=  5 NonCon=     1 RMS=3.64D-05 Max=1.79D-03 NDo=     1
 LinEq1:  Iter=  6 NonCon=     1 RMS=1.41D-05 Max=5.34D-04 NDo=     1
 LinEq1:  Iter=  7 NonCon=     1 RMS=5.37D-06 Max=9.81D-05 NDo=     1
 LinEq1:  Iter=  8 NonCon=     1 RMS=2.14D-06 Max=5.26D-05 NDo=     1
 LinEq1:  Iter=  9 NonCon=     1 RMS=7.62D-07 Max=2.30D-05 NDo=     1
[...]
    27  H    4.724183   4.418632   3.356666   3.656513   2.029370
                   16         17         18         19         20
    16  C    0.000000
    17  H    3.463930   0.000000
    18  H    4.088366   2.235835   0.000000
    19  H    2.990824   4.303408   3.511734   0.000000
    20  H    4.375284   4.449317   2.881844   1.768537   0.000000
    21  H    5.096680   6.511290   5.086430   2.499197   2.521036
    22  H    5.248851   6.100617   4.313267   3.070231   2.461443
    23  H    3.695107   6.235096   5.421198   2.704261   3.842948
    24  H    5.133909   7.200932   5.936699   3.849659   4.317118
    25  H    3.821477   6.088346   5.369805   4.171509   4.985063
    26  H    4.495252   5.781335   4.485414   4.036040   4.182345
    27  H    1.089678   4.215421   5.079484   3.583741   5.148317
                   21         22         23         24         25
    21  H    0.000000
    22  H    1.758862   0.000000
    23  H    2.469433   3.062280   0.000000
    24  H    2.517356   2.459886   1.764580   0.000000
    25  H    4.311997   3.839561   2.444057   2.519678   0.000000
    26  H    3.846765   2.704466   3.060420   2.491704   1.767986
    27  H    5.653278   6.060710   4.090631   5.694881   4.454284
                   26         27
    26  H    0.000000
    27  H    5.378496   0.000000
 Symmetry turned off by external request.
 Stoichiometry    C9H13N3O2
 Framework group  C1[X(C9H13N3O2)]
 Deg. of freedom    75
 Full point group                 C1      NOp   1
 Rotational constants (GHZ):           1.6800480           0.4193432           0.3721372

 **********************************************************************

            Population analysis using the SCF Density.

 **********************************************************************

 Alpha  occ. eigenvalues --  -20.59237 -20.58904 -15.84722 -15.64136 -15.56111
 Alpha  occ. eigenvalues --  -11.35018 -11.29622 -11.29559 -11.28627 -11.27134
 Alpha  occ. eigenvalues --  -11.23728 -11.23208 -11.22692 -11.22089  -1.57116
 Alpha  occ. eigenvalues --   -1.36709  -1.30978  -1.23065  -1.14703  -1.09819
 Alpha  occ. eigenvalues --   -1.02805  -1.01307  -0.94482  -0.89685  -0.85566
 Alpha  occ. eigenvalues --   -0.82448  -0.78609  -0.77411  -0.75203  -0.72020
 Alpha  occ. eigenvalues --   -0.69771  -0.69438  -0.67820  -0.64892  -0.63777
 Alpha  occ. eigenvalues --   -0.62368  -0.60282  -0.57701  -0.57001  -0.55077
 Alpha  occ. eigenvalues --   -0.54582  -0.50762  -0.50108  -0.48656  -0.48102
 Alpha  occ. eigenvalues --   -0.47372  -0.46146  -0.46044  -0.43678  -0.41696
 Alpha  occ. eigenvalues --   -0.39847  -0.33829
 Alpha virt. eigenvalues --    0.07464   0.11799   0.17307   0.21848   0.24113
 Alpha virt. eigenvalues --    0.25665   0.27134   0.28694   0.29044   0.29635
 Alpha virt. eigenvalues --    0.30683   0.31797   0.32036   0.32767   0.33950
 Alpha virt. eigenvalues --    0.34386   0.35850   0.37312   0.38581   0.40292
 Alpha virt. eigenvalues --    0.41387   0.42443   0.45025   0.46118   0.46730
 Alpha virt. eigenvalues --    0.47077   0.49000   0.53996   0.57579   0.59405
 Alpha virt. eigenvalues --    0.63913   0.69543   0.69909   0.72861   0.74243
 Alpha virt. eigenvalues --    0.74867   0.75781   0.76677   0.78660   0.79442
 Alpha virt. eigenvalues --    0.81386   0.84692   0.85718   0.85806   0.88530
 Alpha virt. eigenvalues --    0.89423   0.91051   0.92112   0.92853   0.94527
 Alpha virt. eigenvalues --    0.95643   0.98040   0.99639   1.01675   1.02471
 Alpha virt. eigenvalues --    1.03152   1.05873   1.06969   1.07902   1.09014
 Alpha virt. eigenvalues --    1.10283   1.11422   1.11855   1.12443   1.13916
 Alpha virt. eigenvalues --    1.14766   1.14990   1.15832   1.16903   1.18726
 Alpha virt. eigenvalues --    1.19136   1.21338   1.22577   1.23915   1.24538
 Alpha virt. eigenvalues --    1.24827   1.26040   1.26911   1.27485   1.29557
 Alpha virt. eigenvalues --    1.30007   1.33127   1.36070   1.37182   1.40861
 Alpha virt. eigenvalues --    1.41855   1.46493   1.48742   1.51696   1.54292
 Alpha virt. eigenvalues --    1.56373   1.58780   1.59556   1.63464   1.65628
 Alpha virt. eigenvalues --    1.68031   1.68628   1.72990   1.75225   1.77368
 Alpha virt. eigenvalues --    1.81578   1.84600   1.87682   1.90654   1.93494
 Alpha virt. eigenvalues --    1.95815   1.96956   1.99718   2.01572   2.02522
 Alpha virt. eigenvalues --    2.05103   2.05606   2.08496   2.09560   2.12395
 Alpha virt. eigenvalues --    2.13265   2.15296   2.18823   2.20013   2.22451
 Alpha virt. eigenvalues --    2.22636   2.24491   2.25493   2.28214   2.29548
 Alpha virt. eigenvalues --    2.31995   2.33724   2.34701   2.36399   2.38465
 Alpha virt. eigenvalues --    2.40483   2.41928   2.43865   2.45136   2.47364
 Alpha virt. eigenvalues --    2.50720   2.51947   2.53114   2.55573   2.61505
 Alpha virt. eigenvalues --    2.62310   2.65193   2.67626   2.70318   2.70495
 Alpha virt. eigenvalues --    2.72271   2.72649   2.76984   2.78441   2.83804
 Alpha virt. eigenvalues --    2.88565   2.88948   2.92944   2.93136   2.96058
 Alpha virt. eigenvalues --    2.99439   3.01343   3.04314   3.05725   3.07677
 Alpha virt. eigenvalues --    3.09415   3.15048   3.21212   3.25217   3.27458
 Alpha virt. eigenvalues --    3.33447   3.37784   3.38786   3.52165   3.65800
 Alpha virt. eigenvalues --    4.13675   4.28073   4.34717   4.38920   4.46295
 Alpha virt. eigenvalues --    4.56308   4.61872   4.62353   4.73464   4.79739
 Alpha virt. eigenvalues --    4.99415   5.00898   5.05022   5.11165
          Condensed to atoms (all electrons):
               1          2          3          4          5          6
     1  O    8.316125   0.306953  -0.082539  -0.085467   0.004640  -0.000016
     2  N    0.306953   5.722371   0.301245   0.264166  -0.053642   0.000970
     3  O   -0.082539   0.301245   8.353627  -0.092654   0.003642   0.000784
     4  C   -0.085467   0.264166  -0.092654   5.225610   0.560334  -0.047278
     5  C    0.004640  -0.053642   0.003642   0.560334   4.709979   0.317421
     6  N   -0.000016   0.000970   0.000784  -0.047278   0.317421   7.195587
     7  C    0.000004  -0.000140   0.000002   0.004629  -0.030204   0.169266
     8  H   -0.000000   0.000002  -0.000000  -0.000261   0.003095  -0.050673
     9  C   -0.000000  -0.000004  -0.000000   0.000855   0.000626  -0.061662
    10  C    0.000000   0.000000   0.000000  -0.000038  -0.000052   0.003748
    11  C   -0.000000  -0.000000  -0.000000  -0.000028   0.000025  -0.000190
    12  C   -0.000000   0.000002  -0.000000  -0.000127  -0.000176   0.003873
    13  C   -0.000025  -0.000039  -0.000004  -0.011556  -0.000584  -0.047690
    14  H   -0.000004  -0.000105   0.000001   0.002645   0.006077  -0.006959
    15  N    0.000382   0.002363  -0.000016  -0.063526  -0.006397   0.001597
    16  C    0.000832  -0.027272   0.002547   0.328492  -0.050328  -0.001857
    17  H    0.000220  -0.007231   0.017390  -0.023149   0.374515  -0.034184
    18  H    0.000001  -0.000050   0.000012   0.001506  -0.031445   0.338679
    19  H    0.000001  -0.000004   0.000000  -0.001226   0.001233  -0.000352
    20  H    0.000000  -0.000000   0.000000  -0.000079   0.000153  -0.000429
    21  H   -0.000000   0.000000   0.000000   0.000001   0.000001  -0.000077
    22  H   -0.000000   0.000000  -0.000000  -0.000000  -0.000003  -0.000117
    23  H    0.000000  -0.000000   0.000000   0.000040  -0.000000  -0.000031
    24  H    0.000000   0.000000   0.000000   0.000000  -0.000000   0.000006
    25  H    0.000000  -0.000000   0.000000   0.000024   0.000000  -0.000090
    26  H    0.000000  -0.000000   0.000000   0.000006  -0.000002  -0.000060
    27  H    0.006130  -0.000881   0.000018  -0.063392   0.002214   0.000017
               7          8          9         10         11         12
     1  O    0.000004  -0.000000  -0.000000   0.000000  -0.000000  -0.000000
     2  N   -0.000140   0.000002  -0.000004   0.000000  -0.000000   0.000002
     3  O    0.000002  -0.000000  -0.000000   0.000000  -0.000000  -0.000000
     4  C    0.004629  -0.000261   0.000855  -0.000038  -0.000028  -0.000127
     5  C   -0.030204   0.003095   0.000626  -0.000052   0.000025  -0.000176
     6  N    0.169266  -0.050673  -0.061662   0.003748  -0.000190   0.003873
     7  C    5.017565   0.418412   0.350533  -0.054670  -0.009029  -0.061068
     8  H    0.418412   0.538087  -0.055044   0.000777  -0.000325  -0.002229
     9  C    0.350533  -0.055044   5.158239   0.324775  -0.050414  -0.005342
    10  C   -0.054670   0.000777   0.324775   5.119303   0.337001  -0.060989
    11  C   -0.009029  -0.000325  -0.050414   0.337001   5.119919   0.335972
    12  C   -0.061068  -0.002229  -0.005342  -0.060989   0.335972   5.118627
    13  C    0.338599  -0.037935  -0.060242  -0.000285  -0.050691   0.371992
    14  H   -0.046595  -0.000746   0.004422  -0.000405   0.004195  -0.036323
    15  N   -0.057958   0.003900  -0.014615   0.001561  -0.013051  -0.082060
    16  C   -0.001774   0.000009  -0.001271  -0.000029   0.000029   0.002608
    17  H    0.001616  -0.000045  -0.000070   0.000001   0.000000   0.000000
    18  H   -0.021215  -0.004472   0.001327  -0.000083   0.000004  -0.000114
    19  H   -0.036858   0.004362   0.390222  -0.032069  -0.002212   0.000689
    20  H   -0.042414  -0.002077   0.399487  -0.035301   0.003931  -0.000415
    21  H    0.004599  -0.000076  -0.036356   0.402433  -0.034895   0.004348
    22  H   -0.004847   0.003559  -0.046956   0.397751  -0.045403  -0.001021
    23  H    0.000577   0.000035  -0.001958  -0.039020   0.399178  -0.037867
    24  H   -0.000130  -0.000102   0.004388  -0.038437   0.402340  -0.038691
    25  H    0.005152  -0.000025  -0.000423   0.004190  -0.033400   0.398273
    26  H   -0.003905   0.001685   0.000968  -0.002231  -0.041482   0.396728
    27  H   -0.000407   0.000009  -0.000058   0.000007   0.000012  -0.000036
              13         14         15         16         17         18
     1  O   -0.000025  -0.000004   0.000382   0.000832   0.000220   0.000001
     2  N   -0.000039  -0.000105   0.002363  -0.027272  -0.007231  -0.000050
     3  O   -0.000004   0.000001  -0.000016   0.002547   0.017390   0.000012
     4  C   -0.011556   0.002645  -0.063526   0.328492  -0.023149   0.001506
     5  C   -0.000584   0.006077  -0.006397  -0.050328   0.374515  -0.031445
     6  N   -0.047690  -0.006959   0.001597  -0.001857  -0.034184   0.338679
     7  C    0.338599  -0.046595  -0.057958  -0.001774   0.001616  -0.021215
     8  H   -0.037935  -0.000746   0.003900   0.000009  -0.000045  -0.004472
     9  C   -0.060242   0.004422  -0.014615  -0.001271  -0.000070   0.001327
    10  C   -0.000285  -0.000405   0.001561  -0.000029   0.000001  -0.000083
    11  C   -0.050691   0.004195  -0.013051   0.000029   0.000000   0.000004
    12  C    0.371992  -0.036323  -0.082060   0.002608   0.000000  -0.000114
    13  C    5.040225   0.403081   0.244784  -0.071084  -0.000008   0.002971
    14  H    0.403081   0.526778  -0.037368  -0.004541   0.000093  -0.000108
    15  N    0.244784  -0.037368   6.965124   0.585190  -0.000080  -0.000132
    16  C   -0.071084  -0.004541   0.585190   4.709966   0.002013  -0.000197
    17  H   -0.000008   0.000093  -0.000080   0.002013   0.376499  -0.002818
    18  H    0.002971  -0.000108  -0.000132  -0.000197  -0.002818   0.310599
    19  H   -0.007548   0.000106   0.007696   0.003002   0.000016  -0.000149
    20  H    0.004340  -0.000066   0.000126  -0.000036   0.000002   0.000807
    21  H   -0.000433   0.000010  -0.000041   0.000004  -0.000000   0.000001
    22  H    0.000045  -0.000055   0.000019  -0.000002   0.000000   0.000001
    23  H   -0.007523   0.000003   0.008589   0.000106   0.000000   0.000000
    24  H    0.004699  -0.000057   0.000135   0.000007   0.000000  -0.000000
    25  H   -0.035561  -0.002817   0.000409  -0.000022  -0.000000   0.000002
    26  H   -0.047409  -0.001047   0.004899  -0.000061   0.000000  -0.000000
    27  H    0.005059  -0.000174  -0.040315   0.403666  -0.000079   0.000001
              19         20         21         22         23         24
     1  O    0.000001   0.000000  -0.000000  -0.000000   0.000000   0.000000
     2  N   -0.000004  -0.000000   0.000000   0.000000  -0.000000   0.000000
     3  O    0.000000   0.000000   0.000000  -0.000000   0.000000   0.000000
     4  C   -0.001226  -0.000079   0.000001  -0.000000   0.000040   0.000000
     5  C    0.001233   0.000153   0.000001  -0.000003  -0.000000  -0.000000
     6  N   -0.000352  -0.000429  -0.000077  -0.000117  -0.000031   0.000006
     7  C   -0.036858  -0.042414   0.004599  -0.004847   0.000577  -0.000130
     8  H    0.004362  -0.002077  -0.000076   0.003559   0.000035  -0.000102
     9  C    0.390222   0.399487  -0.036356  -0.046956  -0.001958   0.004388
    10  C   -0.032069  -0.035301   0.402433   0.397751  -0.039020  -0.038437
    11  C   -0.002212   0.003931  -0.034895  -0.045403   0.399178   0.402340
    12  C    0.000689  -0.000415   0.004348  -0.001021  -0.037867  -0.038691
    13  C   -0.007548   0.004340  -0.000433   0.000045  -0.007523   0.004699
    14  H    0.000106  -0.000066   0.000010  -0.000055   0.000003  -0.000057
    15  N    0.007696   0.000126  -0.000041   0.000019   0.008589   0.000135
    16  C    0.003002  -0.000036   0.000004  -0.000002   0.000106   0.000007
    17  H    0.000016   0.000002  -0.000000   0.000000   0.000000   0.000000
    18  H   -0.000149   0.000807   0.000001   0.000001   0.000000  -0.000000
    19  H    0.504952  -0.024738  -0.002787   0.003959   0.001514  -0.000066
    20  H   -0.024738   0.541159  -0.002692  -0.002990  -0.000045  -0.000083
    21  H   -0.002787  -0.002692   0.524025  -0.027403  -0.002899  -0.002241
    22  H    0.003959  -0.002990  -0.027403   0.571322   0.004137  -0.003656
    23  H    0.001514  -0.000045  -0.002899   0.004137   0.498966  -0.025451
    24  H   -0.000066  -0.000083  -0.002241  -0.003656  -0.025451   0.538124
    25  H   -0.000029   0.000012  -0.000087  -0.000080  -0.002319  -0.002291
    26  H    0.000019  -0.000030  -0.000081   0.002380   0.004067  -0.003035
    27  H    0.000083   0.000000  -0.000000   0.000000  -0.000035  -0.000000
              25         26         27
     1  O    0.000000   0.000000   0.006130
     2  N   -0.000000  -0.000000  -0.000881
     3  O    0.000000   0.000000   0.000018
     4  C    0.000024   0.000006  -0.063392
     5  C    0.000000  -0.000002   0.002214
     6  N   -0.000090  -0.000060   0.000017
     7  C    0.005152  -0.003905  -0.000407
     8  H   -0.000025   0.001685   0.000009
     9  C   -0.000423   0.000968  -0.000058
    10  C    0.004190  -0.002231   0.000007
    11  C   -0.033400  -0.041482   0.000012
    12  C    0.398273   0.396728  -0.000036
    13  C   -0.035561  -0.047409   0.005059
    14  H   -0.002817  -0.001047  -0.000174
    15  N    0.000409   0.004899  -0.040315
    16  C   -0.000022  -0.000061   0.403666
    17  H   -0.000000   0.000000  -0.000079
    18  H    0.000002  -0.000000   0.000001
    19  H   -0.000029   0.000019   0.000083
    20  H    0.000012  -0.000030   0.000000
    21  H   -0.000087  -0.000081  -0.000000
    22  H   -0.000080   0.002380   0.000000
    23  H   -0.002319   0.004067  -0.000035
    24  H   -0.002291  -0.003035  -0.000000
    25  H    0.506110  -0.024081  -0.000013
    26  H   -0.024081   0.562323   0.000001
    27  H   -0.000013   0.000001   0.439253
 Mulliken charges:
               1
     1  O   -0.467238
     2  N    0.491295
     3  O   -0.504056
     4  C    0.000471
     5  C    0.188879
     6  N   -0.780286
     7  C    0.060261
     8  H    0.180077
     9  C   -0.301429
    10  C   -0.327938
    11  C   -0.321488
    12  C   -0.306655
    13  C   -0.037178
    14  H    0.189956
    15  N   -0.511218
    16  C    0.120002
    17  H    0.295296
    18  H    0.404872
    19  H    0.190185
    20  H    0.161379
    21  H    0.174647
    22  H    0.149360
    23  H    0.199932
    24  H    0.164540
    25  H    0.187063
    26  H    0.150347
    27  H    0.248921
 Sum of Mulliken charges =  -0.00000
 Mulliken charges with hydrogens summed into heavy atoms:
               1
     1  O   -0.467238
     2  N    0.491295
     3  O   -0.504056
     4  C    0.000471
     5  C    0.484175
     6  N   -0.375414
     7  C    0.240339
     9  C    0.050135
    10  C   -0.003931
    11  C    0.042985
    12  C    0.030755
    13  C    0.152778
    15  N   -0.511218
    16  C    0.368924
 Electronic spatial extent (au):  <R**2>=           3005.3579
 Charge=             -0.0000 electrons
 Dipole moment (field-independent basis, Debye):
    X=              5.4157    Y=              4.7961    Z=              1.2813  Tot=              7.3467
 Quadrupole moment (field-independent basis, Debye-Ang):
   XX=           -106.1396   YY=            -79.2243   ZZ=            -81.5017
   XY=             -1.7661   XZ=             -0.1320   YZ=              1.8555
 Traceless Quadrupole moment (field-independent basis, Debye-Ang):
   XX=            -17.1844   YY=              9.7309   ZZ=              7.4535
   XY=             -1.7661   XZ=             -0.1320   YZ=              1.8555
 Octapole moment (field-independent basis, Debye-Ang**2):
  XXX=             92.3978  YYY=             36.2784  ZZZ=             -1.4802  XYY=             -4.5789
  XXY=              9.5299  XXZ=              4.9286  XZZ=             -9.7599  YZZ=             -0.3930
  YYZ=              7.9980  XYZ=              0.2523
 Hexadecapole moment (field-independent basis, Debye-Ang**3):
 XXXX=          -3382.0728 YYYY=           -601.0600 ZZZZ=           -303.7941 XXXY=            -20.8972
 XXXZ=            -13.5071 YYYX=             -8.9596 YYYZ=             24.9991 ZZZX=              1.8522
 ZZZY=              7.0799 XXYY=           -627.7694 XXZZ=           -523.8029 YYZZ=           -157.3270
 XXYZ=             -4.2906 YYXZ=              1.6781 ZZXY=              4.6932
 N-N= 9.312338864379D+02 E-N=-3.409184185741D+03  KE= 6.596288900923D+02
 Unable to Open any file for archive entry.
 1\1\GINC-LOTUS\FOpt\RMP2-FC\6-31G(d)\C9H13N3O2\ALEXEY\30-Jun-2023\0\\#
 MP2/6-31G* SCF=Tight Opt=(ModRedun, MaxCycle=100 ) NoSymm\\MolName:\\0
 ,1\O,-3.5067338744,-1.3904104596,-0.3710767709\N,-3.1210985446,-0.2322
 743751,-0.1185060765\O,-3.8954461086,0.728690499,0.0556858089\C,-1.686
 6504061,-0.0237546734,-0.0097439295\C,-1.3014068446,1.2607043937,0.275
 2571997\N,-0.0571645773,1.7502044017,0.3863257289\C,1.2056386015,1.024
 0039725,0.3593426265\H,1.8533618715,1.5528859651,1.0748142193\C,1.9091
 714457,1.035138926,-0.9964624916\C,3.3075302253,0.4284327544,-0.832422
 1057\C,3.259503726,-0.9676911615,-0.2058853357\C,2.4644658824,-0.97835
 40101,1.1015468865\C,1.0547604193,-0.4246196134,0.8650913562\H,0.47821
 07884,-0.4033143725,1.8035075558\N,0.4082154689,-1.3179171888,-0.09116
 83812\C,-0.8391212649,-1.1380770201,-0.3865565622\H,-2.0961619424,1.98
 76208747,0.4188439581\H,0.0017315699,2.7353830968,0.6154480959\H,1.314
 9076201,0.4577316746,-1.7126730081\H,1.9751874744,2.0630842013,-1.3741
 528501\H,3.8114909601,0.3903547388,-1.8049546986\H,3.9073386289,1.0947
 011524,-0.1961336919\H,2.781832037,-1.6644397354,-0.9017805573\H,4.278
 6591063,-1.3312284685,-0.0287266001\H,2.3789938737,-2.000302465,1.4853
 378761\H,2.9744157489,-0.3805607131,1.8696335754\H,-1.3006218856,-1.89
 30023946,-1.0225618278\\Version=ES64L-G16RevC.02\HF=-661.3003609\MP2=-
 663.3346494\RMSD=7.323e-09\RMSF=8.959e-06\Dipole=1.9791995,1.6918693,0
 .4712487\PG=C01 [X(C9H13N3O2)]\\@
 The archive entry for this job was punched.


 BE NOT THE FIRST BY WHOM THE NEW ARE TRIED,
 NOR YET THE THE LAST TO LAY THE OLD ASIDE.

                          -- ALEXANDER POPE
 Job cpu time:       0 days  1 hours 14 minutes 10.9 seconds.
 Elapsed time:       0 days  0 hours 22 minutes 27.4 seconds.
 File lengths (MBytes):  RWF=     36 Int=      0 D2E=      0 Chk=      7 Scr=      1
 Normal termination of Gaussian 16 at Fri Jun 30 16:14:36 2023.
