 Entering Gaussian System, Link 0=g16
 Initial command:
 /home/alexey/programs//g16/l1.exe "/home/alexey/tmp/Gau-1172161.inp" -scrdir="/home/alexey/tmp/"
 Entering Link 1 = /home/alexey/programs//g16/l1.exe PID=   1172163.
  
 Copyright (c) 1988-2021, Gaussian, Inc.  All Rights Reserved.
  
 This is part of the Gaussian(R) 16 program.  It is based on
 the Gaussian(R) 09 system (copyright 2009, Gaussian, Inc.),
 the Gaussian(R) 03 system (copyright 2003, Gaussian, Inc.),
 the Gaussian(R) 98 system (copyright 1998, Gaussian, Inc.),
 the Gaussian(R) 94 system (copyright 1995, Gaussian, Inc.),
 the Gaussian 92(TM) system (copyright 1992, Gaussian, Inc.),
 the Gaussian 90(TM) system (copyright 1990, Gaussian, Inc.),
 the Gaussian 88(TM) system (copyright 1988, Gaussian, Inc.),
 the Gaussian 86(TM) system (copyright 1986, Carnegie Mellon
 University), and the Gaussian 82(TM) system (copyright 1983,
 Carnegie Mellon University). Gaussian is a federally registered
 trademark of Gaussian, Inc.
  
 This software contains proprietary and confidential information,
 including trade secrets, belonging to Gaussian, Inc.
  
 This software is provided under written license and may be
 used, copied, transmitted, or stored only in accord with that
 written license.
  
 The following legend is applicable only to US Government
 contracts under FAR:
  
                    RESTRICTED RIGHTS LEGEND
  
 Use, reproduction and disclosure by the US Government is
 subject to restrictions as set forth in subparagraphs (a)
 and (c) of the Commercial Computer Software - Restricted
 Rights clause in FAR 52.227-19.
  
 Gaussian, Inc.
 340 Quinnipiac St., Bldg. 40, Wallingford CT 06492
  
  
 ---------------------------------------------------------------
 Warning -- This program may not be used in any manner that
 competes with the business of Gaussian, Inc. or will provide
 assistance to any competitor of Gaussian, Inc.  The licensee
 of this program is prohibited from giving any competitor of
 Gaussian, Inc. access to this program.  By using this program,
 the user acknowledges that Gaussian, Inc. is engaged in the
 business of creating and licensing software in the field of
 computational chemistry and represents and warrants to the
 licensee that it is not a competitor of Gaussian, Inc. and that
 it will not use this program in any manner prohibited above.
 ---------------------------------------------------------------
  

 Cite this work as:
 Gaussian 16, Revision C.02,
 M. J. Frisch, G. W. Trucks, H. B. Schlegel, G. E. Scuseria, 
 M. A. Robb, J. R. Cheeseman, G. Scalmani, V. Barone, 
 G. A. Petersson, H. Nakatsuji, X. Li, M. Caricato, A. V. Marenich, 
 J. Bloino, B. G. Janesko, R. Gomperts, B. Mennucci, H. P. Hratchian, 
 J. V. Ortiz, A. F. Izmaylov, J. L. Sonnenberg, D. Williams-Young, 
 F. Ding, F. Lipparini, F. Egidi, J. Goings, B. Peng, A. Petrone, 
 T. Henderson, D. Ranasinghe, V. G. Zakrzewski, J. Gao, N. Rega, 
 G. Zheng, W. Liang, M. Hada, M. Ehara, K. Toyota, R. Fukuda, 
 J. Hasegawa, M. Ishida, T. Nakajima, Y. Honda, O. Kitao, H. Nakai, 
 T. Vreven, K. Throssell, J. A. Montgomery, Jr., J. E. Peralta, 
 F. Ogliaro, M. J. Bearpark, J. J. Heyd, E. N. Brothers, K. N. Kudin, 
 V. N. Staroverov, T. A. Keith, R. Kobayashi, J. Normand, 
 K. Raghavachari, A. P. Rendell, J. C. Burant, S. S. Iyengar, 
 J. Tomasi, M. Cossi, J. M. Millam, M. Klene, C. Adamo, R. Cammi, 
 J. W. Ochterski, R. L. Martin, K. Morokuma, O. Farkas, 
 J. B. Foresman, and D. J. Fox, Gaussian, Inc., Wallingford CT, 2019.
 
 ******************************************
 Gaussian 16:  ES64L-G16RevC.02  7-Dec-2021
                30-Jun-2023 
 ******************************************
 %mem=8GB
 %NPROCS=4
 Will use up to    4 processors via shared memory.
 %NoSave
 ----------------------------------------------------------
 #MP2/6-31G* SCF=Tight Opt=(ModRedun, MaxCycle=100 ) NoSymm
 ----------------------------------------------------------
 1/6=100,18=120,19=15,38=1/1,3;
 2/9=110,12=2,15=1,17=6,18=5,40=1/2;
 3/5=1,6=6,7=1,11=9,25=1,30=1,71=1/1,2,3;
 4//1;
 5/5=2,32=2,38=5/2;
 8/6=4,10=2/1;
 9/15=2,16=-3/6;
 10/5=1,31=1/2;
 6/7=2,8=2,9=2,10=2/1;
 7/12=2,30=1/1,2,3,16;
 1/6=100,18=20,19=15/3(2);
 2/9=110,15=1/2;
 99//99;
 2/9=110,15=1/2;
 3/5=1,6=6,7=1,11=9,25=1,30=1,71=1/1,2,3;
 4/5=5,16=3,69=1/1;
 5/5=2,32=2,38=5/2;
 8/6=4,10=2/1;
 9/15=2,16=-3/6;
 10/5=1,31=1/2;
 7/12=2,30=1/1,2,3,16;
 1/6=100,18=20,19=15/3(-8);
 2/9=110,15=1/2;
 6/7=2,8=2,9=2,10=2/1;
 99/9=10/99;
 --------
 MolName:
 --------
 Symbolic Z-matrix:
 Charge =  0 Multiplicity = 1
 8                    0    -3.61286  -1.48011  -0.05402 
 7                    0    -3.26372  -0.30972   0.08948 
 8                    0    -4.04561   0.61657   0.30677 
 6                    0    -1.77581   0.00452  -0.031 
 6                    0    -1.38072   1.3112    0.27132 
 7                    0    -0.09145   1.77547   0.24708 
 6                    0     1.18858   1.00659   0.3295 
 1                    0     1.79923   1.50854   1.12225 
 6                    0     2.0202    1.06985  -0.97589 
 6                    0     3.4189    0.46752  -0.74705 
 6                    0     3.32409  -0.95905  -0.18619 
 6                    0     2.4286   -1.00755   1.06816 
 6                    0     1.00717  -0.45192   0.78567 
 1                    0     0.44073  -0.49174   1.7465 
 7                    0     0.34669  -1.3092   -0.20456 
 6                    0    -0.89456  -1.09594  -0.49785 
 1                    0    -2.15182   2.03695   0.579 
 1                    0     0.13212   2.73754  -0.01865 
 1                    0     1.49903   0.50678  -1.78032 
 1                    0     2.1302    2.12334  -1.31056 
 1                    0     3.98978   0.45973  -1.7014 
 1                    0     3.97421   1.10204  -0.02046 
 1                    0     2.89393  -1.62741  -0.96636 
 1                    0     4.33972  -1.33895   0.0594 
 1                    0     2.34745  -2.05912   1.42101 
 1                    0     2.9006   -0.41369   1.87929 
 1                    0    -1.40367  -1.81823  -1.15412 
 
 The following ModRedundant input section has been read:
 D       6       7      13      15 F                                           
 D       1       2       4      16 F                                           
 D       7      13      15      16 F                                           
 D       7       9      10      11 F                                           
 D       9      10      11      12 F                                           
 

 GradGradGradGradGradGradGradGradGradGradGradGradGradGradGradGradGradGrad
 Berny optimization.
 Initialization pass.
                           ----------------------------
                           !    Initial Parameters    !
                           ! (Angstroms and Degrees)  !
 --------------------------                            --------------------------
 ! Name  Definition              Value          Derivative Info.                !
 --------------------------------------------------------------------------------
 ! R1    R(1,2)                  1.2298         estimate D2E/DX2                !
 ! R2    R(2,3)                  1.2315         estimate D2E/DX2                !
 ! R3    R(2,4)                  1.5255         estimate D2E/DX2                !
 ! R4    R(4,5)                  1.3982         estimate D2E/DX2                !
 ! R5    R(4,16)                 1.4851         estimate D2E/DX2                !
 ! R6    R(5,6)                  1.3705         estimate D2E/DX2                !
 ! R7    R(5,17)                 1.1027         estimate D2E/DX2                !
 ! R8    R(6,7)                  1.4955         estimate D2E/DX2                !
 ! R9    R(6,18)                 1.0228         estimate D2E/DX2                !
 ! R10   R(7,8)                  1.1195         estimate D2E/DX2                !
 ! R11   R(7,9)                  1.5491         estimate D2E/DX2                !
 ! R12   R(7,13)                 1.5389         estimate D2E/DX2                !
 ! R13   R(9,10)                 1.54           estimate D2E/DX2                !
 ! R14   R(9,19)                 1.1117         estimate D2E/DX2                !
 ! R15   R(9,20)                 1.1108         estimate D2E/DX2                !
 ! R16   R(10,11)                1.5358         estimate D2E/DX2                !
 ! R17   R(10,21)                1.1121         estimate D2E/DX2                !
 ! R18   R(10,22)                1.1131         estimate D2E/DX2                !
 ! R19   R(11,12)                1.542          estimate D2E/DX2                !
 ! R20   R(11,23)                1.1137         estimate D2E/DX2                !
 ! R21   R(11,24)                1.1118         estimate D2E/DX2                !
 ! R22   R(12,13)                1.5521         estimate D2E/DX2                !
 ! R23   R(12,25)                1.1122         estimate D2E/DX2                !
 ! R24   R(12,26)                1.1106         estimate D2E/DX2                !
 ! R25   R(13,14)                1.1161         estimate D2E/DX2                !
 ! R26   R(13,15)                1.4669         estimate D2E/DX2                !
 ! R27   R(15,16)                1.2931         estimate D2E/DX2                !
 ! R28   R(16,27)                1.1007         estimate D2E/DX2                !
 ! A1    A(1,2,3)              123.7925         estimate D2E/DX2                !
 ! A2    A(1,2,4)              117.6291         estimate D2E/DX2                !
 ! A3    A(3,2,4)              118.572          estimate D2E/DX2                !
 ! A4    A(2,4,5)              116.8109         estimate D2E/DX2                !
 ! A5    A(2,4,16)             116.8051         estimate D2E/DX2                !
 ! A6    A(5,4,16)             126.3557         estimate D2E/DX2                !
 ! A7    A(4,5,6)              125.3507         estimate D2E/DX2                !
 ! A8    A(4,5,17)             118.5426         estimate D2E/DX2                !
 ! A9    A(6,5,17)             116.0911         estimate D2E/DX2                !
 ! A10   A(5,6,7)              129.0535         estimate D2E/DX2                !
 ! A11   A(5,6,18)             121.9275         estimate D2E/DX2                !
 ! A12   A(7,6,18)             108.1089         estimate D2E/DX2                !
 ! A13   A(6,7,8)              105.985          estimate D2E/DX2                !
 ! A14   A(6,7,9)              113.0833         estimate D2E/DX2                !
 ! A15   A(6,7,13)             113.7479         estimate D2E/DX2                !
 ! A16   A(8,7,9)              106.5939         estimate D2E/DX2                !
 ! A17   A(8,7,13)             106.2206         estimate D2E/DX2                !
 ! A18   A(9,7,13)             110.5963         estimate D2E/DX2                !
 ! A19   A(7,9,10)             110.2674         estimate D2E/DX2                !
 ! A20   A(7,9,19)             109.7201         estimate D2E/DX2                !
 ! A21   A(7,9,20)             110.2291         estimate D2E/DX2                !
 ! A22   A(10,9,19)            109.5867         estimate D2E/DX2                !
 ! A23   A(10,9,20)            109.0121         estimate D2E/DX2                !
 ! A24   A(19,9,20)            107.9857         estimate D2E/DX2                !
 ! A25   A(9,10,11)            111.193          estimate D2E/DX2                !
 ! A26   A(9,10,21)            109.966          estimate D2E/DX2                !
 ! A27   A(9,10,22)            109.0969         estimate D2E/DX2                !
 ! A28   A(11,10,21)           109.7902         estimate D2E/DX2                !
 ! A29   A(11,10,22)           108.7797         estimate D2E/DX2                !
 ! A30   A(21,10,22)           107.9434         estimate D2E/DX2                !
 ! A31   A(10,11,12)           111.2319         estimate D2E/DX2                !
 ! A32   A(10,11,23)           108.9931         estimate D2E/DX2                !
 ! A33   A(10,11,24)           109.9785         estimate D2E/DX2                !
 ! A34   A(12,11,23)           109.0662         estimate D2E/DX2                !
 ! A35   A(12,11,24)           109.881          estimate D2E/DX2                !
 ! A36   A(23,11,24)           107.6077         estimate D2E/DX2                !
 ! A37   A(11,12,13)           111.8723         estimate D2E/DX2                !
 ! A38   A(11,12,25)           109.2812         estimate D2E/DX2                !
 ! A39   A(11,12,26)           109.299          estimate D2E/DX2                !
 ! A40   A(13,12,25)           109.2328         estimate D2E/DX2                !
 ! A41   A(13,12,26)           109.313          estimate D2E/DX2                !
 ! A42   A(25,12,26)           107.7516         estimate D2E/DX2                !
 ! A43   A(7,13,12)            106.5754         estimate D2E/DX2                !
 ! A44   A(7,13,14)            110.4159         estimate D2E/DX2                !
 ! A45   A(7,13,15)            114.0081         estimate D2E/DX2                !
 ! A46   A(12,13,14)           107.1779         estimate D2E/DX2                !
 ! A47   A(12,13,15)           109.0265         estimate D2E/DX2                !
 ! A48   A(14,13,15)           109.3772         estimate D2E/DX2                !
 ! A49   A(13,15,16)           119.2698         estimate D2E/DX2                !
 ! A50   A(4,16,15)            128.3516         estimate D2E/DX2                !
 ! A51   A(4,16,27)            113.5285         estimate D2E/DX2                !
 ! A52   A(15,16,27)           118.0975         estimate D2E/DX2                !
 ! D1    D(1,2,4,5)           -173.5534         estimate D2E/DX2                !
 ! D2    D(1,2,4,16)             8.26           Frozen                          !
 ! D3    D(3,2,4,5)              7.3294         estimate D2E/DX2                !
 ! D4    D(3,2,4,16)          -170.8572         estimate D2E/DX2                !
 ! D5    D(2,4,5,6)            178.6431         estimate D2E/DX2                !
 ! D6    D(2,4,5,17)             0.135          estimate D2E/DX2                !
 ! D7    D(16,4,5,6)            -3.3667         estimate D2E/DX2                !
 ! D8    D(16,4,5,17)          178.1252         estimate D2E/DX2                !
 ! D9    D(2,4,16,15)         -149.7317         estimate D2E/DX2                !
 ! D10   D(2,4,16,27)           28.4907         estimate D2E/DX2                !
 ! D11   D(5,4,16,15)           32.2779         estimate D2E/DX2                !
 ! D12   D(5,4,16,27)         -149.4996         estimate D2E/DX2                !
 ! D13   D(4,5,6,7)            -21.0177         estimate D2E/DX2                !
 ! D14   D(4,5,6,18)           146.712          estimate D2E/DX2                !
 ! D15   D(17,5,6,7)           157.523          estimate D2E/DX2                !
 ! D16   D(17,5,6,18)          -34.7473         estimate D2E/DX2                !
 ! D17   D(5,6,7,8)           -129.9115         estimate D2E/DX2                !
 ! D18   D(5,6,7,9)            113.6641         estimate D2E/DX2                !
 ! D19   D(5,6,7,13)           -13.585          estimate D2E/DX2                !
 ! D20   D(18,6,7,8)            61.0281         estimate D2E/DX2                !
 ! D21   D(18,6,7,9)           -55.3963         estimate D2E/DX2                !
 ! D22   D(18,6,7,13)          177.3545         estimate D2E/DX2                !
 ! D23   D(6,7,9,10)           170.3953         estimate D2E/DX2                !
 ! D24   D(6,7,9,19)           -68.8086         estimate D2E/DX2                !
 ! D25   D(6,7,9,20)            49.986          estimate D2E/DX2                !
 ! D26   D(8,7,9,10)            54.3319         estimate D2E/DX2                !
 ! D27   D(8,7,9,19)           175.128          estimate D2E/DX2                !
 ! D28   D(8,7,9,20)           -66.0775         estimate D2E/DX2                !
 ! D29   D(13,7,9,10)          -60.7154         estimate D2E/DX2                !
 ! D30   D(13,7,9,19)           60.0807         estimate D2E/DX2                !
 ! D31   D(13,7,9,20)          178.8752         estimate D2E/DX2                !
 ! D32   D(6,7,13,12)         -169.6736         estimate D2E/DX2                !
 ! D33   D(6,7,13,14)          -53.5961         estimate D2E/DX2                !
 ! D34   D(6,7,13,15)           70.0            Frozen                          !
 ! D35   D(8,7,13,12)          -53.485          estimate D2E/DX2                !
 ! D36   D(8,7,13,14)           62.5924         estimate D2E/DX2                !
 ! D37   D(8,7,13,15)         -173.8114         estimate D2E/DX2                !
 ! D38   D(9,7,13,12)           61.7963         estimate D2E/DX2                !
 ! D39   D(9,7,13,14)          177.8737         estimate D2E/DX2                !
 ! D40   D(9,7,13,15)          -58.5301         estimate D2E/DX2                !
 ! D41   D(7,9,10,11)           54.81           Frozen                          !
 ! D42   D(7,9,10,21)          176.6279         estimate D2E/DX2                !
 ! D43   D(7,9,10,22)          -65.1657         estimate D2E/DX2                !
 ! D44   D(19,9,10,11)         -66.066          estimate D2E/DX2                !
 ! D45   D(19,9,10,21)          55.7519         estimate D2E/DX2                !
 ! D46   D(19,9,10,22)         173.9583         estimate D2E/DX2                !
 ! D47   D(20,9,10,11)         175.9479         estimate D2E/DX2                !
 ! D48   D(20,9,10,21)         -62.2342         estimate D2E/DX2                !
 ! D49   D(20,9,10,22)          55.9722         estimate D2E/DX2                !
 ! D50   D(9,10,11,12)         -52.82           Frozen                          !
 ! D51   D(9,10,11,23)          67.4682         estimate D2E/DX2                !
 ! D52   D(9,10,11,24)        -174.7873         estimate D2E/DX2                !
 ! D53   D(21,10,11,12)       -174.7402         estimate D2E/DX2                !
 ! D54   D(21,10,11,23)        -54.452          estimate D2E/DX2                !
 ! D55   D(21,10,11,24)         63.2925         estimate D2E/DX2                !
 ! D56   D(22,10,11,12)         67.3436         estimate D2E/DX2                !
 ! D57   D(22,10,11,23)       -172.3682         estimate D2E/DX2                !
 ! D58   D(22,10,11,24)        -54.6237         estimate D2E/DX2                !
 ! D59   D(10,11,12,13)         56.5053         estimate D2E/DX2                !
 ! D60   D(10,11,12,25)        177.602          estimate D2E/DX2                !
 ! D61   D(10,11,12,26)        -64.7046         estimate D2E/DX2                !
 ! D62   D(23,11,12,13)        -63.7398         estimate D2E/DX2                !
 ! D63   D(23,11,12,25)         57.357          estimate D2E/DX2                !
 ! D64   D(23,11,12,26)        175.0503         estimate D2E/DX2                !
 ! D65   D(24,11,12,13)        178.5291         estimate D2E/DX2                !
 ! D66   D(24,11,12,25)        -60.3741         estimate D2E/DX2                !
 ! D67   D(24,11,12,26)         57.3192         estimate D2E/DX2                !
 ! D68   D(11,12,13,7)         -59.929          estimate D2E/DX2                !
 ! D69   D(11,12,13,14)       -178.1557         estimate D2E/DX2                !
 ! D70   D(11,12,13,15)         63.5534         estimate D2E/DX2                !
 ! D71   D(25,12,13,7)         178.9463         estimate D2E/DX2                !
 ! D72   D(25,12,13,14)         60.7196         estimate D2E/DX2                !
 ! D73   D(25,12,13,15)        -57.5714         estimate D2E/DX2                !
 ! D74   D(26,12,13,7)          61.2727         estimate D2E/DX2                !
 ! D75   D(26,12,13,14)        -56.954          estimate D2E/DX2                !
 ! D76   D(26,12,13,15)       -175.2449         estimate D2E/DX2                !
 ! D77   D(7,13,15,16)         -67.1602         Frozen                          !
 ! D78   D(12,13,15,16)        173.897          estimate D2E/DX2                !
 ! D79   D(14,13,15,16)         56.9959         estimate D2E/DX2                !
 ! D80   D(13,15,16,4)           5.0376         estimate D2E/DX2                !
 ! D81   D(13,15,16,27)       -173.1148         estimate D2E/DX2                !
 --------------------------------------------------------------------------------
 Trust Radius=3.00D-01 FncErr=1.00D-07 GrdErr=1.00D-07 EigMax=2.50D+02 EigMin=1.00D-04
 Number of steps in this run=    100 maximum allowed number of steps=    162.
 GradGradGradGradGradGradGradGradGradGradGradGradGradGradGradGradGradGrad

                          Input orientation:                          
 ---------------------------------------------------------------------
 Center     Atomic      Atomic             Coordinates (Angstroms)
 Number     Number       Type             X           Y           Z
 ---------------------------------------------------------------------
      1          8           0       -3.612860   -1.480110   -0.054020
      2          7           0       -3.263720   -0.309720    0.089480
      3          8           0       -4.045610    0.616570    0.306770
      4          6           0       -1.775810    0.004520   -0.031000
      5          6           0       -1.380720    1.311200    0.271320
      6          7           0       -0.091450    1.775470    0.247080
      7          6           0        1.188580    1.006590    0.329500
      8          1           0        1.799230    1.508540    1.122250
      9          6           0        2.020200    1.069850   -0.975890
     10          6           0        3.418900    0.467520   -0.747050
     11          6           0        3.324090   -0.959050   -0.186190
     12          6           0        2.428600   -1.007550    1.068160
     13          6           0        1.007170   -0.451920    0.785670
     14          1           0        0.440730   -0.491740    1.746500
     15          7           0        0.346690   -1.309200   -0.204560
     16          6           0       -0.894560   -1.095940   -0.497850
     17          1           0       -2.151820    2.036950    0.579000
     18          1           0        0.132120    2.737540   -0.018650
     19          1           0        1.499030    0.506780   -1.780320
     20          1           0        2.130200    2.123340   -1.310560
     21          1           0        3.989780    0.459730   -1.701400
     22          1           0        3.974210    1.102040   -0.020460
     23          1           0        2.893930   -1.627410   -0.966360
     24          1           0        4.339720   -1.338950    0.059400
     25          1           0        2.347450   -2.059120    1.421010
     26          1           0        2.900600   -0.413690    1.879290
     27          1           0       -1.403670   -1.818230   -1.154120
 ---------------------------------------------------------------------
                    Distance matrix (angstroms):
                    1          2          3          4          5
     1  O    0.000000
     2  N    1.229758   0.000000
     3  O    2.171062   1.231495   0.000000
     4  C    2.362077   1.525496   2.375013   0.000000
     5  C    3.588831   2.491212   2.754162   1.398180   0.000000
     6  N    4.805184   3.799494   4.120921   2.459809   1.370530
     7  C    5.420756   4.649006   5.248750   3.149875   2.587948
     8  H    6.293358   5.477787   5.968482   4.046353   3.297743
     9  C    6.251680   5.563995   6.216489   4.054311   3.630432
    10  C    7.329338   6.779476   7.540004   5.264229   4.978476
    11  C    6.957747   6.625471   7.552355   5.192449   5.243910
    12  C    6.162941   5.817842   6.718101   4.462006   4.530174
    13  C    4.806967   4.329596   5.186675   2.936029   3.012502
    14  H    4.544264   4.062240   4.840291   2.884238   2.957098
    15  N    3.966095   3.757723   4.823106   2.502197   3.174414
    16  C    2.780958   2.564375   3.675489   1.485114   2.573382
    17  H    3.860708   2.642501   2.382862   2.155053   1.102713
    18  H    5.640452   4.563903   4.696577   3.333129   2.099336
    19  H    5.749719   5.181372   5.925456   3.746593   3.626193
    20  H    6.895396   6.080647   6.559477   4.624239   3.935540
    21  H    8.017292   7.510830   8.284011   6.019924   5.784366
    22  H    8.014503   7.375146   8.041161   5.853836   5.366951
    23  H    6.572091   6.384963   7.403615   5.034339   5.332909
    24  H    7.954641   7.672843   8.613885   6.262012   6.308061
    25  H    6.167354   6.026492   7.019406   4.834068   5.155589
    26  H    6.877507   6.419741   7.196116   5.068818   4.887792
    27  H    2.490997   2.698505   3.878440   2.173086   3.438857
                    6          7          8          9         10
     6  N    0.000000
     7  C    1.495475   0.000000
     8  H    2.100439   1.119509   0.000000
     9  C    2.540201   1.549076   2.154871   0.000000
    10  C    3.875769   2.534538   2.683531   1.539978   0.000000
    11  C    4.396730   2.947894   3.182171   2.537753   1.535791
    12  C    3.843179   2.477908   2.594174   2.942876   2.539983
    13  C    2.541321   1.538913   2.141039   2.538722   3.001840
    14  H    2.769786   2.193664   2.497265   3.513502   4.000933
    15  N    3.148195   2.521286   3.436562   3.009230   3.590195
    16  C    3.073256   3.073209   4.082223   3.662649   4.594828
    17  H    2.103252   3.504592   4.023075   4.556173   5.937545
    18  H    1.022827   2.057548   2.364603   2.694874   4.060355
    19  H    2.872203   2.190326   3.085216   1.111654   2.180617
    20  H    2.735504   2.196264   2.531024   1.110831   2.172563
    21  H    4.710009   3.502903   3.724448   2.185831   1.112092
    22  H    4.129731   2.809149   2.490294   2.175325   1.113067
    23  H    4.686632   3.394912   3.923626   2.835261   2.170811
    24  H    5.419419   3.937537   3.961305   3.500616   2.182110
    25  H    4.693658   3.454410   3.621878   3.955082   3.497485
    26  H    4.050789   2.711099   2.341174   3.335873   2.818302
    27  H    4.074305   4.111021   5.148575   4.482818   5.352340
                   11         12         13         14         15
    11  C    0.000000
    12  C    1.541963   0.000000
    13  C    2.563164   1.552092   0.000000
    14  H    3.502490   2.162830   1.116080   0.000000
    15  N    2.997975   2.458690   1.466874   2.117480   0.000000
    16  C    4.232361   3.674723   2.383015   2.680516   1.293136
    17  H    6.288650   5.521640   4.026960   3.805081   4.248910
    18  H    4.886872   4.525558   3.403718   3.693135   4.056687
    19  H    2.832093   3.357251   2.783044   3.815167   2.666213
    20  H    3.491520   3.943326   3.505330   4.363321   4.023242
    21  H    2.179895   3.501522   3.989058   5.038756   4.317609
    22  H    2.167536   2.832733   3.444991   4.260019   4.359687
    23  H    1.113736   2.177161   2.830415   3.829823   2.677691
    24  H    1.111820   2.186276   3.524228   4.331997   4.001856
    25  H    2.178778   1.112155   2.187030   2.489619   2.684753
    26  H    2.177836   1.110579   2.186903   2.464688   3.415673
    27  H    4.901713   4.503557   3.382564   3.684424   2.055368
                   16         17         18         19         20
    16  C    0.000000
    17  H    3.543347   0.000000
    18  H    3.997408   2.462599   0.000000
    19  H    3.153207   4.608310   3.154079   0.000000
    20  H    4.491485   4.681196   2.457356   1.797864   0.000000
    21  H    5.265493   6.738479   4.785562   2.492444   2.525548
    22  H    5.363202   6.225886   4.175706   3.094828   2.471393
    23  H    3.854169   6.424583   5.251527   2.676386   3.843161
    24  H    5.269466   7.335310   5.858990   3.854972   4.329691
    25  H    3.888492   6.142491   5.476153   4.189531   5.000164
    26  H    4.529845   5.763969   4.604010   4.025470   4.147913
    27  H    1.100721   4.292534   4.939938   3.771401   5.296101
                   21         22         23         24         25
    21  H    0.000000
    22  H    1.799545   0.000000
    23  H    2.469276   3.084093   0.000000
    24  H    2.541284   2.469495   1.796024   0.000000
    25  H    4.334893   3.836289   2.486875   2.518286   0.000000
    26  H    3.843243   2.656902   3.093685   2.497833   1.795393
    27  H    5.880299   6.223725   4.305930   5.889726   4.556339
                   26         27
    26  H    0.000000
    27  H    5.449867   0.000000
 Symmetry turned off by external request.
 Stoichiometry    C9H13N3O2
 Framework group  C1[X(C9H13N3O2)]
 Deg. of freedom    75
 Full point group                 C1      NOp   1
 Rotational constants (GHZ):           1.6916934           0.3985513           0.3525539
 Standard basis: 6-31G(d) (6D, 7F)
   236 basis functions,   444 primitive gaussians,   236 cartesian basis functions
    52 alpha electrons       52 beta electrons
       nuclear repulsion energy       916.7935813381 Hartrees.
 NAtoms=   27 NActive=   27 NUniq=   27 SFac= 1.00D+00 NAtFMM=   60 NAOKFM=F Big=F
 Integral buffers will be    131072 words long.
 Raffenetti 1 integral format.
 Two-electron integral symmetry is turned off.
 One-electron integrals computed using PRISM.
 NBasis=   236 RedAO= T EigKep=  1.29D-03  NBF=   236
 NBsUse=   236 1.00D-06 EigRej= -1.00D+00 NBFU=   236
 ExpMin= 1.61D-01 ExpMax= 5.48D+03 ExpMxC= 8.25D+02 IAcc=3 IRadAn=         5 AccDes= 0.00D+00
 Harris functional with IExCor=  205 and IRadAn=       5 diagonalized for initial guess.
 HarFok:  IExCor=  205 AccDes= 0.00D+00 IRadAn=         5 IDoV= 1 UseB2=F ITyADJ=14
 ICtDFT=  3500011 ScaDFX=  1.000000  1.000000  1.000000  1.000000
 FoFCou: FMM=F IPFlag=           0 FMFlag=      100000 FMFlg1=           0
         NFxFlg=           0 DoJE=T BraDBF=F KetDBF=T FulRan=T
         wScrn=  0.000000 ICntrl=       500 IOpCl=  0 I1Cent=   200000004 NGrid=           0
         NMat0=    1 NMatS0=      1 NMatT0=    0 NMatD0=    1 NMtDS0=    0 NMtDT0=    0
 Symmetry not used in FoFCou.
 Keep R1 ints in memory in canonical form, NReq=397720213.
 Requested convergence on RMS density matrix=1.00D-08 within 128 cycles.
 Requested convergence on MAX density matrix=1.00D-06.
 Requested convergence on             energy=1.00D-06.
 No special actions if energy rises.
 SCF Done:  E(RHF) =  -661.278611780     A.U. after   16 cycles
            NFock= 16  Conv=0.83D-08     -V/T= 2.0037
 ExpMin= 1.61D-01 ExpMax= 5.48D+03 ExpMxC= 8.25D+02 IAcc=3 IRadAn=         5 AccDes= 0.00D+00
 HarFok:  IExCor=  205 AccDes= 0.00D+00 IRadAn=         5 IDoV=-2 UseB2=F ITyADJ=14
 ICtDFT= 12500011 ScaDFX=  1.000000  1.000000  1.000000  1.000000
 Range of M.O.s used for correlation:    15   236
 NBasis=   236 NAE=    52 NBE=    52 NFC=    14 NFV=     0
 NROrb=    222 NOA=    38 NOB=    38 NVA=   184 NVB=   184
 Fully direct method using O(ONN) memory.
 JobTyp=1 Pass  1:  I=  15 to  52 NPSUse=  4 ParTrn=T ParDer=T DoDerP=T.
 Spin components of T(2) and E(2):
     alpha-alpha T2 =       0.9186229079D-01 E2=     -0.2715794827D+00
     alpha-beta  T2 =       0.4997860079D+00 E2=     -0.1493648759D+01
     beta-beta   T2 =       0.9186229079D-01 E2=     -0.2715794827D+00
 ANorm=    0.1297501672D+01
 E2 =    -0.2036807724D+01 EUMP2 =    -0.66331541950450D+03
          IDoAtm=111111111111111111111111111
          Differentiating once with respect to electric field.
                with respect to dipole field.
          Differentiating once with respect to nuclear coordinates.
 Keep R1 ints in memory in canonical form, NReq=397723379.
          There are     1 degrees of freedom in the 1st order CPHF.  IDoFFX=0 NUNeed=     1.
 LinEq1:  Iter=  0 NonCon=     1 RMS=4.59D-03 Max=1.09D-01 NDo=     1
 AX will form     1 AO Fock derivatives at one time.
 LinEq1:  Iter=  1 NonCon=     1 RMS=1.55D-03 Max=3.11D-02 NDo=     1
 LinEq1:  Iter=  2 NonCon=     1 RMS=6.38D-04 Max=1.75D-02 NDo=     1
 LinEq1:  Iter=  3 NonCon=     1 RMS=2.94D-04 Max=8.95D-03 NDo=     1
 LinEq1:  Iter=  4 NonCon=     1 RMS=9.02D-05 Max=2.02D-03 NDo=     1
 LinEq1:  Iter=  5 NonCon=     1 RMS=3.79D-05 Max=1.95D-03 NDo=     1
 LinEq1:  Iter=  6 NonCon=     1 RMS=1.55D-05 Max=5.93D-04 NDo=     1
 LinEq1:  Iter=  7 NonCon=     1 RMS=6.07D-06 Max=1.11D-04 NDo=     1
 LinEq1:  Iter=  8 NonCon=     1 RMS=2.44D-06 Max=6.41D-05 NDo=     1
 LinEq1:  Iter=  9 NonCon=     1 RMS=9.27D-07 Max=2.65D-05 NDo=     1
 LinEq1:  Iter= 10 NonCon=     1 RMS=4.52D-07 Max=1.48D-05 NDo=     1
 LinEq1:  Iter= 11 NonCon=     1 RMS=1.57D-07 Max=5.82D-06 NDo=     1
 LinEq1:  Iter= 12 NonCon=     1 RMS=5.48D-08 Max=8.14D-07 NDo=     1
 LinEq1:  Iter= 13 NonCon=     1 RMS=1.75D-08 Max=3.48D-07 NDo=     1
 LinEq1:  Iter= 14 NonCon=     1 RMS=5.70D-09 Max=1.46D-07 NDo=     1
 LinEq1:  Iter= 15 NonCon=     1 RMS=2.15D-09 Max=4.63D-08 NDo=     1
 LinEq1:  Iter= 16 NonCon=     1 RMS=8.24D-10 Max=1.22D-08 NDo=     1
 LinEq1:  Iter= 17 NonCon=     1 RMS=2.69D-10 Max=3.91D-09 NDo=     1
 LinEq1:  Iter= 18 NonCon=     1 RMS=9.08D-11 Max=1.15D-09 NDo=     1
 LinEq1:  Iter= 19 NonCon=     0 RMS=2.93D-11 Max=3.94D-10 NDo=     1
 Linear equations converged to 1.000D-10 1.000D-09 after    19 iterations.
 End of Minotr F.D. properties file   721 does not exist.
 End of Minotr F.D. properties file   722 does not exist.
 End of Minotr F.D. properties file   788 does not exist.

 **********************************************************************

            Population analysis using the SCF Density.

 **********************************************************************

 Alpha  occ. eigenvalues --  -20.59927 -20.59460 -15.85333 -15.62764 -15.57160
 Alpha  occ. eigenvalues --  -11.35698 -11.30546 -11.30137 -11.30089 -11.27851
 Alpha  occ. eigenvalues --  -11.24568 -11.23833 -11.23493 -11.22878  -1.58561
 Alpha  occ. eigenvalues --   -1.38073  -1.28337  -1.22720  -1.13288  -1.08391
 Alpha  occ. eigenvalues --   -1.01863  -1.00668  -0.93484  -0.89021  -0.84911
 Alpha  occ. eigenvalues --   -0.81572  -0.78129  -0.76845  -0.74251  -0.71015
 Alpha  occ. eigenvalues --   -0.70396  -0.69823  -0.67338  -0.64442  -0.63438
 Alpha  occ. eigenvalues --   -0.61661  -0.60682  -0.57550  -0.56244  -0.54976
 Alpha  occ. eigenvalues --   -0.53320  -0.50769  -0.49174  -0.48496  -0.47731
 Alpha  occ. eigenvalues --   -0.47554  -0.46127  -0.45782  -0.44046  -0.42025
 Alpha  occ. eigenvalues --   -0.40184  -0.33846
 Alpha virt. eigenvalues --    0.07057   0.11732   0.18642   0.21295   0.23287
 Alpha virt. eigenvalues --    0.24110   0.26189   0.27660   0.28516   0.28975
 Alpha virt. eigenvalues --    0.30022   0.30926   0.31940   0.32163   0.33281
 Alpha virt. eigenvalues --    0.33516   0.34237   0.35667   0.37748   0.38621
 Alpha virt. eigenvalues --    0.40619   0.41875   0.44602   0.45434   0.45782
 Alpha virt. eigenvalues --    0.45823   0.49455   0.52991   0.57625   0.58882
 Alpha virt. eigenvalues --    0.63354   0.68840   0.69818   0.72042   0.73872
 Alpha virt. eigenvalues --    0.75064   0.75662   0.75697   0.77336   0.79643
 Alpha virt. eigenvalues --    0.80266   0.83465   0.84933   0.85644   0.88251
 Alpha virt. eigenvalues --    0.88710   0.90585   0.91020   0.91990   0.93809
 Alpha virt. eigenvalues --    0.95557   0.97298   0.98644   0.99879   1.01751
 Alpha virt. eigenvalues --    1.02632   1.04966   1.06218   1.06839   1.08634
 Alpha virt. eigenvalues --    1.09374   1.10433   1.10789   1.11805   1.13173
 Alpha virt. eigenvalues --    1.13682   1.14416   1.15110   1.16143   1.17359
 Alpha virt. eigenvalues --    1.17881   1.19639   1.21114   1.22159   1.23140
 Alpha virt. eigenvalues --    1.23314   1.24491   1.26039   1.27115   1.27397
 Alpha virt. eigenvalues --    1.29108   1.31405   1.33496   1.35589   1.40285
 Alpha virt. eigenvalues --    1.42871   1.45080   1.46785   1.48423   1.51640
 Alpha virt. eigenvalues --    1.53244   1.55089   1.61036   1.61487   1.66351
 Alpha virt. eigenvalues --    1.69017   1.70349   1.71843   1.73487   1.75852
 Alpha virt. eigenvalues --    1.78930   1.79833   1.84069   1.88754   1.92434
 Alpha virt. eigenvalues --    1.93894   1.96102   1.97923   1.99369   1.99854
 Alpha virt. eigenvalues --    2.03249   2.03929   2.05953   2.08582   2.11877
 Alpha virt. eigenvalues --    2.12200   2.14947   2.17831   2.18766   2.19118
 Alpha virt. eigenvalues --    2.21400   2.22462   2.23715   2.24825   2.26779
 Alpha virt. eigenvalues --    2.29261   2.32208   2.34040   2.35766   2.36264
 Alpha virt. eigenvalues --    2.37698   2.39883   2.40572   2.42920   2.46016
 Alpha virt. eigenvalues --    2.48687   2.50029   2.51803   2.55678   2.57289
 Alpha virt. eigenvalues --    2.61027   2.62453   2.66920   2.68362   2.68805
 Alpha virt. eigenvalues --    2.69878   2.70753   2.75020   2.77921   2.80769
 Alpha virt. eigenvalues --    2.84072   2.85887   2.90542   2.91740   2.95203
 Alpha virt. eigenvalues --    2.97887   2.98498   3.01985   3.03012   3.06178
 Alpha virt. eigenvalues --    3.06931   3.11711   3.19724   3.22555   3.26942
 Alpha virt. eigenvalues --    3.29151   3.34335   3.36940   3.43404   3.59258
 Alpha virt. eigenvalues --    4.09377   4.23124   4.32385   4.36206   4.42324
 Alpha virt. eigenvalues --    4.52880   4.59517   4.59920   4.70615   4.77216
 Alpha virt. eigenvalues --    4.95419   4.98966   5.02362   5.10096
          Condensed to atoms (all electrons):
               1          2          3          4          5          6
     1  O    8.298834   0.313360  -0.089229  -0.079526   0.003399  -0.000015
     2  N    0.313360   5.688060   0.308198   0.261897  -0.044476   0.000955
     3  O   -0.089229   0.308198   8.329403  -0.086558   0.007807   0.000443
     4  C   -0.079526   0.261897  -0.086558   5.239367   0.572101  -0.050720
     5  C    0.003399  -0.044476   0.007807   0.572101   4.663564   0.306733
     6  N   -0.000015   0.000955   0.000443  -0.050720   0.306733   7.208352
     7  C    0.000003  -0.000090   0.000001   0.002837  -0.028999   0.197827
     8  H   -0.000000   0.000003  -0.000000  -0.000037   0.001346  -0.050926
     9  C   -0.000000  -0.000002   0.000000   0.000284   0.002393  -0.059251
    10  C   -0.000000   0.000000  -0.000000  -0.000011  -0.000075   0.003410
    11  C   -0.000000  -0.000000  -0.000000  -0.000018   0.000016  -0.000174
    12  C   -0.000000   0.000002  -0.000000  -0.000013  -0.000106   0.003327
    13  C   -0.000020  -0.000041  -0.000003  -0.012168   0.000977  -0.040126
    14  H   -0.000005  -0.000052  -0.000000   0.003241   0.005561  -0.005381
    15  N    0.000092   0.001687  -0.000014  -0.060279  -0.004660   0.002423
    16  C    0.004222  -0.028389   0.001903   0.319966  -0.040993  -0.002099
    17  H    0.000104  -0.003563   0.010973  -0.030232   0.379554  -0.035155
    18  H    0.000000  -0.000035   0.000008   0.000738  -0.023284   0.327525
    19  H    0.000000   0.000001   0.000000  -0.000520   0.000304   0.000991
    20  H    0.000000  -0.000000   0.000000  -0.000020   0.000050  -0.002361
    21  H   -0.000000  -0.000000   0.000000   0.000000   0.000001  -0.000060
    22  H   -0.000000   0.000000  -0.000000  -0.000000  -0.000002  -0.000096
    23  H    0.000000  -0.000000   0.000000   0.000022  -0.000000  -0.000024
    24  H    0.000000   0.000000   0.000000   0.000000  -0.000000   0.000004
    25  H    0.000000  -0.000000   0.000000   0.000018  -0.000000  -0.000063
    26  H    0.000000  -0.000000   0.000000   0.000007  -0.000001  -0.000058
    27  H    0.004801  -0.000082  -0.000010  -0.065716   0.002168   0.000087
               7          8          9         10         11         12
     1  O    0.000003  -0.000000  -0.000000  -0.000000  -0.000000  -0.000000
     2  N   -0.000090   0.000003  -0.000002   0.000000  -0.000000   0.000002
     3  O    0.000001  -0.000000   0.000000  -0.000000  -0.000000  -0.000000
     4  C    0.002837  -0.000037   0.000284  -0.000011  -0.000018  -0.000013
     5  C   -0.028999   0.001346   0.002393  -0.000075   0.000016  -0.000106
     6  N    0.197827  -0.050926  -0.059251   0.003410  -0.000174   0.003327
     7  C    4.977592   0.415437   0.342114  -0.048287  -0.007668  -0.061568
     8  H    0.415437   0.550470  -0.061062   0.002009  -0.000230  -0.002026
     9  C    0.342114  -0.061062   5.185685   0.317995  -0.053149  -0.006726
    10  C   -0.048287   0.002009   0.317995   5.125525   0.332970  -0.060228
    11  C   -0.007668  -0.000230  -0.053149   0.332970   5.123271   0.329854
    12  C   -0.061568  -0.002026  -0.006726  -0.060228   0.329854   5.135534
    13  C    0.337896  -0.040870  -0.048935  -0.002357  -0.048472   0.366483
    14  H   -0.040695  -0.001262   0.004134  -0.000404   0.004054  -0.041887
    15  N   -0.056848   0.003996  -0.011612   0.001387  -0.006381  -0.071626
    16  C   -0.002317   0.000025  -0.000677  -0.000019   0.000005   0.002491
    17  H    0.001478  -0.000001  -0.000068   0.000001   0.000000   0.000001
    18  H   -0.027335  -0.001793   0.000561  -0.000122   0.000011  -0.000117
    19  H   -0.035042   0.004199   0.385065  -0.033128  -0.002315   0.000660
    20  H   -0.041114  -0.002064   0.397195  -0.037314   0.004166  -0.000346
    21  H    0.003908  -0.000101  -0.035633   0.400447  -0.036225   0.004264
    22  H   -0.003748   0.003361  -0.045945   0.395640  -0.045456  -0.001455
    23  H    0.000523   0.000030  -0.002176  -0.040417   0.396977  -0.037460
    24  H   -0.000135  -0.000076   0.004364  -0.038382   0.400540  -0.037727
    25  H    0.004759  -0.000044  -0.000350   0.004138  -0.034105   0.396022
    26  H   -0.003833   0.001759   0.000887  -0.002554  -0.042544   0.394410
    27  H   -0.000391   0.000009  -0.000052   0.000004   0.000003  -0.000014
              13         14         15         16         17         18
     1  O   -0.000020  -0.000005   0.000092   0.004222   0.000104   0.000000
     2  N   -0.000041  -0.000052   0.001687  -0.028389  -0.003563  -0.000035
     3  O   -0.000003  -0.000000  -0.000014   0.001903   0.010973   0.000008
     4  C   -0.012168   0.003241  -0.060279   0.319966  -0.030232   0.000738
     5  C    0.000977   0.005561  -0.004660  -0.040993   0.379554  -0.023284
     6  N   -0.040126  -0.005381   0.002423  -0.002099  -0.035155   0.327525
     7  C    0.337896  -0.040695  -0.056848  -0.002317   0.001478  -0.027335
     8  H   -0.040870  -0.001262   0.003996   0.000025  -0.000001  -0.001793
     9  C   -0.048935   0.004134  -0.011612  -0.000677  -0.000068   0.000561
    10  C   -0.002357  -0.000404   0.001387  -0.000019   0.000001  -0.000122
    11  C   -0.048472   0.004054  -0.006381   0.000005   0.000000   0.000011
    12  C    0.366483  -0.041887  -0.071626   0.002491   0.000001  -0.000117
    13  C    5.025902   0.400856   0.237566  -0.069182  -0.000047   0.003347
    14  H    0.400856   0.526296  -0.037368  -0.004838   0.000089  -0.000010
    15  N    0.237566  -0.037368   6.927176   0.586718  -0.000072  -0.000106
    16  C   -0.069182  -0.004838   0.586718   4.699861   0.001682  -0.000217
    17  H   -0.000047   0.000089  -0.000072   0.001682   0.391040  -0.001576
    18  H    0.003347  -0.000010  -0.000106  -0.000217  -0.001576   0.321568
    19  H   -0.006665   0.000065   0.006923   0.002331   0.000010  -0.000108
    20  H    0.003900  -0.000054   0.000037  -0.000029   0.000000   0.003383
    21  H   -0.000351   0.000009  -0.000025   0.000001  -0.000000  -0.000001
    22  H    0.000314  -0.000048   0.000004  -0.000001  -0.000000   0.000002
    23  H   -0.005863   0.000008   0.006554   0.000053   0.000000   0.000000
    24  H    0.004130  -0.000060   0.000020   0.000005   0.000000  -0.000000
    25  H   -0.034267  -0.002652   0.000588  -0.000041  -0.000000   0.000002
    26  H   -0.044652  -0.001119   0.004100  -0.000061   0.000000  -0.000001
    27  H    0.004787  -0.000182  -0.039446   0.402050  -0.000056   0.000003
              19         20         21         22         23         24
     1  O    0.000000   0.000000  -0.000000  -0.000000   0.000000   0.000000
     2  N    0.000001  -0.000000  -0.000000   0.000000  -0.000000   0.000000
     3  O    0.000000   0.000000   0.000000  -0.000000   0.000000   0.000000
     4  C   -0.000520  -0.000020   0.000000  -0.000000   0.000022   0.000000
     5  C    0.000304   0.000050   0.000001  -0.000002  -0.000000  -0.000000
     6  N    0.000991  -0.002361  -0.000060  -0.000096  -0.000024   0.000004
     7  C   -0.035042  -0.041114   0.003908  -0.003748   0.000523  -0.000135
     8  H    0.004199  -0.002064  -0.000101   0.003361   0.000030  -0.000076
     9  C    0.385065   0.397195  -0.035633  -0.045945  -0.002176   0.004364
    10  C   -0.033128  -0.037314   0.400447   0.395640  -0.040417  -0.038382
    11  C   -0.002315   0.004166  -0.036225  -0.045456   0.396977   0.400540
    12  C    0.000660  -0.000346   0.004264  -0.001455  -0.037460  -0.037727
    13  C   -0.006665   0.003900  -0.000351   0.000314  -0.005863   0.004130
    14  H    0.000065  -0.000054   0.000009  -0.000048   0.000008  -0.000060
    15  N    0.006923   0.000037  -0.000025   0.000004   0.006554   0.000020
    16  C    0.002331  -0.000029   0.000001  -0.000001   0.000053   0.000005
    17  H    0.000010   0.000000  -0.000000  -0.000000   0.000000   0.000000
    18  H   -0.000108   0.003383  -0.000001   0.000002   0.000000  -0.000000
    19  H    0.509961  -0.024297  -0.002689   0.003838   0.001742  -0.000066
    20  H   -0.024297   0.551595  -0.002638  -0.002980  -0.000052  -0.000090
    21  H   -0.002689  -0.002638   0.526767  -0.024760  -0.002834  -0.002054
    22  H    0.003838  -0.002980  -0.024760   0.569057   0.004091  -0.003526
    23  H    0.001742  -0.000052  -0.002834   0.004091   0.512328  -0.024806
    24  H   -0.000066  -0.000090  -0.002054  -0.003526  -0.024806   0.539759
    25  H   -0.000032   0.000011  -0.000086  -0.000086  -0.002145  -0.002364
    26  H    0.000031  -0.000037  -0.000076   0.002588   0.003904  -0.002776
    27  H    0.000061  -0.000000  -0.000000   0.000000  -0.000019  -0.000000
              25         26         27
     1  O    0.000000   0.000000   0.004801
     2  N   -0.000000  -0.000000  -0.000082
     3  O    0.000000   0.000000  -0.000010
     4  C    0.000018   0.000007  -0.065716
     5  C   -0.000000  -0.000001   0.002168
     6  N   -0.000063  -0.000058   0.000087
     7  C    0.004759  -0.003833  -0.000391
     8  H   -0.000044   0.001759   0.000009
     9  C   -0.000350   0.000887  -0.000052
    10  C    0.004138  -0.002554   0.000004
    11  C   -0.034105  -0.042544   0.000003
    12  C    0.396022   0.394410  -0.000014
    13  C   -0.034267  -0.044652   0.004787
    14  H   -0.002652  -0.001119  -0.000182
    15  N    0.000588   0.004100  -0.039446
    16  C   -0.000041  -0.000061   0.402050
    17  H   -0.000000   0.000000  -0.000056
    18  H    0.000002  -0.000001   0.000003
    19  H   -0.000032   0.000031   0.000061
    20  H    0.000011  -0.000037  -0.000000
    21  H   -0.000086  -0.000076  -0.000000
    22  H   -0.000086   0.002588   0.000000
    23  H   -0.002145   0.003904  -0.000019
    24  H   -0.002364  -0.002776  -0.000000
    25  H    0.509055  -0.023067  -0.000010
    26  H   -0.023067   0.560013   0.000001
    27  H   -0.000010   0.000001   0.454774
 Mulliken charges:
               1
     1  O   -0.456021
     2  N    0.502568
     3  O   -0.482924
     4  C   -0.014661
     5  C    0.196622
     6  N   -0.805566
     7  C    0.073694
     8  H    0.177848
     9  C   -0.315039
    10  C   -0.320229
    11  C   -0.315130
    12  C   -0.311749
    13  C   -0.032139
    14  H    0.191704
    15  N   -0.490834
    16  C    0.127552
    17  H    0.285838
    18  H    0.397557
    19  H    0.188680
    20  H    0.153058
    21  H    0.172134
    22  H    0.149208
    23  H    0.189563
    24  H    0.163239
    25  H    0.184718
    26  H    0.153080
    27  H    0.237229
 Sum of Mulliken charges =  -0.00000
 Mulliken charges with hydrogens summed into heavy atoms:
               1
     1  O   -0.456021
     2  N    0.502568
     3  O   -0.482924
     4  C   -0.014661
     5  C    0.482460
     6  N   -0.408009
     7  C    0.251541
     9  C    0.026700
    10  C    0.001112
    11  C    0.037672
    12  C    0.026050
    13  C    0.159565
    15  N   -0.490834
    16  C    0.364782
 Electronic spatial extent (au):  <R**2>=           3138.8129
 Charge=             -0.0000 electrons
 Dipole moment (field-independent basis, Debye):
    X=              5.3000    Y=              4.4076    Z=              0.2556  Tot=              6.8980
 Quadrupole moment (field-independent basis, Debye-Ang):
   XX=           -105.2068   YY=            -80.6311   ZZ=            -82.1444
   XY=             -2.2358   XZ=              2.1024   YZ=             -0.3505
 Traceless Quadrupole moment (field-independent basis, Debye-Ang):
   XX=            -15.8794   YY=              8.6964   ZZ=              7.1830
   XY=             -2.2358   XZ=              2.1024   YZ=             -0.3505
 Octapole moment (field-independent basis, Debye-Ang**2):
  XXX=            101.4393  YYY=             36.5737  ZZZ=             -6.6682  XYY=             -0.8439
  XXY=             12.4453  XXZ=             -6.7531  XZZ=             -8.3045  YZZ=             -2.4060
  YYZ=             -1.7572  XYZ=             -2.4532
 Hexadecapole moment (field-independent basis, Debye-Ang**3):
 XXXX=          -3579.4143 YYYY=           -627.9543 ZZZZ=           -291.1274 XXXY=            -55.3120
 XXXZ=             76.0452 YYYX=            -32.2831 YYYZ=              9.7257 ZZZX=             46.3870
 ZZZY=             14.9386 XXYY=           -661.9771 XXZZ=           -546.2395 YYZZ=           -163.1752
 XXYZ=              4.7472 YYXZ=             19.6566 ZZXY=              0.1397
 N-N= 9.167935813381D+02 E-N=-3.379590927273D+03  KE= 6.588559528847D+02
 Calling FoFJK, ICntrl=  10002127 FMM=F ISym2X=0 I1Cent= 0 IOpClX= 0 NMat=1 NMatS=1 NMatT=0.
 -------------------------------------------------------------------
 Center     Atomic                   Forces (Hartrees/Bohr)
 Number     Number              X              Y              Z
 -------------------------------------------------------------------
      1        8           0.002367516   -0.019538472   -0.003972036
      2        7           0.038482219    0.014453885   -0.002569301
      3        8          -0.005402662    0.015337528    0.003905353
      4        6          -0.003270856    0.010686532    0.011154722
      5        6           0.000646620   -0.017318846   -0.007559329
      6        7           0.016572633   -0.012488638   -0.000139145
      7        6          -0.002928573    0.003016635   -0.003444856
      8        1          -0.008215504   -0.002146924   -0.007195428
      9        6          -0.003031196   -0.001233878   -0.002981497
     10        6           0.003291872    0.000067626    0.001650171
     11        6          -0.001668797   -0.004824069   -0.003288896
     12        6           0.001287265   -0.007277780   -0.002979852
     13        6           0.003321831   -0.000115868    0.008717015
     14        1           0.000828421    0.004323923   -0.009455746
     15        7           0.001857363    0.003419322   -0.002454382
     16        6          -0.019669123    0.005421202    0.006484793
     17        1           0.005753141   -0.005068894   -0.009458365
     18        1          -0.016640216   -0.001275350    0.008856985
     19        1           0.002740725    0.006282142    0.008036981
     20        1          -0.003451783   -0.007265156    0.002325060
     21        1          -0.004760488    0.002366163    0.009532804
     22        1          -0.003535641   -0.003986102   -0.007627986
     23        1           0.004157854    0.005831457    0.009280460
     24        1          -0.009378519    0.002701185   -0.002440357
     25        1          -0.000985647    0.010843492   -0.002202212
     26        1          -0.004868596   -0.004790851   -0.004648635
     27        1           0.006500141    0.002579735    0.002473677
 -------------------------------------------------------------------
 Cartesian Forces:  Max     0.038482219 RMS     0.008430458

 GradGradGradGradGradGradGradGradGradGradGradGradGradGradGradGradGradGrad
 Berny optimization.
 FormGI is forming the generalized inverse of G from B-inverse, IUseBI=4.
 Internal  Forces:  Max     0.036893914 RMS     0.006717923
 Search for a local minimum.
 Step number   1 out of a maximum of  100
 All quantities printed in internal units (Hartrees-Bohrs-Radians)
 Mixed Optimization -- RFO/linear search
 Second derivative matrix not updated -- first step.
 ITU=  0
     Eigenvalues ---    0.00231   0.00765   0.01036   0.01154   0.01195
     Eigenvalues ---    0.01514   0.01539   0.01675   0.01995   0.02032
     Eigenvalues ---    0.02098   0.02655   0.03665   0.04542   0.04715
     Eigenvalues ---    0.04838   0.05063   0.05137   0.05293   0.05866
     Eigenvalues ---    0.06340   0.07204   0.07804   0.07835   0.07946
     Eigenvalues ---    0.08001   0.08021   0.08098   0.10490   0.11775
     Eigenvalues ---    0.12344   0.13847   0.15560   0.15992   0.15996
     Eigenvalues ---    0.16090   0.20091   0.21485   0.23014   0.24987
     Eigenvalues ---    0.25000   0.25000   0.25425   0.26164   0.26710
     Eigenvalues ---    0.28093   0.28150   0.28500   0.29843   0.31380
     Eigenvalues ---    0.31614   0.31965   0.32208   0.32277   0.32373
     Eigenvalues ---    0.32380   0.32408   0.32426   0.32512   0.32539
     Eigenvalues ---    0.33319   0.33384   0.33603   0.35084   0.43890
     Eigenvalues ---    0.44382   0.48910   0.66573   0.90466   0.91187
     Eigenvalues --- 1000.000001000.000001000.000001000.000001000.00000
     Eigenvalues --- 1000.000001000.000001000.000001000.000001000.00000
     Eigenvalues --- 1000.000001000.000001000.000001000.000001000.00000
     Eigenvalues --- 1000.000001000.000001000.000001000.000001000.00000
     Eigenvalues --- 1000.000001000.000001000.000001000.000001000.00000
     Eigenvalues --- 1000.000001000.000001000.000001000.000001000.00000
     Eigenvalues --- 1000.000001000.000001000.000001000.000001000.00000
     Eigenvalues --- 1000.000001000.000001000.000001000.000001000.00000
     Eigenvalues --- 1000.000001000.000001000.000001000.000001000.00000
     Eigenvalues --- 1000.000001000.000001000.000001000.000001000.00000
     Eigenvalues --- 1000.000001000.000001000.000001000.000001000.00000
     Eigenvalues --- 1000.000001000.000001000.000001000.000001000.00000
     Eigenvalues --- 1000.000001000.000001000.000001000.000001000.00000
     Eigenvalues --- 1000.000001000.000001000.000001000.000001000.00000
     Eigenvalues --- 1000.000001000.000001000.000001000.000001000.00000
     Eigenvalues --- 1000.000001000.000001000.000001000.000001000.00000
     Eigenvalues --- 1000.000001000.000001000.000001000.000001000.00000
     Eigenvalues --- 1000.000001000.000001000.000001000.000001000.00000
     Eigenvalues --- 1000.00000
 RFO step:  Lambda=-2.33868952D-02 EMin= 2.30859036D-03
 Linear search not attempted -- first point.
 Iteration  1 RMS(Cart)=  0.05250539 RMS(Int)=  0.00106710
 Iteration  2 RMS(Cart)=  0.00116910 RMS(Int)=  0.00020091
 Iteration  3 RMS(Cart)=  0.00000128 RMS(Int)=  0.00020091
 Iteration  4 RMS(Cart)=  0.00000000 RMS(Int)=  0.00020091
 Iteration  1 RMS(Cart)=  0.00002918 RMS(Int)=  0.00001923
 Iteration  2 RMS(Cart)=  0.00001501 RMS(Int)=  0.00002145
 Iteration  3 RMS(Cart)=  0.00000805 RMS(Int)=  0.00002387
 Iteration  4 RMS(Cart)=  0.00000446 RMS(Int)=  0.00002534
 Iteration  5 RMS(Cart)=  0.00000254 RMS(Int)=  0.00002617
 Iteration  6 RMS(Cart)=  0.00000148 RMS(Int)=  0.00002663
 Iteration  7 RMS(Cart)=  0.00000089 RMS(Int)=  0.00002689
 Variable       Old X    -DE/DX   Delta X   Delta X   Delta X     New X
                                 (Linear)    (Quad)   (Total)
    R1        2.32391   0.01839   0.00000   0.01966   0.01966   2.34356
    R2        2.32719   0.01566   0.00000   0.01687   0.01687   2.34406
    R3        2.88277  -0.03689   0.00000  -0.11464  -0.11464   2.76813
    R4        2.64218  -0.03512   0.00000  -0.07595  -0.07576   2.56642
    R5        2.80646  -0.01976   0.00000  -0.05732  -0.05712   2.74934
    R6        2.58993  -0.02128   0.00000  -0.04136  -0.04131   2.54861
    R7        2.08382  -0.01000   0.00000  -0.02799  -0.02799   2.05584
    R8        2.82604  -0.01952   0.00000  -0.05385  -0.05393   2.77211
    R9        1.93286  -0.00714   0.00000  -0.01544  -0.01544   1.91742
   R10        2.11556  -0.01054   0.00000  -0.03104  -0.03104   2.08452
   R11        2.92733  -0.01243   0.00000  -0.04251  -0.04255   2.88478
   R12        2.90812  -0.00711   0.00000  -0.01697  -0.01703   2.89109
   R13        2.91014  -0.00511   0.00000  -0.01521  -0.01522   2.89492
   R14        2.10072  -0.01028   0.00000  -0.02958  -0.02958   2.07114
   R15        2.09917  -0.00793   0.00000  -0.02276  -0.02276   2.07641
   R16        2.90222  -0.00205   0.00000  -0.00770  -0.00772   2.89450
   R17        2.10155  -0.01064   0.00000  -0.03065  -0.03065   2.07090
   R18        2.10339  -0.00902   0.00000  -0.02604  -0.02604   2.07735
   R19        2.91389  -0.00829   0.00000  -0.02600  -0.02595   2.88793
   R20        2.10466  -0.01161   0.00000  -0.03360  -0.03360   2.07106
   R21        2.10103  -0.01003   0.00000  -0.02886  -0.02886   2.07217
   R22        2.93303  -0.01078   0.00000  -0.03773  -0.03773   2.89530
   R23        2.10167  -0.01088   0.00000  -0.03134  -0.03134   2.07032
   R24        2.09869  -0.00803   0.00000  -0.02301  -0.02301   2.07568
   R25        2.10909  -0.00872   0.00000  -0.02541  -0.02541   2.08368
   R26        2.77199  -0.00648   0.00000  -0.01386  -0.01411   2.75788
   R27        2.44367  -0.00728   0.00000  -0.01015  -0.01016   2.43351
   R28        2.08006  -0.00617   0.00000  -0.01718  -0.01718   2.06288
    A1        2.16059   0.01071   0.00000   0.03929   0.03918   2.19977
    A2        2.05302  -0.00798   0.00000  -0.02907  -0.02918   2.02383
    A3        2.06947  -0.00272   0.00000  -0.00984  -0.00996   2.05952
    A4        2.03873  -0.00584   0.00000  -0.01983  -0.02005   2.01868
    A5        2.03863  -0.00333   0.00000  -0.01063  -0.01089   2.02775
    A6        2.20532   0.00913   0.00000   0.02949   0.02950   2.23482
    A7        2.18778   0.00502   0.00000   0.01780   0.01779   2.20557
    A8        2.06896  -0.00305   0.00000  -0.01173  -0.01184   2.05712
    A9        2.02617  -0.00194   0.00000  -0.00557  -0.00568   2.02049
   A10        2.25241  -0.00361   0.00000  -0.00736  -0.00769   2.24472
   A11        2.12804  -0.01283   0.00000  -0.07458  -0.07469   2.05335
   A12        1.88686   0.01657   0.00000   0.08604   0.08623   1.97308
   A13        1.84979  -0.00104   0.00000  -0.01330  -0.01313   1.83666
   A14        1.97368  -0.00023   0.00000  -0.00969  -0.00957   1.96410
   A15        1.98528  -0.00109   0.00000  -0.00172  -0.00219   1.98308
   A16        1.86041   0.00213   0.00000   0.02272   0.02256   1.88298
   A17        1.85390   0.00015   0.00000   0.00930   0.00917   1.86307
   A18        1.93027   0.00028   0.00000  -0.00437  -0.00413   1.92614
   A19        1.92453  -0.00020   0.00000  -0.00310  -0.00322   1.92131
   A20        1.91498  -0.00088   0.00000  -0.01339  -0.01335   1.90163
   A21        1.92386  -0.00146   0.00000  -0.00848  -0.00849   1.91538
   A22        1.91265   0.00025   0.00000   0.00951   0.00949   1.92214
   A23        1.90262   0.00285   0.00000   0.02229   0.02231   1.92493
   A24        1.88471  -0.00054   0.00000  -0.00656  -0.00686   1.87785
   A25        1.94068  -0.00135   0.00000   0.00212   0.00200   1.94269
   A26        1.91927  -0.00068   0.00000  -0.00624  -0.00624   1.91303
   A27        1.90410   0.00066   0.00000  -0.00092  -0.00094   1.90316
   A28        1.91620   0.00119   0.00000   0.00914   0.00917   1.92537
   A29        1.89856   0.00154   0.00000   0.01036   0.01039   1.90895
   A30        1.88397  -0.00134   0.00000  -0.01486  -0.01494   1.86903
   A31        1.94136   0.00000   0.00000   0.00242   0.00251   1.94387
   A32        1.90229   0.00099   0.00000   0.00657   0.00651   1.90880
   A33        1.91949   0.00031   0.00000   0.00528   0.00528   1.92476
   A34        1.90356  -0.00064   0.00000  -0.01066  -0.01069   1.89288
   A35        1.91778  -0.00037   0.00000   0.00015   0.00009   1.91788
   A36        1.87811  -0.00030   0.00000  -0.00407  -0.00410   1.87401
   A37        1.95254  -0.00182   0.00000  -0.01192  -0.01194   1.94060
   A38        1.90732   0.00259   0.00000   0.01819   0.01807   1.92539
   A39        1.90763   0.00100   0.00000   0.01223   0.01221   1.91983
   A40        1.90647  -0.00077   0.00000  -0.00737  -0.00725   1.89922
   A41        1.90787  -0.00027   0.00000  -0.00653  -0.00650   1.90137
   A42        1.88062  -0.00069   0.00000  -0.00436  -0.00458   1.87604
   A43        1.86009   0.00305   0.00000   0.01849   0.01851   1.87860
   A44        1.92712  -0.00332   0.00000  -0.02983  -0.03013   1.89699
   A45        1.98982   0.00143   0.00000   0.01407   0.01417   2.00399
   A46        1.87061   0.00245   0.00000   0.03131   0.03156   1.90217
   A47        1.90287  -0.00427   0.00000  -0.02671  -0.02671   1.87616
   A48        1.90899   0.00075   0.00000  -0.00537  -0.00519   1.90381
   A49        2.08165  -0.00658   0.00000  -0.01180  -0.01212   2.06954
   A50        2.24016  -0.00415   0.00000  -0.01616  -0.01622   2.22393
   A51        1.98145   0.00623   0.00000   0.03101   0.03065   2.01210
   A52        2.06119  -0.00202   0.00000  -0.01375  -0.01410   2.04709
    D1       -3.02908  -0.00126   0.00000  -0.03018  -0.02967  -3.05874
    D2        0.14416  -0.00019   0.00000   0.00000  -0.00000   0.14416
    D3        0.12792  -0.00161   0.00000  -0.05684  -0.05658   0.07135
    D4       -2.98202  -0.00054   0.00000  -0.02665  -0.02691  -3.00893
    D5        3.11791  -0.00039   0.00000  -0.00568  -0.00575   3.11216
    D6        0.00236  -0.00167   0.00000  -0.02981  -0.02986  -0.02750
    D7       -0.05876  -0.00188   0.00000  -0.04009  -0.04055  -0.09931
    D8        3.10887  -0.00315   0.00000  -0.06421  -0.06466   3.04421
    D9       -2.61331  -0.00189   0.00000  -0.04488  -0.04551  -2.65882
   D10        0.49726   0.00045   0.00000  -0.00170  -0.00186   0.49540
   D11        0.56336  -0.00036   0.00000  -0.01032  -0.01039   0.55297
   D12       -2.60926   0.00198   0.00000   0.03286   0.03326  -2.57600
   D13       -0.36683   0.00150   0.00000   0.05697   0.05720  -0.30963
   D14        2.56061   0.00413   0.00000   0.09340   0.09252   2.65312
   D15        2.74929   0.00273   0.00000   0.08048   0.08078   2.83007
   D16       -0.60646   0.00536   0.00000   0.11691   0.11609  -0.49036
   D17       -2.26738  -0.00068   0.00000  -0.03226  -0.03187  -2.29926
   D18        1.98381  -0.00250   0.00000  -0.04637  -0.04600   1.93782
   D19       -0.23710  -0.00174   0.00000  -0.03027  -0.03015  -0.26725
   D20        1.06514  -0.00042   0.00000  -0.05021  -0.05071   1.01443
   D21       -0.96685  -0.00224   0.00000  -0.06433  -0.06483  -1.03168
   D22        3.09542  -0.00148   0.00000  -0.04823  -0.04898   3.04644
   D23        2.97396   0.00230   0.00000   0.02046   0.02048   2.99444
   D24       -1.20094   0.00192   0.00000   0.02168   0.02168  -1.17926
   D25        0.87242  -0.00018   0.00000   0.00017   0.00027   0.87269
   D26        0.94827   0.00236   0.00000   0.02776   0.02775   0.97602
   D27        3.05656   0.00198   0.00000   0.02897   0.02895   3.08551
   D28       -1.15327  -0.00012   0.00000   0.00746   0.00755  -1.14572
   D29       -1.05968   0.00086   0.00000   0.00639   0.00630  -1.05338
   D30        1.04861   0.00048   0.00000   0.00760   0.00750   1.05611
   D31        3.12196  -0.00162   0.00000  -0.01391  -0.01391   3.10805
   D32       -2.96136  -0.00057   0.00000  -0.01214  -0.01192  -2.97328
   D33       -0.93543   0.00234   0.00000   0.01997   0.01989  -0.91554
   D34        1.22173   0.00179   0.00000   0.00000  -0.00000   1.22173
   D35       -0.93349  -0.00233   0.00000  -0.02339  -0.02332  -0.95681
   D36        1.09244   0.00057   0.00000   0.00872   0.00849   1.10093
   D37       -3.03358   0.00003   0.00000  -0.01125  -0.01140  -3.04498
   D38        1.07855   0.00041   0.00000   0.00635   0.00643   1.08498
   D39        3.10448   0.00331   0.00000   0.03846   0.03824  -3.14047
   D40       -1.02154   0.00277   0.00000   0.01849   0.01835  -1.00320
   D41        0.95661   0.00041   0.00000   0.00000   0.00000   0.95662
   D42        3.08274   0.00055   0.00000   0.00871   0.00867   3.09141
   D43       -1.13736  -0.00109   0.00000  -0.01358  -0.01356  -1.15092
   D44       -1.15307   0.00147   0.00000   0.01247   0.01255  -1.14052
   D45        0.97305   0.00161   0.00000   0.02118   0.02121   0.99427
   D46        3.03615  -0.00003   0.00000  -0.00110  -0.00101   3.03513
   D47        3.07087   0.00031   0.00000   0.00183   0.00180   3.07267
   D48       -1.08619   0.00044   0.00000   0.01054   0.01046  -1.07573
   D49        0.97690  -0.00119   0.00000  -0.01174  -0.01177   0.96513
   D50       -0.92188  -0.00107   0.00000   0.00000   0.00000  -0.92188
   D51        1.17754  -0.00123   0.00000  -0.00745  -0.00746   1.17008
   D52       -3.05061  -0.00082   0.00000  -0.00543  -0.00545  -3.05607
   D53       -3.04979  -0.00012   0.00000   0.00025   0.00027  -3.04952
   D54       -0.95037  -0.00027   0.00000  -0.00720  -0.00720  -0.95756
   D55        1.10466   0.00013   0.00000  -0.00518  -0.00519   1.09948
   D56        1.17537  -0.00009   0.00000   0.00687   0.00688   1.18225
   D57       -3.00839  -0.00024   0.00000  -0.00058  -0.00058  -3.00897
   D58       -0.95336   0.00016   0.00000   0.00144   0.00143  -0.95194
   D59        0.98620  -0.00003   0.00000  -0.00878  -0.00884   0.97737
   D60        3.09974  -0.00042   0.00000  -0.01345  -0.01359   3.08615
   D61       -1.12931   0.00082   0.00000  -0.00111  -0.00109  -1.13040
   D62       -1.11247  -0.00084   0.00000  -0.01152  -0.01152  -1.12399
   D63        1.00107  -0.00123   0.00000  -0.01619  -0.01628   0.98479
   D64        3.05520   0.00001   0.00000  -0.00385  -0.00378   3.05143
   D65        3.11592   0.00011   0.00000  -0.00038  -0.00040   3.11552
   D66       -1.05373  -0.00028   0.00000  -0.00506  -0.00515  -1.05888
   D67        1.00041   0.00096   0.00000   0.00729   0.00735   1.00776
   D68       -1.04596   0.00038   0.00000   0.00167   0.00178  -1.04418
   D69       -3.10940   0.00145   0.00000   0.01111   0.01083  -3.09858
   D70        1.10922   0.00148   0.00000   0.01434   0.01426   1.12348
   D71        3.12320  -0.00117   0.00000  -0.00846  -0.00830   3.11490
   D72        1.05976  -0.00010   0.00000   0.00098   0.00075   1.06050
   D73       -1.00481  -0.00007   0.00000   0.00421   0.00419  -1.00062
   D74        1.06941   0.00027   0.00000   0.00484   0.00501   1.07442
   D75       -0.99403   0.00133   0.00000   0.01428   0.01405  -0.97998
   D76       -3.05860   0.00136   0.00000   0.01751   0.01749  -3.04111
   D77       -1.17217   0.00092   0.00000   0.00000   0.00000  -1.17216
   D78        3.03508  -0.00088   0.00000  -0.01377  -0.01358   3.02149
   D79        0.99477  -0.00182   0.00000  -0.03313  -0.03334   0.96143
   D80        0.08792   0.00282   0.00000   0.02556   0.02534   0.11326
   D81       -3.02142   0.00027   0.00000  -0.02000  -0.01975  -3.04118
         Item               Value     Threshold  Converged?
 Maximum Force            0.036894     0.000450     NO 
 RMS     Force            0.006811     0.000300     NO 
 Maximum Displacement     0.263365     0.001800     NO 
 RMS     Displacement     0.052855     0.001200     NO 
 Predicted change in Energy=-1.330942D-02
 GradGradGradGradGradGradGradGradGradGradGradGradGradGradGradGradGradGrad

                          Input orientation:                          
 ---------------------------------------------------------------------
 Center     Atomic      Atomic             Coordinates (Angstroms)
 Number     Number       Type             X           Y           Z
 ---------------------------------------------------------------------
      1          8           0       -3.483733   -1.460751   -0.086435
      2          7           0       -3.145800   -0.277780    0.069708
      3          8           0       -3.906243    0.673313    0.305919
      4          6           0       -1.709833   -0.003620   -0.022832
      5          6           0       -1.336292    1.273700    0.247967
      6          7           0       -0.075798    1.753232    0.258229
      7          6           0        1.185978    1.009477    0.339828
      8          1           0        1.772006    1.518054    1.123864
      9          6           0        1.986624    1.071418   -0.958443
     10          6           0        3.376136    0.461293   -0.749162
     11          6           0        3.280757   -0.962474   -0.192466
     12          6           0        2.409503   -1.012815    1.062072
     13          6           0        1.013732   -0.442452    0.790195
     14          1           0        0.432275   -0.455205    1.726972
     15          7           0        0.366084   -1.313684   -0.185189
     16          6           0       -0.873038   -1.107190   -0.468487
     17          1           0       -2.117824    1.992976    0.483296
     18          1           0        0.055690    2.736408    0.044679
     19          1           0        1.446111    0.520577   -1.736671
     20          1           0        2.074832    2.115047   -1.290690
     21          1           0        3.925190    0.463007   -1.697568
     22          1           0        3.941989    1.090182   -0.047211
     23          1           0        2.837508   -1.619671   -0.949266
     24          1           0        4.281394   -1.350438    0.032526
     25          1           0        2.307028   -2.045644    1.412836
     26          1           0        2.879667   -0.435144    1.869368
     27          1           0       -1.362933   -1.827805   -1.126039
 ---------------------------------------------------------------------
                    Distance matrix (angstroms):
                    1          2          3          4          5
     1  O    0.000000
     2  N    1.240161   0.000000
     3  O    2.210584   1.240422   0.000000
     4  C    2.296518   1.464830   2.321752   0.000000
     5  C    3.492928   2.390227   2.639786   1.358091   0.000000
     6  N    4.697074   3.685846   3.980052   2.415698   1.348667
     7  C    5.299993   4.527063   5.103417   3.089273   2.537735
     8  H    6.161241   5.340513   5.798718   3.969081   3.238583
     9  C    6.090737   5.405479   6.040114   3.961675   3.540920
    10  C    7.154807   6.614562   7.361467   5.158564   4.884798
    11  C    6.783645   6.468243   7.387635   5.084699   5.148942
    12  C    6.020793   5.690910   6.580536   4.377719   4.463396
    13  C    4.693890   4.224680   5.068097   2.876002   2.960034
    14  H    4.431105   3.947230   4.702732   2.802565   2.881736
    15  N    3.853890   3.670340   4.737312   2.460093   3.127342
    16  C    2.662085   2.478512   3.601420   1.454889   2.529140
    17  H    3.757463   2.526682   2.229667   2.099767   1.087902
    18  H    5.491889   4.397214   4.474541   3.260273   2.029398
    19  H    5.563480   4.998603   5.730899   3.629327   3.499680
    20  H    6.718200   5.901805   6.356179   4.518839   3.835505
    21  H    7.822323   7.326045   8.086380   5.897116   5.667939
    22  H    7.851761   7.219539   7.867225   5.756743   5.289713
    23  H    6.381835   6.216024   7.232665   4.914083   5.217813
    24  H    7.766822   7.504345   8.438467   6.140993   6.204105
    25  H    6.010226   5.887501   6.871879   4.729289   5.064459
    26  H    6.735717   6.290452   7.051356   4.982985   4.829430
    27  H    2.390251   2.647830   3.843764   2.159874   3.392334
                    6          7          8          9         10
     6  N    0.000000
     7  C    1.466938   0.000000
     8  H    2.054023   1.103083   0.000000
     9  C    2.489728   1.526558   2.140455   0.000000
    10  C    3.820967   2.506631   2.682947   1.531925   0.000000
    11  C    4.341042   2.925753   3.187801   2.529470   1.531705
    12  C    3.804458   2.471501   2.610655   2.933485   2.527438
    13  C    2.508204   1.529901   2.128355   2.509194   2.960968
    14  H    2.700470   2.153492   2.460156   3.458038   3.954431
    15  N    3.130152   2.518918   3.421838   2.985428   3.539636
    16  C    3.057077   3.061568   4.052622   3.628230   4.538105
    17  H    2.068334   3.450067   3.970725   4.446839   5.835118
    18  H    1.014656   2.084934   2.365326   2.739881   4.102644
    19  H    2.795581   2.149080   3.046938   1.096001   2.168798
    20  H    2.674933   2.161235   2.505629   1.098786   2.172912
    21  H    4.636564   3.457297   3.702676   2.162062   1.095873
    22  H    4.083569   2.784225   2.502663   2.157348   1.099285
    23  H    4.617560   3.361805   3.908769   2.822418   2.158835
    24  H    5.354328   3.904515   3.964378   3.480427   2.170920
    25  H    4.630597   3.426640   3.615203   3.929592   3.478787
    26  H    4.014913   2.700926   2.365939   3.326224   2.811900
    27  H    4.049288   4.086059   5.107315   4.433182   5.276436
                   11         12         13         14         15
    11  C    0.000000
    12  C    1.528228   0.000000
    13  C    2.524965   1.532126   0.000000
    14  H    3.472090   2.159271   1.102636   0.000000
    15  N    2.935766   2.412829   1.459407   2.097076   0.000000
    16  C    4.165470   3.623064   2.363484   2.636089   1.287758
    17  H    6.191609   5.465022   3.978962   3.747443   4.189353
    18  H    4.913148   4.542268   3.402761   3.627440   4.068467
    19  H    2.819563   3.333523   2.738509   3.738561   2.634022
    20  H    3.483029   3.928233   3.463642   4.290743   3.987249
    21  H    2.170858   3.477207   3.935151   4.977052   4.255721
    22  H    2.161418   2.828713   3.409532   4.225404   4.310999
    23  H    1.095958   2.144047   2.781677   3.781980   2.604876
    24  H    1.096546   2.162852   3.475072   4.299803   3.921531
    25  H    2.167579   1.095569   2.151865   2.478482   2.618533
    26  H    2.165666   1.098401   2.155547   2.451612   3.363203
    27  H    4.814998   4.436587   3.352564   3.639570   2.034457
                   16         17         18         19         20
    16  C    0.000000
    17  H    3.473675   0.000000
    18  H    3.987370   2.338641   0.000000
    19  H    3.104250   4.449478   3.164867   0.000000
    20  H    4.443959   4.554151   2.499246   1.771024   0.000000
    21  H    5.196071   6.604165   4.814230   2.480056   2.513685
    22  H    5.309463   6.149619   4.221590   3.067268   2.466346
    23  H    3.776498   6.297521   5.263255   2.671451   3.827056
    24  H    5.184434   7.234059   5.878693   3.830089   4.316179
    25  H    3.812202   6.062492   5.459706   4.152838   4.967325
    26  H    4.472136   5.726419   4.622020   3.996499   4.139710
    27  H    1.091630   4.214047   4.920884   3.711940   5.233681
                   21         22         23         24         25
    21  H    0.000000
    22  H    1.765590   0.000000
    23  H    2.465878   3.062170   0.000000
    24  H    2.531538   2.465396   1.766694   0.000000
    25  H    4.311194   3.825995   2.458127   2.507327   0.000000
    26  H    3.823981   2.669911   3.057708   2.485275   1.769194
    27  H    5.791262   6.149854   4.209307   5.781745   4.467879
                   26         27
    26  H    0.000000
    27  H    5.376952   0.000000
 Symmetry turned off by external request.
 Stoichiometry    C9H13N3O2
 Framework group  C1[X(C9H13N3O2)]
 Deg. of freedom    75
 Full point group                 C1      NOp   1
 Rotational constants (GHZ):           1.7073380           0.4182459           0.3680098
 Standard basis: 6-31G(d) (6D, 7F)
   236 basis functions,   444 primitive gaussians,   236 cartesian basis functions
    52 alpha electrons       52 beta electrons
       nuclear repulsion energy       930.7864755685 Hartrees.
 NAtoms=   27 NActive=   27 NUniq=   27 SFac= 1.00D+00 NAtFMM=   60 NAOKFM=F Big=F
 Integral buffers will be    131072 words long.
 Raffenetti 1 integral format.
 Two-electron integral symmetry is turned off.
 One-electron integrals computed using PRISM.
 NBasis=   236 RedAO= T EigKep=  1.02D-03  NBF=   236
 NBsUse=   236 1.00D-06 EigRej= -1.00D+00 NBFU=   236
 Initial guess from the checkpoint file:  "/home/alexey/tmp/Gau-1172163.chk"
 B after Tr=     0.050665    0.004890   -0.000069
         Rot=    0.999999   -0.000406    0.000547    0.001144 Ang=  -0.15 deg.
 ExpMin= 1.61D-01 ExpMax= 5.48D+03 ExpMxC= 8.25D+02 IAcc=3 IRadAn=         5 AccDes= 0.00D+00
 Harris functional with IExCor=  205 and IRadAn=       5 diagonalized for initial guess.
 HarFok:  IExCor=  205 AccDes= 0.00D+00 IRadAn=         5 IDoV= 1 UseB2=F ITyADJ=14
 ICtDFT=  3500011 ScaDFX=  1.000000  1.000000  1.000000  1.000000
 FoFCou: FMM=F IPFlag=           0 FMFlag=      100000 FMFlg1=           0
         NFxFlg=           0 DoJE=T BraDBF=F KetDBF=T FulRan=T
         wScrn=  0.000000 ICntrl=       500 IOpCl=  0 I1Cent=   200000004 NGrid=           0
         NMat0=    1 NMatS0=      1 NMatT0=    0 NMatD0=    1 NMtDS0=    0 NMtDT0=    0
 Symmetry not used in FoFCou.
 Keep R1 ints in memory in canonical form, NReq=397720213.
 Requested convergence on RMS density matrix=1.00D-08 within 128 cycles.
 Requested convergence on MAX density matrix=1.00D-06.
 Requested convergence on             energy=1.00D-06.
 No special actions if energy rises.
 SCF Done:  E(RHF) =  -661.296393704     A.U. after   14 cycles
            NFock= 14  Conv=0.95D-08     -V/T= 2.0025
 ExpMin= 1.61D-01 ExpMax= 5.48D+03 ExpMxC= 8.25D+02 IAcc=3 IRadAn=         5 AccDes= 0.00D+00
 HarFok:  IExCor=  205 AccDes= 0.00D+00 IRadAn=         5 IDoV=-2 UseB2=F ITyADJ=14
 ICtDFT= 12500011 ScaDFX=  1.000000  1.000000  1.000000  1.000000
 Range of M.O.s used for correlation:    15   236
 NBasis=   236 NAE=    52 NBE=    52 NFC=    14 NFV=     0
 NROrb=    222 NOA=    38 NOB=    38 NVA=   184 NVB=   184
 Fully direct method using O(ONN) memory.
 JobTyp=1 Pass  1:  I=  15 to  52 NPSUse=  4 ParTrn=T ParDer=T DoDerP=T.
 Spin components of T(2) and E(2):
     alpha-alpha T2 =       0.9112871040D-01 E2=     -0.2721024644D+00
     alpha-beta  T2 =       0.4913441635D+00 E2=     -0.1487874430D+01
     beta-beta   T2 =       0.9112871040D-01 E2=     -0.2721024644D+00
 ANorm=    0.1293677543D+01
 E2 =    -0.2032079359D+01 EUMP2 =    -0.66332847306279D+03
          IDoAtm=111111111111111111111111111
          Differentiating once with respect to electric field.
                with respect to dipole field.
          Differentiating once with respect to nuclear coordinates.
 Keep R1 ints in memory in canonical form, NReq=397723379.
          There are     1 degrees of freedom in the 1st order CPHF.  IDoFFX=0 NUNeed=     1.
 LinEq1:  Iter=  0 NonCon=     1 RMS=4.56D-03 Max=1.04D-01 NDo=     1
 AX will form     1 AO Fock derivatives at one time.
 LinEq1:  Iter=  1 NonCon=     1 RMS=1.53D-03 Max=2.51D-02 NDo=     1
 LinEq1:  Iter=  2 NonCon=     1 RMS=6.39D-04 Max=1.75D-02 NDo=     1
 LinEq1:  Iter=  3 NonCon=     1 RMS=2.80D-04 Max=8.01D-03 NDo=     1
 LinEq1:  Iter=  4 NonCon=     1 RMS=8.64D-05 Max=1.84D-03 NDo=     1
 LinEq1:  Iter=  5 NonCon=     1 RMS=3.62D-05 Max=1.83D-03 NDo=     1
 LinEq1:  Iter=  6 NonCon=     1 RMS=1.40D-05 Max=5.37D-04 NDo=     1
 LinEq1:  Iter=  7 NonCon=     1 RMS=5.42D-06 Max=1.06D-04 NDo=     1
 LinEq1:  Iter=  8 NonCon=     1 RMS=2.17D-06 Max=5.78D-05 NDo=     1
 LinEq1:  Iter=  9 NonCon=     1 RMS=7.96D-07 Max=2.43D-05 NDo=     1
 LinEq1:  Iter= 10 NonCon=     1 RMS=4.02D-07 Max=1.66D-05 NDo=     1
 LinEq1:  Iter= 11 NonCon=     1 RMS=1.47D-07 Max=5.56D-06 NDo=     1
[...]
    26  H    2.172157   1.098989   2.163249   2.476081   3.365015
    27  H    4.772693   4.421244   3.360677   3.649241   2.028465
                   16         17         18         19         20
    16  C    0.000000
    17  H    3.455981   0.000000
    18  H    4.073842   2.225893   0.000000
    19  H    3.077312   4.310126   3.436772   0.000000
    20  H    4.446137   4.461701   2.813379   1.767231   0.000000
    21  H    5.175577   6.522959   5.045021   2.495418   2.515125
    22  H    5.305210   6.126850   4.322601   3.069180   2.465887
    23  H    3.745493   6.242063   5.397402   2.689187   3.834538
    24  H    5.171190   7.220171   5.948383   3.840004   4.316336
    25  H    3.807835   6.100468   5.397419   4.156058   4.974455
    26  H    4.496805   5.804816   4.537675   4.017574   4.167896
    27  H    1.089824   4.206067   5.060850   3.688317   5.236808
                   21         22         23         24         25
    21  H    0.000000
    22  H    1.758980   0.000000
    23  H    2.471646   3.062124   0.000000
    24  H    2.522579   2.461908   1.764813   0.000000
    25  H    4.311925   3.832020   2.448563   2.518497   0.000000
    26  H    3.836752   2.689135   3.059027   2.490179   1.767430
    27  H    5.751779   6.127247   4.148374   5.735177   4.431360
                   26         27
    26  H    0.000000
    27  H    5.375716   0.000000
 Symmetry turned off by external request.
 Stoichiometry    C9H13N3O2
 Framework group  C1[X(C9H13N3O2)]
 Deg. of freedom    75
 Full point group                 C1      NOp   1
 Rotational constants (GHZ):           1.6957778           0.4151335           0.3672250

 **********************************************************************

            Population analysis using the SCF Density.

 **********************************************************************

 Alpha  occ. eigenvalues --  -20.59231 -20.58898 -15.84719 -15.64141 -15.56099
 Alpha  occ. eigenvalues --  -11.35046 -11.29734 -11.29570 -11.28562 -11.27223
 Alpha  occ. eigenvalues --  -11.23742 -11.23204 -11.22734 -11.22145  -1.57110
 Alpha  occ. eigenvalues --   -1.36705  -1.30934  -1.23037  -1.14774  -1.09881
 Alpha  occ. eigenvalues --   -1.02866  -1.01421  -0.94454  -0.89745  -0.85581
 Alpha  occ. eigenvalues --   -0.82471  -0.78533  -0.77461  -0.75284  -0.71973
 Alpha  occ. eigenvalues --   -0.69761  -0.69422  -0.67731  -0.64943  -0.63724
 Alpha  occ. eigenvalues --   -0.62561  -0.60362  -0.57765  -0.57005  -0.54947
 Alpha  occ. eigenvalues --   -0.54753  -0.50894  -0.50088  -0.48644  -0.48111
 Alpha  occ. eigenvalues --   -0.47400  -0.46203  -0.46138  -0.43674  -0.41658
 Alpha  occ. eigenvalues --   -0.39795  -0.33815
 Alpha virt. eigenvalues --    0.07458   0.11843   0.17325   0.21730   0.24030
 Alpha virt. eigenvalues --    0.25578   0.27147   0.28684   0.29031   0.29597
 Alpha virt. eigenvalues --    0.30704   0.31711   0.32125   0.32663   0.33876
 Alpha virt. eigenvalues --    0.34206   0.35851   0.37257   0.38702   0.40313
 Alpha virt. eigenvalues --    0.41322   0.42252   0.45005   0.46157   0.46740
 Alpha virt. eigenvalues --    0.47063   0.48915   0.53903   0.57461   0.59243
 Alpha virt. eigenvalues --    0.64011   0.69162   0.70132   0.72662   0.74059
 Alpha virt. eigenvalues --    0.74863   0.75724   0.76643   0.78550   0.79441
 Alpha virt. eigenvalues --    0.81056   0.84542   0.85570   0.86429   0.88497
 Alpha virt. eigenvalues --    0.89638   0.90903   0.92289   0.92874   0.94512
 Alpha virt. eigenvalues --    0.95587   0.98233   0.99619   1.01383   1.02497
 Alpha virt. eigenvalues --    1.03029   1.05663   1.07078   1.07829   1.09064
 Alpha virt. eigenvalues --    1.10169   1.11254   1.11737   1.12461   1.13821
 Alpha virt. eigenvalues --    1.14656   1.14938   1.15946   1.16864   1.18604
 Alpha virt. eigenvalues --    1.19035   1.21164   1.22730   1.23786   1.24482
 Alpha virt. eigenvalues --    1.24962   1.25862   1.26993   1.27586   1.29345
 Alpha virt. eigenvalues --    1.29897   1.32970   1.36348   1.37141   1.40851
 Alpha virt. eigenvalues --    1.41620   1.45638   1.48626   1.50768   1.54588
 Alpha virt. eigenvalues --    1.55875   1.58665   1.60082   1.63170   1.65789
 Alpha virt. eigenvalues --    1.68043   1.68576   1.72561   1.74939   1.76920
 Alpha virt. eigenvalues --    1.81219   1.84788   1.87581   1.90510   1.93361
 Alpha virt. eigenvalues --    1.96421   1.97083   1.99904   2.01440   2.02323
 Alpha virt. eigenvalues --    2.04493   2.05213   2.08812   2.09428   2.12395
 Alpha virt. eigenvalues --    2.13372   2.15059   2.18333   2.20289   2.22405
 Alpha virt. eigenvalues --    2.22939   2.24198   2.25639   2.28145   2.29254
 Alpha virt. eigenvalues --    2.31728   2.33776   2.34833   2.36315   2.37897
 Alpha virt. eigenvalues --    2.40268   2.42127   2.43816   2.44685   2.47656
 Alpha virt. eigenvalues --    2.50167   2.51612   2.53184   2.55398   2.61251
 Alpha virt. eigenvalues --    2.62267   2.65029   2.67860   2.70198   2.70653
 Alpha virt. eigenvalues --    2.72128   2.73072   2.76914   2.78335   2.83969
 Alpha virt. eigenvalues --    2.87539   2.88639   2.92867   2.93424   2.95996
 Alpha virt. eigenvalues --    2.99675   3.01280   3.03825   3.05847   3.08335
 Alpha virt. eigenvalues --    3.09480   3.14341   3.21230   3.25395   3.27241
 Alpha virt. eigenvalues --    3.33048   3.37956   3.39837   3.52283   3.65902
 Alpha virt. eigenvalues --    4.13525   4.28253   4.34393   4.38767   4.45931
 Alpha virt. eigenvalues --    4.56420   4.61798   4.62144   4.73274   4.79424
 Alpha virt. eigenvalues --    4.99396   5.00459   5.04654   5.11208
          Condensed to atoms (all electrons):
               1          2          3          4          5          6
     1  O    8.315684   0.306973  -0.082220  -0.085579   0.004650  -0.000016
     2  N    0.306973   5.725458   0.300762   0.261976  -0.053105   0.000993
     3  O   -0.082220   0.300762   8.353356  -0.092564   0.003734   0.000776
     4  C   -0.085579   0.261976  -0.092564   5.228771   0.560049  -0.047086
     5  C    0.004650  -0.053105   0.003734   0.560049   4.707195   0.317799
     6  N   -0.000016   0.000993   0.000776  -0.047086   0.317799   7.196471
     7  C    0.000003  -0.000129   0.000002   0.004027  -0.028446   0.169193
     8  H   -0.000000   0.000002  -0.000000  -0.000201   0.002601  -0.050081
     9  C   -0.000000  -0.000003   0.000000   0.000754   0.000878  -0.066982
    10  C    0.000000   0.000000   0.000000  -0.000032  -0.000050   0.003822
    11  C   -0.000000  -0.000000  -0.000000  -0.000025   0.000027  -0.000224
    12  C   -0.000000   0.000002  -0.000000  -0.000106  -0.000190   0.003728
    13  C   -0.000023  -0.000038  -0.000004  -0.011613  -0.000249  -0.044042
    14  H   -0.000004  -0.000112   0.000001   0.002523   0.006109  -0.006630
    15  N    0.000381   0.002415  -0.000016  -0.063148  -0.007064   0.001973
    16  C    0.001066  -0.027258   0.002567   0.328114  -0.051100  -0.002299
    17  H    0.000218  -0.007263   0.017349  -0.023711   0.374863  -0.034708
    18  H    0.000001  -0.000049   0.000011   0.001505  -0.031978   0.338250
    19  H    0.000000  -0.000003   0.000000  -0.001069   0.001026  -0.000229
    20  H    0.000000  -0.000000   0.000000  -0.000067   0.000155  -0.000643
    21  H   -0.000000   0.000000   0.000000   0.000001   0.000001  -0.000080
    22  H   -0.000000   0.000000  -0.000000  -0.000000  -0.000003  -0.000113
    23  H    0.000000  -0.000000   0.000000   0.000035   0.000000  -0.000031
    24  H    0.000000   0.000000   0.000000   0.000000  -0.000000   0.000006
    25  H    0.000000  -0.000000   0.000000   0.000024   0.000001  -0.000084
    26  H    0.000000  -0.000000   0.000000   0.000007  -0.000001  -0.000058
    27  H    0.006159  -0.000750   0.000020  -0.064099   0.002186   0.000031
               7          8          9         10         11         12
     1  O    0.000003  -0.000000  -0.000000   0.000000  -0.000000  -0.000000
     2  N   -0.000129   0.000002  -0.000003   0.000000  -0.000000   0.000002
     3  O    0.000002  -0.000000   0.000000   0.000000  -0.000000  -0.000000
     4  C    0.004027  -0.000201   0.000754  -0.000032  -0.000025  -0.000106
     5  C   -0.028446   0.002601   0.000878  -0.000050   0.000027  -0.000190
     6  N    0.169193  -0.050081  -0.066982   0.003822  -0.000224   0.003728
     7  C    5.009605   0.416374   0.351929  -0.053005  -0.008994  -0.060477
     8  H    0.416374   0.537642  -0.055136   0.001320  -0.000225  -0.001834
     9  C    0.351929  -0.055136   5.162342   0.324526  -0.051222  -0.005708
    10  C   -0.053005   0.001320   0.324526   5.118402   0.336846  -0.061422
    11  C   -0.008994  -0.000225  -0.051222   0.336846   5.117872   0.335051
    12  C   -0.060477  -0.001834  -0.005708  -0.061422   0.335051   5.121103
    13  C    0.339881  -0.036777  -0.060487  -0.000684  -0.050602   0.372865
    14  H   -0.046836  -0.001164   0.004676  -0.000425   0.004275  -0.037944
    15  N   -0.057204   0.003818  -0.012774   0.001427  -0.010619  -0.081065
    16  C   -0.001312  -0.000011  -0.000816  -0.000040   0.000034   0.002283
    17  H    0.001608  -0.000039  -0.000079   0.000001   0.000000   0.000000
    18  H   -0.021195  -0.004069   0.001118  -0.000084   0.000003  -0.000108
    19  H   -0.037066   0.004419   0.389668  -0.032546  -0.002247   0.000649
    20  H   -0.041940  -0.002195   0.399386  -0.035338   0.004007  -0.000401
    21  H    0.004438  -0.000099  -0.036176   0.402625  -0.035037   0.004402
    22  H   -0.004382   0.003356  -0.046937   0.397478  -0.045223  -0.001265
    23  H    0.000675   0.000031  -0.002152  -0.039360   0.399326  -0.038491
    24  H   -0.000127  -0.000082   0.004395  -0.038322   0.402721  -0.038513
    25  H    0.005116  -0.000056  -0.000418   0.004245  -0.033237   0.398524
    26  H   -0.003429   0.001700   0.000877  -0.002452  -0.041776   0.396208
    27  H   -0.000396   0.000009  -0.000053   0.000006   0.000009  -0.000028
              13         14         15         16         17         18
     1  O   -0.000023  -0.000004   0.000381   0.001066   0.000218   0.000001
     2  N   -0.000038  -0.000112   0.002415  -0.027258  -0.007263  -0.000049
     3  O   -0.000004   0.000001  -0.000016   0.002567   0.017349   0.000011
     4  C   -0.011613   0.002523  -0.063148   0.328114  -0.023711   0.001505
     5  C   -0.000249   0.006109  -0.007064  -0.051100   0.374863  -0.031978
     6  N   -0.044042  -0.006630   0.001973  -0.002299  -0.034708   0.338250
     7  C    0.339881  -0.046836  -0.057204  -0.001312   0.001608  -0.021195
     8  H   -0.036777  -0.001164   0.003818  -0.000011  -0.000039  -0.004069
     9  C   -0.060487   0.004676  -0.012774  -0.000816  -0.000079   0.001118
    10  C   -0.000684  -0.000425   0.001427  -0.000040   0.000001  -0.000084
    11  C   -0.050602   0.004275  -0.010619   0.000034   0.000000   0.000003
    12  C    0.372865  -0.037944  -0.081065   0.002283   0.000000  -0.000108
    13  C    5.031360   0.402980   0.244256  -0.070227  -0.000005   0.002884
    14  H    0.402980   0.532028  -0.038817  -0.004222   0.000096  -0.000133
    15  N    0.244256  -0.038817   6.962357   0.586730  -0.000084  -0.000121
    16  C   -0.070227  -0.004222   0.586730   4.706594   0.002133  -0.000192
    17  H   -0.000005   0.000096  -0.000084   0.002133   0.378245  -0.002951
    18  H    0.002884  -0.000133  -0.000121  -0.000192  -0.002951   0.312732
    19  H   -0.007578   0.000103   0.007604   0.002717   0.000018  -0.000145
    20  H    0.004355  -0.000072   0.000073  -0.000033   0.000003   0.000958
    21  H   -0.000411   0.000011  -0.000038   0.000003  -0.000000   0.000001
    22  H    0.000088  -0.000057   0.000017  -0.000001   0.000000   0.000001
    23  H   -0.007374   0.000007   0.008418   0.000114   0.000000   0.000000
    24  H    0.004637  -0.000059   0.000082   0.000006   0.000000  -0.000000
    25  H   -0.035654  -0.002846   0.000439   0.000007  -0.000000   0.000002
    26  H   -0.047446  -0.001237   0.004889  -0.000054   0.000000  -0.000000
    27  H    0.004951  -0.000174  -0.040424   0.404018  -0.000079   0.000001
              19         20         21         22         23         24
     1  O    0.000000   0.000000  -0.000000  -0.000000   0.000000   0.000000
     2  N   -0.000003  -0.000000   0.000000   0.000000  -0.000000   0.000000
     3  O    0.000000   0.000000   0.000000  -0.000000   0.000000   0.000000
     4  C   -0.001069  -0.000067   0.000001  -0.000000   0.000035   0.000000
     5  C    0.001026   0.000155   0.000001  -0.000003   0.000000  -0.000000
     6  N   -0.000229  -0.000643  -0.000080  -0.000113  -0.000031   0.000006
     7  C   -0.037066  -0.041940   0.004438  -0.004382   0.000675  -0.000127
     8  H    0.004419  -0.002195  -0.000099   0.003356   0.000031  -0.000082
     9  C    0.389668   0.399386  -0.036176  -0.046937  -0.002152   0.004395
    10  C   -0.032546  -0.035338   0.402625   0.397478  -0.039360  -0.038322
    11  C   -0.002247   0.004007  -0.035037  -0.045223   0.399326   0.402721
    12  C    0.000649  -0.000401   0.004402  -0.001265  -0.038491  -0.038513
    13  C   -0.007578   0.004355  -0.000411   0.000088  -0.007374   0.004637
    14  H    0.000103  -0.000072   0.000011  -0.000057   0.000007  -0.000059
    15  N    0.007604   0.000073  -0.000038   0.000017   0.008418   0.000082
    16  C    0.002717  -0.000033   0.000003  -0.000001   0.000114   0.000006
    17  H    0.000018   0.000003  -0.000000   0.000000   0.000000   0.000000
    18  H   -0.000145   0.000958   0.000001   0.000001   0.000000  -0.000000
    19  H    0.507816  -0.024982  -0.002903   0.004017   0.001620  -0.000063
    20  H   -0.024982   0.542413  -0.002740  -0.002973  -0.000048  -0.000084
    21  H   -0.002903  -0.002740   0.524286  -0.027478  -0.002906  -0.002192
    22  H    0.004017  -0.002973  -0.027478   0.571186   0.004163  -0.003592
    23  H    0.001620  -0.000048  -0.002906   0.004163   0.501959  -0.025437
    24  H   -0.000063  -0.000084  -0.002192  -0.003592  -0.025437   0.536773
    25  H   -0.000034   0.000013  -0.000086  -0.000084  -0.002325  -0.002329
    26  H    0.000027  -0.000032  -0.000082   0.002494   0.004141  -0.003043
    27  H    0.000069   0.000000  -0.000000   0.000000  -0.000032  -0.000000
              25         26         27
     1  O    0.000000   0.000000   0.006159
     2  N   -0.000000  -0.000000  -0.000750
     3  O    0.000000   0.000000   0.000020
     4  C    0.000024   0.000007  -0.064099
     5  C    0.000001  -0.000001   0.002186
     6  N   -0.000084  -0.000058   0.000031
     7  C    0.005116  -0.003429  -0.000396
     8  H   -0.000056   0.001700   0.000009
     9  C   -0.000418   0.000877  -0.000053
    10  C    0.004245  -0.002452   0.000006
    11  C   -0.033237  -0.041776   0.000009
    12  C    0.398524   0.396208  -0.000028
    13  C   -0.035654  -0.047446   0.004951
    14  H   -0.002846  -0.001237  -0.000174
    15  N    0.000439   0.004889  -0.040424
    16  C    0.000007  -0.000054   0.404018
    17  H   -0.000000   0.000000  -0.000079
    18  H    0.000002  -0.000000   0.000001
    19  H   -0.000034   0.000027   0.000069
    20  H    0.000013  -0.000032   0.000000
    21  H   -0.000086  -0.000082  -0.000000
    22  H   -0.000084   0.002494   0.000000
    23  H   -0.002325   0.004141  -0.000032
    24  H   -0.002329  -0.003043  -0.000000
    25  H    0.504452  -0.023996  -0.000015
    26  H   -0.023996   0.562666   0.000001
    27  H   -0.000015   0.000001   0.439975
 Mulliken charges:
               1
     1  O   -0.467294
     2  N    0.490128
     3  O   -0.503775
     4  C    0.001516
     5  C    0.190915
     6  N   -0.779736
     7  C    0.062087
     8  H    0.180696
     9  C   -0.301604
    10  C   -0.326936
    11  C   -0.320739
    12  C   -0.307262
    13  C   -0.035042
    14  H    0.187922
    15  N   -0.513507
    16  C    0.121177
    17  H    0.294385
    18  H    0.403558
    19  H    0.189114
    20  H    0.160186
    21  H    0.174461
    22  H    0.149309
    23  H    0.197665
    24  H    0.165224
    25  H    0.188342
    26  H    0.150595
    27  H    0.248615
 Sum of Mulliken charges =  -0.00000
 Mulliken charges with hydrogens summed into heavy atoms:
               1
     1  O   -0.467294
     2  N    0.490128
     3  O   -0.503775
     4  C    0.001516
     5  C    0.485300
     6  N   -0.376178
     7  C    0.242783
     9  C    0.047696
    10  C   -0.003166
    11  C    0.042150
    12  C    0.031674
    13  C    0.152880
    15  N   -0.513507
    16  C    0.369793
 Electronic spatial extent (au):  <R**2>=           3032.1618
 Charge=             -0.0000 electrons
 Dipole moment (field-independent basis, Debye):
    X=              5.4774    Y=              4.7948    Z=              1.1346  Tot=              7.3675
 Quadrupole moment (field-independent basis, Debye-Ang):
   XX=           -106.2880   YY=            -79.1586   ZZ=            -81.6867
   XY=             -1.9013   XZ=              0.4862   YZ=              1.5320
 Traceless Quadrupole moment (field-independent basis, Debye-Ang):
   XX=            -17.2436   YY=              9.8858   ZZ=              7.3577
   XY=             -1.9013   XZ=              0.4862   YZ=              1.5320
 Octapole moment (field-independent basis, Debye-Ang**2):
  XXX=             96.3048  YYY=             36.7796  ZZZ=             -2.4663  XYY=             -4.0872
  XXY=              9.7319  XXZ=              2.2798  XZZ=             -9.2932  YZZ=             -0.6685
  YYZ=              6.4948  XYZ=              0.2307
 Hexadecapole moment (field-independent basis, Debye-Ang**3):
 XXXX=          -3434.3748 YYYY=           -605.0247 ZZZZ=           -292.6337 XXXY=            -28.2516
 XXXZ=              5.0255 YYYX=            -14.5443 YYYZ=             25.8297 ZZZX=             11.8773
 ZZZY=             10.9653 XXYY=           -636.0674 XXZZ=           -527.9299 YYZZ=           -157.8172
 XXYZ=             -3.0939 YYXZ=              6.3879 ZZXY=              3.8994
 N-N= 9.294843784721D+02 E-N=-3.405665249612D+03  KE= 6.596281845096D+02
 Unable to Open any file for archive entry.
 1\1\GINC-LOTUS\FOpt\RMP2-FC\6-31G(d)\C9H13N3O2\ALEXEY\30-Jun-2023\0\\#
 MP2/6-31G* SCF=Tight Opt=(ModRedun, MaxCycle=100 ) NoSymm\\MolName:\\0
 ,1\O,-3.5393970734,-1.399236318,-0.3053544653\N,-3.147394372,-0.239205
 0971,-0.0719241868\O,-3.9162615931,0.7249367858,0.1091498344\C,-1.7120
 527867,-0.0324290742,0.0070482722\C,-1.3140041919,1.2570884183,0.24086
 45228\N,-0.0650721863,1.7429646835,0.3121514076\C,1.2047500147,1.02591
 56722,0.3613987097\H,1.8153856327,1.5579379011,1.1066201058\C,1.949248
 7572,1.0561494675,-0.9740193718\C,3.3422649811,0.4422319454,-0.8061795
 987\C,3.2750502832,-0.967156633,-0.2146773864\C,2.4591942071,-0.994760
 0863,1.0779236252\C,1.0552467003,-0.4295686922,0.8432065379\H,0.488315
 1877,-0.4130335869,1.7887775126\N,0.3838983984,-1.3167160917,-0.100671
 0275\C,-0.8688069897,-1.1472914715,-0.3730704985\H,-2.1009582405,1.996
 2447055,0.3643509057\H,-0.0064046262,2.7367717639,0.5024293228\H,1.365
 0460516,0.4931844437,-1.7104520098\H,2.0233555468,2.0896910999,-1.3350
 850758\H,3.8588027612,0.4267060389,-1.772653687\H,3.9368472439,1.08851
 50335,-0.1447935503\H,2.8011016821,-1.6436146766,-0.9335619894\H,4.287
 139768,-1.3456127249,-0.0294323359\H,2.3606276593,-2.0214203043,1.4452
 413552\H,2.9633020548,-0.413131396,1.8623722812\H,-1.3382148704,-1.911
 1518065,-0.9926592098\\Version=ES64L-G16RevC.02\HF=-661.3008808\MP2=-6
 63.3341889\RMSD=4.111e-09\RMSF=1.211e-03\Dipole=2.0019779,1.6920553,0.
 4212717\PG=C01 [X(C9H13N3O2)]\\@
 The archive entry for this job was punched.


 THE DIFFERENCE BETWEEN A NOOSE AND A HALO IS ONLY 12 INCHES.
 Job cpu time:       0 days  1 hours 13 minutes 29.7 seconds.
 Elapsed time:       0 days  0 hours 22 minutes 20.2 seconds.
 File lengths (MBytes):  RWF=     36 Int=      0 D2E=      0 Chk=      7 Scr=      1
 Normal termination of Gaussian 16 at Fri Jun 30 16:37:22 2023.
