 Entering Gaussian System, Link 0=g16
 Initial command:
 /home/alexey/programs//g16/l1.exe "/home/alexey/tmp/Gau-1174997.inp" -scrdir="/home/alexey/tmp/"
 Entering Link 1 = /home/alexey/programs//g16/l1.exe PID=   1174999.
  
 Copyright (c) 1988-2021, Gaussian, Inc.  All Rights Reserved.
  
 This is part of the Gaussian(R) 16 program.  It is based on
 the Gaussian(R) 09 system (copyright 2009, Gaussian, Inc.),
 the Gaussian(R) 03 system (copyright 2003, Gaussian, Inc.),
 the Gaussian(R) 98 system (copyright 1998, Gaussian, Inc.),
 the Gaussian(R) 94 system (copyright 1995, Gaussian, Inc.),
 the Gaussian 92(TM) system (copyright 1992, Gaussian, Inc.),
 the Gaussian 90(TM) system (copyright 1990, Gaussian, Inc.),
 the Gaussian 88(TM) system (copyright 1988, Gaussian, Inc.),
 the Gaussian 86(TM) system (copyright 1986, Carnegie Mellon
 University), and the Gaussian 82(TM) system (copyright 1983,
 Carnegie Mellon University). Gaussian is a federally registered
 trademark of Gaussian, Inc.
  
 This software contains proprietary and confidential information,
 including trade secrets, belonging to Gaussian, Inc.
  
 This software is provided under written license and may be
 used, copied, transmitted, or stored only in accord with that
 written license.
  
 The following legend is applicable only to US Government
 contracts under FAR:
  
                    RESTRICTED RIGHTS LEGEND
  
 Use, reproduction and disclosure by the US Government is
 subject to restrictions as set forth in subparagraphs (a)
 and (c) of the Commercial Computer Software - Restricted
 Rights clause in FAR 52.227-19.
  
 Gaussian, Inc.
 340 Quinnipiac St., Bldg. 40, Wallingford CT 06492
  
  
 ---------------------------------------------------------------
 Warning -- This program may not be used in any manner that
 competes with the business of Gaussian, Inc. or will provide
 assistance to any competitor of Gaussian, Inc.  The licensee
 of this program is prohibited from giving any competitor of
 Gaussian, Inc. access to this program.  By using this program,
 the user acknowledges that Gaussian, Inc. is engaged in the
 business of creating and licensing software in the field of
 computational chemistry and represents and warrants to the
 licensee that it is not a competitor of Gaussian, Inc. and that
 it will not use this program in any manner prohibited above.
 ---------------------------------------------------------------
  

 Cite this work as:
 Gaussian 16, Revision C.02,
 M. J. Frisch, G. W. Trucks, H. B. Schlegel, G. E. Scuseria, 
 M. A. Robb, J. R. Cheeseman, G. Scalmani, V. Barone, 
 G. A. Petersson, H. Nakatsuji, X. Li, M. Caricato, A. V. Marenich, 
 J. Bloino, B. G. Janesko, R. Gomperts, B. Mennucci, H. P. Hratchian, 
 J. V. Ortiz, A. F. Izmaylov, J. L. Sonnenberg, D. Williams-Young, 
 F. Ding, F. Lipparini, F. Egidi, J. Goings, B. Peng, A. Petrone, 
 T. Henderson, D. Ranasinghe, V. G. Zakrzewski, J. Gao, N. Rega, 
 G. Zheng, W. Liang, M. Hada, M. Ehara, K. Toyota, R. Fukuda, 
 J. Hasegawa, M. Ishida, T. Nakajima, Y. Honda, O. Kitao, H. Nakai, 
 T. Vreven, K. Throssell, J. A. Montgomery, Jr., J. E. Peralta, 
 F. Ogliaro, M. J. Bearpark, J. J. Heyd, E. N. Brothers, K. N. Kudin, 
 V. N. Staroverov, T. A. Keith, R. Kobayashi, J. Normand, 
 K. Raghavachari, A. P. Rendell, J. C. Burant, S. S. Iyengar, 
 J. Tomasi, M. Cossi, J. M. Millam, M. Klene, C. Adamo, R. Cammi, 
 J. W. Ochterski, R. L. Martin, K. Morokuma, O. Farkas, 
 J. B. Foresman, and D. J. Fox, Gaussian, Inc., Wallingford CT, 2019.
 
 ******************************************
 Gaussian 16:  ES64L-G16RevC.02  7-Dec-2021
                30-Jun-2023 
 ******************************************
 %mem=8GB
 %NPROCS=4
 Will use up to    4 processors via shared memory.
 %NoSave
 ----------------------------------------------------------
 #MP2/6-31G* SCF=Tight Opt=(ModRedun, MaxCycle=100 ) NoSymm
 ----------------------------------------------------------
 1/6=100,18=120,19=15,38=1/1,3;
 2/9=110,12=2,15=1,17=6,18=5,40=1/2;
 3/5=1,6=6,7=1,11=9,25=1,30=1,71=1/1,2,3;
 4//1;
 5/5=2,32=2,38=5/2;
 8/6=4,10=2/1;
 9/15=2,16=-3/6;
 10/5=1,31=1/2;
 6/7=2,8=2,9=2,10=2/1;
 7/12=2,30=1/1,2,3,16;
 1/6=100,18=20,19=15/3(2);
 2/9=110,15=1/2;
 99//99;
 2/9=110,15=1/2;
 3/5=1,6=6,7=1,11=9,25=1,30=1,71=1/1,2,3;
 4/5=5,16=3,69=1/1;
 5/5=2,32=2,38=5/2;
 8/6=4,10=2/1;
 9/15=2,16=-3/6;
 10/5=1,31=1/2;
 7/12=2,30=1/1,2,3,16;
 1/6=100,18=20,19=15/3(-8);
 2/9=110,15=1/2;
 6/7=2,8=2,9=2,10=2/1;
 99/9=10/99;
 --------
 MolName:
 --------
 Symbolic Z-matrix:
 Charge =  0 Multiplicity = 1
 8                    0    -3.60585  -1.42242  -0.27855 
 7                    0    -3.24208  -0.26295  -0.08953 
 8                    0    -4.02004   0.68175   0.0492 
 6                    0    -1.73897   0.01204  -0.04779 
 6                    0    -1.35705   1.3159    0.29804 
 7                    0    -0.07271   1.76094   0.47899 
 6                    0     1.19771   0.98501   0.36296 
 1                    0     1.89683   1.47837   1.09001 
 6                    0     1.92608   1.02597  -1.00325 
 6                    0     3.34556   0.45358  -0.8219 
 6                    0     3.30165  -0.95268  -0.20046 
 6                    0     2.47009  -0.97421   1.10313 
 6                    0     1.02441  -0.45315   0.86646 
 1                    0     0.47933  -0.49123   1.83805 
 7                    0     0.38893  -1.33175  -0.11524 
 6                    0    -0.84808  -1.12053  -0.4296 
 1                    0    -2.14924   2.0573    0.49446 
 1                    0     0.16278   2.75085   0.37381 
 1                    0     1.36762   0.43804  -1.76126 
 1                    0     1.99811   2.07298  -1.36664 
 1                    0     3.86695   0.41511  -1.80327 
 1                    0     3.9278    1.12376  -0.15091 
 1                    0     2.85455  -1.65952  -0.93509 
 1                    0     4.33556  -1.30292   0.01061 
 1                    0     2.42428  -2.01635   1.48842 
 1                    0     2.97016  -0.3512    1.87355 
 1                    0    -1.34339  -1.8687   -1.06722 
 
 The following ModRedundant input section has been read:
 D       6       7      13      15 F                                           
 D       1       2       4      16 F                                           
 D       7      13      15      16 F                                           
 D       7       9      10      11 F                                           
 D       9      10      11      12 F                                           
 

 GradGradGradGradGradGradGradGradGradGradGradGradGradGradGradGradGradGrad
 Berny optimization.
 Initialization pass.
                           ----------------------------
                           !    Initial Parameters    !
                           ! (Angstroms and Degrees)  !
 --------------------------                            --------------------------
 ! Name  Definition              Value          Derivative Info.                !
 --------------------------------------------------------------------------------
 ! R1    R(1,2)                  1.2298         estimate D2E/DX2                !
 ! R2    R(2,3)                  1.2316         estimate D2E/DX2                !
 ! R3    R(2,4)                  1.5286         estimate D2E/DX2                !
 ! R4    R(4,5)                  1.402          estimate D2E/DX2                !
 ! R5    R(4,16)                 1.4907         estimate D2E/DX2                !
 ! R6    R(5,6)                  1.3713         estimate D2E/DX2                !
 ! R7    R(5,17)                 1.1026         estimate D2E/DX2                !
 ! R8    R(6,7)                  1.4932         estimate D2E/DX2                !
 ! R9    R(6,18)                 1.023          estimate D2E/DX2                !
 ! R10   R(7,8)                  1.1228         estimate D2E/DX2                !
 ! R11   R(7,9)                  1.5488         estimate D2E/DX2                !
 ! R12   R(7,13)                 1.5336         estimate D2E/DX2                !
 ! R13   R(9,10)                 1.5412         estimate D2E/DX2                !
 ! R14   R(9,19)                 1.11           estimate D2E/DX2                !
 ! R15   R(9,20)                 1.1106         estimate D2E/DX2                !
 ! R16   R(10,11)                1.5381         estimate D2E/DX2                !
 ! R17   R(10,21)                1.1119         estimate D2E/DX2                !
 ! R18   R(10,22)                1.1128         estimate D2E/DX2                !
 ! R19   R(11,12)                1.5464         estimate D2E/DX2                !
 ! R20   R(11,23)                1.1132         estimate D2E/DX2                !
 ! R21   R(11,24)                1.1118         estimate D2E/DX2                !
 ! R22   R(12,13)                1.5548         estimate D2E/DX2                !
 ! R23   R(12,25)                1.112          estimate D2E/DX2                !
 ! R24   R(12,26)                1.1098         estimate D2E/DX2                !
 ! R25   R(13,14)                1.1147         estimate D2E/DX2                !
 ! R26   R(13,15)                1.4627         estimate D2E/DX2                !
 ! R27   R(15,16)                1.2937         estimate D2E/DX2                !
 ! R28   R(16,27)                1.1007         estimate D2E/DX2                !
 ! A1    A(1,2,3)              123.6167         estimate D2E/DX2                !
 ! A2    A(1,2,4)              117.6881         estimate D2E/DX2                !
 ! A3    A(3,2,4)              118.6883         estimate D2E/DX2                !
 ! A4    A(2,4,5)              116.2258         estimate D2E/DX2                !
 ! A5    A(2,4,16)             116.3586         estimate D2E/DX2                !
 ! A6    A(5,4,16)             127.3705         estimate D2E/DX2                !
 ! A7    A(4,5,6)              126.1244         estimate D2E/DX2                !
 ! A8    A(4,5,17)             118.2654         estimate D2E/DX2                !
 ! A9    A(6,5,17)             115.5426         estimate D2E/DX2                !
 ! A10   A(5,6,7)              128.1699         estimate D2E/DX2                !
 ! A11   A(5,6,18)             121.0718         estimate D2E/DX2                !
 ! A12   A(7,6,18)             107.3985         estimate D2E/DX2                !
 ! A13   A(6,7,8)              104.5432         estimate D2E/DX2                !
 ! A14   A(6,7,9)              117.061          estimate D2E/DX2                !
 ! A15   A(6,7,13)             111.4487         estimate D2E/DX2                !
 ! A16   A(8,7,9)              105.4706         estimate D2E/DX2                !
 ! A17   A(8,7,13)             105.6535         estimate D2E/DX2                !
 ! A18   A(9,7,13)             111.5652         estimate D2E/DX2                !
 ! A19   A(7,9,10)             108.6336         estimate D2E/DX2                !
 ! A20   A(7,9,19)             110.5958         estimate D2E/DX2                !
 ! A21   A(7,9,20)             110.1243         estimate D2E/DX2                !
 ! A22   A(10,9,19)            110.3045         estimate D2E/DX2                !
 ! A23   A(10,9,20)            109.2007         estimate D2E/DX2                !
 ! A24   A(19,9,20)            107.97           estimate D2E/DX2                !
 ! A25   A(9,10,11)            111.1494         estimate D2E/DX2                !
 ! A26   A(9,10,21)            109.929          estimate D2E/DX2                !
 ! A27   A(9,10,22)            109.218          estimate D2E/DX2                !
 ! A28   A(11,10,21)           109.7762         estimate D2E/DX2                !
 ! A29   A(11,10,22)           108.7803         estimate D2E/DX2                !
 ! A30   A(21,10,22)           107.9183         estimate D2E/DX2                !
 ! A31   A(10,11,12)           111.6343         estimate D2E/DX2                !
 ! A32   A(10,11,23)           108.9884         estimate D2E/DX2                !
 ! A33   A(10,11,24)           109.7652         estimate D2E/DX2                !
 ! A34   A(12,11,23)           109.3597         estimate D2E/DX2                !
 ! A35   A(12,11,24)           109.6112         estimate D2E/DX2                !
 ! A36   A(23,11,24)           107.3823         estimate D2E/DX2                !
 ! A37   A(11,12,13)           111.5314         estimate D2E/DX2                !
 ! A38   A(11,12,25)           109.1036         estimate D2E/DX2                !
 ! A39   A(11,12,26)           109.5767         estimate D2E/DX2                !
 ! A40   A(13,12,25)           109.1776         estimate D2E/DX2                !
 ! A41   A(13,12,26)           109.663          estimate D2E/DX2                !
 ! A42   A(25,12,26)           107.7052         estimate D2E/DX2                !
 ! A43   A(7,13,12)            105.0212         estimate D2E/DX2                !
 ! A44   A(7,13,14)            111.9293         estimate D2E/DX2                !
 ! A45   A(7,13,15)            113.0815         estimate D2E/DX2                !
 ! A46   A(12,13,14)           108.092          estimate D2E/DX2                !
 ! A47   A(12,13,15)           107.7472         estimate D2E/DX2                !
 ! A48   A(14,13,15)           110.6111         estimate D2E/DX2                !
 ! A49   A(13,15,16)           118.714          estimate D2E/DX2                !
 ! A50   A(4,16,15)            129.2909         estimate D2E/DX2                !
 ! A51   A(4,16,27)            113.3188         estimate D2E/DX2                !
 ! A52   A(15,16,27)           117.39           estimate D2E/DX2                !
 ! D1    D(1,2,4,5)           -173.9999         estimate D2E/DX2                !
 ! D2    D(1,2,4,16)             8.2603         Frozen                          !
 ! D3    D(3,2,4,5)              6.9222         estimate D2E/DX2                !
 ! D4    D(3,2,4,16)          -170.8175         estimate D2E/DX2                !
 ! D5    D(2,4,5,6)            175.5929         estimate D2E/DX2                !
 ! D6    D(2,4,5,17)            -1.2729         estimate D2E/DX2                !
 ! D7    D(16,4,5,6)            -6.9556         estimate D2E/DX2                !
 ! D8    D(16,4,5,17)          176.1786         estimate D2E/DX2                !
 ! D9    D(2,4,16,15)         -156.5773         estimate D2E/DX2                !
 ! D10   D(2,4,16,27)           23.2            estimate D2E/DX2                !
 ! D11   D(5,4,16,15)           25.9741         estimate D2E/DX2                !
 ! D12   D(5,4,16,27)         -154.2486         estimate D2E/DX2                !
 ! D13   D(4,5,6,7)             -0.3843         estimate D2E/DX2                !
 ! D14   D(4,5,6,18)           156.2096         estimate D2E/DX2                !
 ! D15   D(17,5,6,7)           176.5562         estimate D2E/DX2                !
 ! D16   D(17,5,6,18)          -26.8498         estimate D2E/DX2                !
 ! D17   D(5,6,7,8)           -149.5506         estimate D2E/DX2                !
 ! D18   D(5,6,7,9)             94.2191         estimate D2E/DX2                !
 ! D19   D(5,6,7,13)           -35.8841         estimate D2E/DX2                !
 ! D20   D(18,6,7,8)            51.3386         estimate D2E/DX2                !
 ! D21   D(18,6,7,9)           -64.8917         estimate D2E/DX2                !
 ! D22   D(18,6,7,13)          165.0051         estimate D2E/DX2                !
 ! D23   D(6,7,9,10)           166.9655         estimate D2E/DX2                !
 ! D24   D(6,7,9,19)           -71.8416         estimate D2E/DX2                !
 ! D25   D(6,7,9,20)            47.4146         estimate D2E/DX2                !
 ! D26   D(8,7,9,10)            51.2454         estimate D2E/DX2                !
 ! D27   D(8,7,9,19)           172.4384         estimate D2E/DX2                !
 ! D28   D(8,7,9,20)           -68.3054         estimate D2E/DX2                !
 ! D29   D(13,7,9,10)          -62.986          estimate D2E/DX2                !
 ! D30   D(13,7,9,19)           58.207          estimate D2E/DX2                !
 ! D31   D(13,7,9,20)          177.4632         estimate D2E/DX2                !
 ! D32   D(6,7,13,12)         -162.7807         estimate D2E/DX2                !
 ! D33   D(6,7,13,14)          -45.7388         estimate D2E/DX2                !
 ! D34   D(6,7,13,15)           79.9984         Frozen                          !
 ! D35   D(8,7,13,12)          -49.8091         estimate D2E/DX2                !
 ! D36   D(8,7,13,14)           67.2328         estimate D2E/DX2                !
 ! D37   D(8,7,13,15)         -167.03           estimate D2E/DX2                !
 ! D38   D(9,7,13,12)           64.3088         estimate D2E/DX2                !
 ! D39   D(9,7,13,14)         -178.6493         estimate D2E/DX2                !
 ! D40   D(9,7,13,15)          -52.9121         estimate D2E/DX2                !
 ! D41   D(7,9,10,11)           54.8103         Frozen                          !
 ! D42   D(7,9,10,21)          176.5562         estimate D2E/DX2                !
 ! D43   D(7,9,10,22)          -65.2172         estimate D2E/DX2                !
 ! D44   D(19,9,10,11)         -66.5614         estimate D2E/DX2                !
 ! D45   D(19,9,10,21)          55.1845         estimate D2E/DX2                !
 ! D46   D(19,9,10,22)         173.4111         estimate D2E/DX2                !
 ! D47   D(20,9,10,11)         174.9365         estimate D2E/DX2                !
 ! D48   D(20,9,10,21)         -63.3176         estimate D2E/DX2                !
 ! D49   D(20,9,10,22)          54.9089         estimate D2E/DX2                !
 ! D50   D(9,10,11,12)         -52.8194         Frozen                          !
 ! D51   D(9,10,11,23)          68.0858         estimate D2E/DX2                !
 ! D52   D(9,10,11,24)        -174.5681         estimate D2E/DX2                !
 ! D53   D(21,10,11,12)       -174.6544         estimate D2E/DX2                !
 ! D54   D(21,10,11,23)        -53.7492         estimate D2E/DX2                !
 ! D55   D(21,10,11,24)         63.5969         estimate D2E/DX2                !
 ! D56   D(22,10,11,12)         67.4675         estimate D2E/DX2                !
 ! D57   D(22,10,11,23)       -171.6273         estimate D2E/DX2                !
 ! D58   D(22,10,11,24)        -54.2812         estimate D2E/DX2                !
 ! D59   D(10,11,12,13)         56.5465         estimate D2E/DX2                !
 ! D60   D(10,11,12,25)        177.2351         estimate D2E/DX2                !
 ! D61   D(10,11,12,26)        -65.0701         estimate D2E/DX2                !
 ! D62   D(23,11,12,13)        -64.1422         estimate D2E/DX2                !
 ! D63   D(23,11,12,25)         56.5465         estimate D2E/DX2                !
 ! D64   D(23,11,12,26)        174.2412         estimate D2E/DX2                !
 ! D65   D(24,11,12,13)        178.3841         estimate D2E/DX2                !
 ! D66   D(24,11,12,25)        -60.9272         estimate D2E/DX2                !
 ! D67   D(24,11,12,26)         56.7675         estimate D2E/DX2                !
 ! D68   D(11,12,13,7)         -60.2575         estimate D2E/DX2                !
 ! D69   D(11,12,13,14)       -179.8913         estimate D2E/DX2                !
 ! D70   D(11,12,13,15)         60.5447         estimate D2E/DX2                !
 ! D71   D(25,12,13,7)         179.0972         estimate D2E/DX2                !
 ! D72   D(25,12,13,14)         59.4634         estimate D2E/DX2                !
 ! D73   D(25,12,13,15)        -60.1006         estimate D2E/DX2                !
 ! D74   D(26,12,13,7)          61.3091         estimate D2E/DX2                !
 ! D75   D(26,12,13,14)        -58.3247         estimate D2E/DX2                !
 ! D76   D(26,12,13,15)       -177.8887         estimate D2E/DX2                !
 ! D77   D(7,13,15,16)         -67.159          Frozen                          !
 ! D78   D(12,13,15,16)        177.234          estimate D2E/DX2                !
 ! D79   D(14,13,15,16)         59.2822         estimate D2E/DX2                !
 ! D80   D(13,15,16,4)           7.566          estimate D2E/DX2                !
 ! D81   D(13,15,16,27)       -172.2036         estimate D2E/DX2                !
 --------------------------------------------------------------------------------
 Trust Radius=3.00D-01 FncErr=1.00D-07 GrdErr=1.00D-07 EigMax=2.50D+02 EigMin=1.00D-04
 Number of steps in this run=    100 maximum allowed number of steps=    162.
 GradGradGradGradGradGradGradGradGradGradGradGradGradGradGradGradGradGrad

                          Input orientation:                          
 ---------------------------------------------------------------------
 Center     Atomic      Atomic             Coordinates (Angstroms)
 Number     Number       Type             X           Y           Z
 ---------------------------------------------------------------------
      1          8           0       -3.605850   -1.422420   -0.278550
      2          7           0       -3.242080   -0.262950   -0.089530
      3          8           0       -4.020040    0.681750    0.049200
      4          6           0       -1.738970    0.012040   -0.047790
      5          6           0       -1.357050    1.315900    0.298040
      6          7           0       -0.072710    1.760940    0.478990
      7          6           0        1.197710    0.985010    0.362960
      8          1           0        1.896830    1.478370    1.090010
      9          6           0        1.926080    1.025970   -1.003250
     10          6           0        3.345560    0.453580   -0.821900
     11          6           0        3.301650   -0.952680   -0.200460
     12          6           0        2.470090   -0.974210    1.103130
     13          6           0        1.024410   -0.453150    0.866460
     14          1           0        0.479330   -0.491230    1.838050
     15          7           0        0.388930   -1.331750   -0.115240
     16          6           0       -0.848080   -1.120530   -0.429600
     17          1           0       -2.149240    2.057300    0.494460
     18          1           0        0.162780    2.750850    0.373810
     19          1           0        1.367620    0.438040   -1.761260
     20          1           0        1.998110    2.072980   -1.366640
     21          1           0        3.866950    0.415110   -1.803270
     22          1           0        3.927800    1.123760   -0.150910
     23          1           0        2.854550   -1.659520   -0.935090
     24          1           0        4.335560   -1.302920    0.010610
     25          1           0        2.424280   -2.016350    1.488420
     26          1           0        2.970160   -0.351200    1.873550
     27          1           0       -1.343390   -1.868700   -1.067220
 ---------------------------------------------------------------------
                    Distance matrix (angstroms):
                    1          2          3          4          5
     1  O    0.000000
     2  N    1.229808   0.000000
     3  O    2.169448   1.231635   0.000000
     4  C    2.365622   1.528627   2.379327   0.000000
     5  C    3.589980   2.489240   2.748742   1.401967   0.000000
     6  N    4.815675   3.803190   4.114703   2.472361   1.371252
     7  C    5.411233   4.633993   5.235965   3.120813   2.576917
     8  H    6.369225   5.552649   6.060300   4.082126   3.352812
     9  C    6.092787   5.404265   6.048345   3.920912   3.543495
    10  C    7.220575   6.666842   7.420441   5.162039   4.910438
    11  C    6.923894   6.580914   7.506053   5.134379   5.205617
    12  C    6.247158   5.878538   6.780469   4.473644   4.532083
    13  C    4.867221   4.376417   5.234729   2.947630   3.020594
    14  H    4.694231   4.197210   4.981987   2.954747   3.001606
    15  N    3.999145   3.785133   4.849767   2.517594   3.198327
    16  C    2.778354   2.565605   3.679510   1.490697   2.593203
    17  H    3.850676   2.630381   2.364379   2.155329   1.102642
    18  H    5.660771   4.570640   4.677877   3.360875   2.091580
    19  H    5.513179   4.953322   5.688940   3.573284   3.526355
    20  H    6.693738   5.877684   6.337054   4.466834   3.821182
    21  H    7.845000   7.344044   8.106007   5.888167   5.702377
    22  H    7.953314   7.303007   7.962636   5.775711   5.307364
    23  H    6.498002   6.311440   7.328735   4.968082   5.302010
    24  H    7.947571   7.649326   8.588158   6.215500   6.272690
    25  H    6.311688   6.137750   7.133047   4.879237   5.178740
    26  H    7.001639   6.515627   7.297817   5.098960   4.897571
    27  H    2.437189   2.671953   3.862078   2.175524   3.464938
                    6          7          8          9         10
     6  N    0.000000
     7  C    1.493150   0.000000
     8  H    2.081413   1.122842   0.000000
     9  C    2.594683   1.548784   2.141789   0.000000
    10  C    3.884080   2.509895   2.608527   1.541247   0.000000
    11  C    4.383114   2.915244   3.090119   2.540024   1.538078
    12  C    3.786348   2.450581   2.518719   2.955250   2.551622
    13  C    2.501200   1.533574   2.131164   2.548847   3.010059
    14  H    2.687762   2.207090   2.539329   3.531001   4.022844
    15  N    3.182916   2.500035   3.409276   2.951311   3.525398
    16  C    3.119231   3.040840   4.074068   3.554223   4.496481
    17  H    2.097629   3.516983   4.130438   4.462624   5.873461
    18  H    1.022957   2.046800   2.266953   2.825019   4.103323
    19  H    2.973775   2.200081   3.080924   1.110008   2.189723
    20  H    2.791418   2.194501   2.529614   1.110617   2.175964
    21  H    4.747725   3.484563   3.658273   2.186357   1.111942
    22  H    4.099616   2.781493   2.406340   2.177827   1.112822
    23  H    4.718900   3.379880   3.855465   2.842281   2.172348
    24  H    5.388828   3.899343   3.853321   3.501033   2.181391
    25  H    4.639162   3.432098   3.556684   3.963879   3.505266
    26  H    3.957902   2.684943   2.261260   3.355991   2.837965
    27  H    4.144838   4.079983   5.133765   4.367223   5.238265
                   11         12         13         14         15
    11  C    0.000000
    12  C    1.546384   0.000000
    13  C    2.563917   1.554833   0.000000
    14  H    3.511972   2.176351   1.114697   0.000000
    15  N    2.938519   2.437927   1.462706   2.128377   0.000000
    16  C    4.159440   3.657994   2.373054   2.701902   1.293688
    17  H    6.265389   5.558664   4.063594   3.899951   4.277815
    18  H    4.888602   4.442033   3.354210   3.571454   4.118002
    19  H    2.847924   3.378553   2.795876   3.821994   2.607561
    20  H    3.494826   3.950683   3.509439   4.376289   3.968331
    21  H    2.181608   3.511209   3.995168   5.055357   4.242356
    22  H    2.169360   2.845876   3.457074   4.296056   4.307482
    23  H    1.113195   2.184445   2.837309   3.833651   2.618944
    24  H    1.111840   2.186694   3.523961   4.343833   3.948741
    25  H    2.180249   1.112026   2.188622   2.496210   2.680122
    26  H    2.184761   1.109846   2.193301   2.495016   3.402868
    27  H    4.813186   4.478076   3.368884   3.695988   2.048295
                   16         17         18         19         20
    16  C    0.000000
    17  H    3.556052   0.000000
    18  H    4.081040   2.416817   0.000000
    19  H    3.018573   4.480913   3.370349   0.000000
    20  H    4.379195   4.545817   2.618608   1.796182   0.000000
    21  H    5.145548   6.646119   4.890423   2.499788   2.536088
    22  H    5.284272   6.182104   4.134988   3.101284   2.470369
    23  H    3.775646   6.395020   5.330123   2.700607   3.853736
    24  H    5.205495   7.319687   5.828984   3.870288   4.330957
    25  H    3.897388   6.204810   5.392859   4.207253   5.005558
    26  H    4.524967   5.823317   4.444470   4.050047   4.161774
    27  H    1.100750   4.301362   5.068072   3.626612   5.176110
                   21         22         23         24         25
    21  H    0.000000
    22  H    1.798939   0.000000
    23  H    2.466329   3.084388   0.000000
    24  H    2.541925   2.465995   1.793015   0.000000
    25  H    4.339184   3.848151   2.487139   2.519106   0.000000
    26  H    3.861408   2.681608   3.100569   2.498126   1.794167
    27  H    5.736305   6.130243   4.205225   5.807951   4.555045
                   26         27
    26  H    0.000000
    27  H    5.436695   0.000000
 Symmetry turned off by external request.
 Stoichiometry    C9H13N3O2
 Framework group  C1[X(C9H13N3O2)]
 Deg. of freedom    75
 Full point group                 C1      NOp   1
 Rotational constants (GHZ):           1.6636714           0.4025518           0.3586318
 Standard basis: 6-31G(d) (6D, 7F)
   236 basis functions,   444 primitive gaussians,   236 cartesian basis functions
    52 alpha electrons       52 beta electrons
       nuclear repulsion energy       918.6147002803 Hartrees.
 NAtoms=   27 NActive=   27 NUniq=   27 SFac= 1.00D+00 NAtFMM=   60 NAOKFM=F Big=F
 Integral buffers will be    131072 words long.
 Raffenetti 1 integral format.
 Two-electron integral symmetry is turned off.
 One-electron integrals computed using PRISM.
 NBasis=   236 RedAO= T EigKep=  1.28D-03  NBF=   236
 NBsUse=   236 1.00D-06 EigRej= -1.00D+00 NBFU=   236
 ExpMin= 1.61D-01 ExpMax= 5.48D+03 ExpMxC= 8.25D+02 IAcc=3 IRadAn=         5 AccDes= 0.00D+00
 Harris functional with IExCor=  205 and IRadAn=       5 diagonalized for initial guess.
 HarFok:  IExCor=  205 AccDes= 0.00D+00 IRadAn=         5 IDoV= 1 UseB2=F ITyADJ=14
 ICtDFT=  3500011 ScaDFX=  1.000000  1.000000  1.000000  1.000000
 FoFCou: FMM=F IPFlag=           0 FMFlag=      100000 FMFlg1=           0
         NFxFlg=           0 DoJE=T BraDBF=F KetDBF=T FulRan=T
         wScrn=  0.000000 ICntrl=       500 IOpCl=  0 I1Cent=   200000004 NGrid=           0
         NMat0=    1 NMatS0=      1 NMatT0=    0 NMatD0=    1 NMtDS0=    0 NMtDT0=    0
 Symmetry not used in FoFCou.
 Keep R1 ints in memory in canonical form, NReq=397720213.
 Requested convergence on RMS density matrix=1.00D-08 within 128 cycles.
 Requested convergence on MAX density matrix=1.00D-06.
 Requested convergence on             energy=1.00D-06.
 No special actions if energy rises.
 SCF Done:  E(RHF) =  -661.280011556     A.U. after   16 cycles
            NFock= 16  Conv=0.78D-08     -V/T= 2.0037
 ExpMin= 1.61D-01 ExpMax= 5.48D+03 ExpMxC= 8.25D+02 IAcc=3 IRadAn=         5 AccDes= 0.00D+00
 HarFok:  IExCor=  205 AccDes= 0.00D+00 IRadAn=         5 IDoV=-2 UseB2=F ITyADJ=14
 ICtDFT= 12500011 ScaDFX=  1.000000  1.000000  1.000000  1.000000
 Range of M.O.s used for correlation:    15   236
 NBasis=   236 NAE=    52 NBE=    52 NFC=    14 NFV=     0
 NROrb=    222 NOA=    38 NOB=    38 NVA=   184 NVB=   184
 Fully direct method using O(ONN) memory.
 JobTyp=1 Pass  1:  I=  15 to  52 NPSUse=  4 ParTrn=T ParDer=T DoDerP=T.
 Spin components of T(2) and E(2):
     alpha-alpha T2 =       0.9208489189D-01 E2=     -0.2719492384D+00
     alpha-beta  T2 =       0.5000207367D+00 E2=     -0.1494282156D+01
     beta-beta   T2 =       0.9208489189D-01 E2=     -0.2719492384D+00
 ANorm=    0.1297763661D+01
 E2 =    -0.2038180633D+01 EUMP2 =    -0.66331819218831D+03
          IDoAtm=111111111111111111111111111
          Differentiating once with respect to electric field.
                with respect to dipole field.
          Differentiating once with respect to nuclear coordinates.
 Keep R1 ints in memory in canonical form, NReq=397723379.
          There are     1 degrees of freedom in the 1st order CPHF.  IDoFFX=0 NUNeed=     1.
 LinEq1:  Iter=  0 NonCon=     1 RMS=4.62D-03 Max=1.12D-01 NDo=     1
 AX will form     1 AO Fock derivatives at one time.
 LinEq1:  Iter=  1 NonCon=     1 RMS=1.57D-03 Max=3.05D-02 NDo=     1
 LinEq1:  Iter=  2 NonCon=     1 RMS=6.42D-04 Max=1.80D-02 NDo=     1
 LinEq1:  Iter=  3 NonCon=     1 RMS=2.95D-04 Max=9.30D-03 NDo=     1
 LinEq1:  Iter=  4 NonCon=     1 RMS=9.11D-05 Max=2.19D-03 NDo=     1
 LinEq1:  Iter=  5 NonCon=     1 RMS=3.78D-05 Max=1.88D-03 NDo=     1
 LinEq1:  Iter=  6 NonCon=     1 RMS=1.55D-05 Max=5.82D-04 NDo=     1
 LinEq1:  Iter=  7 NonCon=     1 RMS=5.94D-06 Max=9.61D-05 NDo=     1
 LinEq1:  Iter=  8 NonCon=     1 RMS=2.37D-06 Max=5.84D-05 NDo=     1
 LinEq1:  Iter=  9 NonCon=     1 RMS=8.76D-07 Max=2.50D-05 NDo=     1
 LinEq1:  Iter= 10 NonCon=     1 RMS=4.30D-07 Max=1.51D-05 NDo=     1
 LinEq1:  Iter= 11 NonCon=     1 RMS=1.54D-07 Max=5.71D-06 NDo=     1
 LinEq1:  Iter= 12 NonCon=     1 RMS=5.45D-08 Max=7.95D-07 NDo=     1
 LinEq1:  Iter= 13 NonCon=     1 RMS=1.71D-08 Max=3.28D-07 NDo=     1
 LinEq1:  Iter= 14 NonCon=     1 RMS=5.41D-09 Max=1.43D-07 NDo=     1
 LinEq1:  Iter= 15 NonCon=     1 RMS=2.00D-09 Max=5.03D-08 NDo=     1
 LinEq1:  Iter= 16 NonCon=     1 RMS=7.56D-10 Max=1.39D-08 NDo=     1
 LinEq1:  Iter= 17 NonCon=     1 RMS=2.53D-10 Max=4.01D-09 NDo=     1
 LinEq1:  Iter= 18 NonCon=     1 RMS=8.83D-11 Max=1.13D-09 NDo=     1
 LinEq1:  Iter= 19 NonCon=     0 RMS=2.98D-11 Max=3.84D-10 NDo=     1
 Linear equations converged to 1.000D-10 1.000D-09 after    19 iterations.
 End of Minotr F.D. properties file   721 does not exist.
 End of Minotr F.D. properties file   722 does not exist.
 End of Minotr F.D. properties file   788 does not exist.

 **********************************************************************

            Population analysis using the SCF Density.

 **********************************************************************

 Alpha  occ. eigenvalues --  -20.59820 -20.59394 -15.85290 -15.63508 -15.56780
 Alpha  occ. eigenvalues --  -11.35933 -11.30484 -11.30168 -11.30002 -11.27529
 Alpha  occ. eigenvalues --  -11.24672 -11.23913 -11.23308 -11.22837  -1.58484
 Alpha  occ. eigenvalues --   -1.37980  -1.28731  -1.22790  -1.13218  -1.08343
 Alpha  occ. eigenvalues --   -1.01740  -1.00616  -0.93627  -0.88911  -0.84941
 Alpha  occ. eigenvalues --   -0.81502  -0.77993  -0.77002  -0.74276  -0.71153
 Alpha  occ. eigenvalues --   -0.70327  -0.69791  -0.67492  -0.64327  -0.63224
 Alpha  occ. eigenvalues --   -0.61581  -0.60123  -0.57298  -0.56616  -0.54782
 Alpha  occ. eigenvalues --   -0.53736  -0.50653  -0.49398  -0.48479  -0.47817
 Alpha  occ. eigenvalues --   -0.47695  -0.46114  -0.45555  -0.44014  -0.42179
 Alpha  occ. eigenvalues --   -0.39963  -0.33810
 Alpha virt. eigenvalues --    0.07396   0.11754   0.17960   0.21488   0.23404
 Alpha virt. eigenvalues --    0.24330   0.26368   0.27791   0.28633   0.28811
 Alpha virt. eigenvalues --    0.29819   0.31200   0.31732   0.32387   0.33394
 Alpha virt. eigenvalues --    0.34000   0.34242   0.35400   0.37392   0.38537
 Alpha virt. eigenvalues --    0.40637   0.41876   0.44346   0.45200   0.45661
 Alpha virt. eigenvalues --    0.46152   0.49855   0.53272   0.57595   0.59031
 Alpha virt. eigenvalues --    0.63211   0.68844   0.69549   0.72376   0.74126
 Alpha virt. eigenvalues --    0.74885   0.75830   0.76024   0.78113   0.79046
 Alpha virt. eigenvalues --    0.80709   0.83755   0.84312   0.85737   0.87930
 Alpha virt. eigenvalues --    0.89002   0.90272   0.90590   0.91858   0.93968
 Alpha virt. eigenvalues --    0.95127   0.97068   0.98861   1.00722   1.01974
 Alpha virt. eigenvalues --    1.02873   1.05155   1.06558   1.07050   1.08494
 Alpha virt. eigenvalues --    1.09642   1.10592   1.11569   1.11980   1.13273
 Alpha virt. eigenvalues --    1.13961   1.14145   1.15533   1.16328   1.17251
 Alpha virt. eigenvalues --    1.18116   1.20215   1.21125   1.22311   1.22694
 Alpha virt. eigenvalues --    1.23669   1.24392   1.25190   1.26926   1.27713
 Alpha virt. eigenvalues --    1.29380   1.31260   1.32750   1.36107   1.39389
 Alpha virt. eigenvalues --    1.42789   1.46892   1.47747   1.49760   1.52958
 Alpha virt. eigenvalues --    1.55116   1.56272   1.59892   1.61618   1.65610
 Alpha virt. eigenvalues --    1.68460   1.70190   1.72549   1.73786   1.76969
 Alpha virt. eigenvalues --    1.78804   1.80370   1.84588   1.89084   1.92296
 Alpha virt. eigenvalues --    1.93592   1.96191   1.97129   1.98656   2.01192
 Alpha virt. eigenvalues --    2.03047   2.03987   2.05932   2.09174   2.11887
 Alpha virt. eigenvalues --    2.13118   2.13477   2.17635   2.18503   2.19564
 Alpha virt. eigenvalues --    2.20261   2.21892   2.24425   2.25549   2.26284
 Alpha virt. eigenvalues --    2.29447   2.32188   2.33271   2.35346   2.36100
 Alpha virt. eigenvalues --    2.39389   2.39754   2.42394   2.43411   2.46661
 Alpha virt. eigenvalues --    2.48597   2.50338   2.50655   2.56997   2.57749
 Alpha virt. eigenvalues --    2.60842   2.63522   2.65606   2.68595   2.68753
 Alpha virt. eigenvalues --    2.69615   2.70133   2.74777   2.76910   2.80967
 Alpha virt. eigenvalues --    2.84749   2.87271   2.89689   2.91218   2.95085
 Alpha virt. eigenvalues --    2.97501   2.98415   3.02294   3.03947   3.05422
 Alpha virt. eigenvalues --    3.06934   3.13430   3.18888   3.22656   3.27138
 Alpha virt. eigenvalues --    3.31543   3.32852   3.37166   3.43223   3.59535
 Alpha virt. eigenvalues --    4.10219   4.23191   4.32094   4.36392   4.43674
 Alpha virt. eigenvalues --    4.52432   4.59617   4.60293   4.70928   4.77903
 Alpha virt. eigenvalues --    4.96398   4.99522   5.03102   5.10192
          Condensed to atoms (all electrons):
               1          2          3          4          5          6
     1  O    8.300014   0.313070  -0.089868  -0.079035   0.003524  -0.000012
     2  N    0.313070   5.679976   0.309468   0.267050  -0.046656   0.000819
     3  O   -0.089868   0.309468   8.331201  -0.087583   0.007973   0.000467
     4  C   -0.079035   0.267050  -0.087583   5.244670   0.565723  -0.048017
     5  C    0.003524  -0.046656   0.007973   0.565723   4.678051   0.307558
     6  N   -0.000012   0.000819   0.000467  -0.048017   0.307558   7.179424
     7  C    0.000003  -0.000098   0.000002   0.004886  -0.030839   0.200326
     8  H   -0.000000   0.000002  -0.000000  -0.000260   0.002885  -0.050696
     9  C   -0.000000  -0.000004   0.000000   0.000645   0.001239  -0.051595
    10  C   -0.000000   0.000000  -0.000000  -0.000024  -0.000057   0.003213
    11  C   -0.000000  -0.000000  -0.000000  -0.000014   0.000013  -0.000130
    12  C   -0.000000   0.000001  -0.000000  -0.000140  -0.000129   0.003952
    13  C   -0.000020  -0.000022  -0.000002  -0.009925  -0.000139  -0.049448
    14  H   -0.000002  -0.000053   0.000000   0.002902   0.004540  -0.005837
    15  N    0.000210   0.001579  -0.000012  -0.061506  -0.003091   0.001507
    16  C    0.003075  -0.026275   0.001949   0.317831  -0.040650  -0.000754
    17  H    0.000132  -0.004235   0.012192  -0.025839   0.376385  -0.033060
    18  H    0.000000  -0.000035   0.000008   0.001121  -0.024624   0.328713
    19  H    0.000000  -0.000000   0.000000  -0.000897   0.000822   0.000467
    20  H    0.000000  -0.000000   0.000000  -0.000031   0.000010  -0.001361
    21  H   -0.000000  -0.000000   0.000000   0.000000   0.000001  -0.000056
    22  H   -0.000000   0.000000  -0.000000  -0.000000  -0.000002  -0.000100
    23  H    0.000000  -0.000000   0.000000   0.000027  -0.000000  -0.000024
    24  H    0.000000   0.000000   0.000000   0.000000  -0.000000   0.000005
    25  H    0.000000  -0.000000   0.000000   0.000020  -0.000001  -0.000081
    26  H    0.000000  -0.000000   0.000000   0.000006  -0.000002  -0.000077
    27  H    0.005524  -0.000345   0.000008  -0.065406   0.002100   0.000025
               7          8          9         10         11         12
     1  O    0.000003  -0.000000  -0.000000  -0.000000  -0.000000  -0.000000
     2  N   -0.000098   0.000002  -0.000004   0.000000  -0.000000   0.000001
     3  O    0.000002  -0.000000   0.000000  -0.000000  -0.000000  -0.000000
     4  C    0.004886  -0.000260   0.000645  -0.000024  -0.000014  -0.000140
     5  C   -0.030839   0.002885   0.001239  -0.000057   0.000013  -0.000129
     6  N    0.200326  -0.050696  -0.051595   0.003213  -0.000130   0.003952
     7  C    5.023578   0.419225   0.338262  -0.050069  -0.007647  -0.066310
     8  H    0.419225   0.548386  -0.060539   0.000890  -0.000480  -0.003712
     9  C    0.338262  -0.060539   5.176800   0.317930  -0.053037  -0.005912
    10  C   -0.050069   0.000890   0.317930   5.127736   0.332475  -0.059787
    11  C   -0.007647  -0.000480  -0.053037   0.332475   5.124183   0.331561
    12  C   -0.066310  -0.003712  -0.005912  -0.059787   0.331561   5.138248
    13  C    0.327924  -0.041379  -0.050208  -0.001400  -0.047193   0.369014
    14  H   -0.039585  -0.000574   0.003561  -0.000379   0.003848  -0.039714
    15  N   -0.059355   0.004132  -0.013809   0.001490  -0.008870  -0.076366
    16  C   -0.003009   0.000044  -0.001222  -0.000023  -0.000007   0.002779
    17  H    0.001452  -0.000028  -0.000061   0.000001   0.000000   0.000001
    18  H   -0.029198  -0.003280   0.000980  -0.000119   0.000012  -0.000156
    19  H   -0.035173   0.004064   0.386704  -0.032084  -0.002253   0.000609
    20  H   -0.042040  -0.001698   0.397370  -0.037447   0.004119  -0.000372
    21  H    0.004182  -0.000051  -0.036136   0.399996  -0.035498   0.004145
    22  H   -0.004701   0.003647  -0.045300   0.396256  -0.045699  -0.001040
    23  H    0.000297   0.000038  -0.001828  -0.039856   0.396476  -0.036020
    24  H   -0.000149  -0.000124   0.004428  -0.038546   0.400068  -0.037906
    25  H    0.005192   0.000044  -0.000386   0.004056  -0.033844   0.394954
    26  H   -0.005114   0.001456   0.001173  -0.002229  -0.042109   0.395044
    27  H   -0.000415   0.000009  -0.000066   0.000006   0.000006  -0.000026
              13         14         15         16         17         18
     1  O   -0.000020  -0.000002   0.000210   0.003075   0.000132   0.000000
     2  N   -0.000022  -0.000053   0.001579  -0.026275  -0.004235  -0.000035
     3  O   -0.000002   0.000000  -0.000012   0.001949   0.012192   0.000008
     4  C   -0.009925   0.002902  -0.061506   0.317831  -0.025839   0.001121
     5  C   -0.000139   0.004540  -0.003091  -0.040650   0.376385  -0.024624
     6  N   -0.049448  -0.005837   0.001507  -0.000754  -0.033060   0.328713
     7  C    0.327924  -0.039585  -0.059355  -0.003009   0.001452  -0.029198
     8  H   -0.041379  -0.000574   0.004132   0.000044  -0.000028  -0.003280
     9  C   -0.050208   0.003561  -0.013809  -0.001222  -0.000061   0.000980
    10  C   -0.001400  -0.000379   0.001490  -0.000023   0.000001  -0.000119
    11  C   -0.047193   0.003848  -0.008870  -0.000007   0.000000   0.000012
    12  C    0.369014  -0.039714  -0.076366   0.002779   0.000001  -0.000156
    13  C    5.030890   0.403021   0.240777  -0.071114  -0.000047   0.004021
    14  H    0.403021   0.513067  -0.034421  -0.004974   0.000055   0.000034
    15  N    0.240777  -0.034421   6.939684   0.586153  -0.000054  -0.000129
    16  C   -0.071114  -0.004974   0.586153   4.705012   0.001584  -0.000216
    17  H   -0.000047   0.000055  -0.000054   0.001584   0.383687  -0.002026
    18  H    0.004021   0.000034  -0.000129  -0.000216  -0.002026   0.325806
    19  H   -0.005919   0.000065   0.006892   0.002722   0.000010  -0.000129
    20  H    0.003811  -0.000044   0.000118  -0.000033  -0.000003   0.002471
    21  H   -0.000394   0.000008  -0.000031   0.000003  -0.000000   0.000000
    22  H    0.000346  -0.000041  -0.000001  -0.000002   0.000000   0.000002
    23  H   -0.005696   0.000006   0.006765   0.000052   0.000000   0.000000
    24  H    0.004129  -0.000056   0.000067   0.000006   0.000000  -0.000000
    25  H   -0.034806  -0.002626   0.000801  -0.000083  -0.000000   0.000003
    26  H   -0.044859  -0.000759   0.004262  -0.000059   0.000000  -0.000001
    27  H    0.005011  -0.000169  -0.039807   0.402090  -0.000060   0.000002
              19         20         21         22         23         24
     1  O    0.000000   0.000000  -0.000000  -0.000000   0.000000   0.000000
     2  N   -0.000000  -0.000000  -0.000000   0.000000  -0.000000   0.000000
     3  O    0.000000   0.000000   0.000000  -0.000000   0.000000   0.000000
     4  C   -0.000897  -0.000031   0.000000  -0.000000   0.000027   0.000000
     5  C    0.000822   0.000010   0.000001  -0.000002  -0.000000  -0.000000
     6  N    0.000467  -0.001361  -0.000056  -0.000100  -0.000024   0.000005
     7  C   -0.035173  -0.042040   0.004182  -0.004701   0.000297  -0.000149
     8  H    0.004064  -0.001698  -0.000051   0.003647   0.000038  -0.000124
     9  C    0.386704   0.397370  -0.036136  -0.045300  -0.001828   0.004428
    10  C   -0.032084  -0.037447   0.399996   0.396256  -0.039856  -0.038546
    11  C   -0.002253   0.004119  -0.035498  -0.045699   0.396476   0.400068
    12  C    0.000609  -0.000372   0.004145  -0.001040  -0.036020  -0.037906
    13  C   -0.005919   0.003811  -0.000394   0.000346  -0.005696   0.004129
    14  H    0.000065  -0.000044   0.000008  -0.000041   0.000006  -0.000056
    15  N    0.006892   0.000118  -0.000031  -0.000001   0.006765   0.000067
    16  C    0.002722  -0.000033   0.000003  -0.000002   0.000052   0.000006
    17  H    0.000010  -0.000003  -0.000000   0.000000   0.000000   0.000000
    18  H   -0.000129   0.002471   0.000000   0.000002   0.000000  -0.000000
    19  H    0.504257  -0.023811  -0.002493   0.003677   0.001561  -0.000073
    20  H   -0.023811   0.548575  -0.002569  -0.002954  -0.000048  -0.000090
    21  H   -0.002493  -0.002569   0.525459  -0.024648  -0.002801  -0.002052
    22  H    0.003677  -0.002954  -0.024648   0.568174   0.004037  -0.003655
    23  H    0.001561  -0.000048  -0.002801   0.004037   0.508035  -0.025196
    24  H   -0.000073  -0.000090  -0.002052  -0.003655  -0.025196   0.542040
    25  H   -0.000023   0.000011  -0.000085  -0.000079  -0.002070  -0.002382
    26  H    0.000016  -0.000034  -0.000072   0.002341   0.003753  -0.002777
    27  H    0.000089   0.000000  -0.000000   0.000000  -0.000022  -0.000000
              25         26         27
     1  O    0.000000   0.000000   0.005524
     2  N   -0.000000  -0.000000  -0.000345
     3  O    0.000000   0.000000   0.000008
     4  C    0.000020   0.000006  -0.065406
     5  C   -0.000001  -0.000002   0.002100
     6  N   -0.000081  -0.000077   0.000025
     7  C    0.005192  -0.005114  -0.000415
     8  H    0.000044   0.001456   0.000009
     9  C   -0.000386   0.001173  -0.000066
    10  C    0.004056  -0.002229   0.000006
    11  C   -0.033844  -0.042109   0.000006
    12  C    0.394954   0.395044  -0.000026
    13  C   -0.034806  -0.044859   0.005011
    14  H   -0.002626  -0.000759  -0.000169
    15  N    0.000801   0.004262  -0.039807
    16  C   -0.000083  -0.000059   0.402090
    17  H   -0.000000   0.000000  -0.000060
    18  H    0.000003  -0.000001   0.000002
    19  H   -0.000023   0.000016   0.000089
    20  H    0.000011  -0.000034   0.000000
    21  H   -0.000085  -0.000072  -0.000000
    22  H   -0.000079   0.002341   0.000000
    23  H   -0.002070   0.003753  -0.000022
    24  H   -0.002382  -0.002777  -0.000000
    25  H    0.512475  -0.023199  -0.000009
    26  H   -0.023199   0.561673   0.000001
    27  H   -0.000009   0.000001   0.450162
 Mulliken charges:
               1
     1  O   -0.456616
     2  N    0.505759
     3  O   -0.485802
     4  C   -0.026203
     5  C    0.195365
     6  N   -0.785227
     7  C    0.048373
     8  H    0.177997
     9  C   -0.308991
    10  C   -0.322030
    11  C   -0.315983
    12  C   -0.312716
    13  C   -0.026373
    14  H    0.198125
    15  N   -0.496985
    16  C    0.125123
    17  H    0.289913
    18  H    0.396739
    19  H    0.190899
    20  H    0.156047
    21  H    0.173091
    22  H    0.149739
    23  H    0.192513
    24  H    0.162265
    25  H    0.182120
    26  H    0.151565
    27  H    0.241293
 Sum of Mulliken charges =  -0.00000
 Mulliken charges with hydrogens summed into heavy atoms:
               1
     1  O   -0.456616
     2  N    0.505759
     3  O   -0.485802
     4  C   -0.026203
     5  C    0.485278
     6  N   -0.388488
     7  C    0.226371
     9  C    0.037955
    10  C    0.000800
    11  C    0.038796
    12  C    0.020969
    13  C    0.171752
    15  N   -0.496985
    16  C    0.366416
 Electronic spatial extent (au):  <R**2>=           3107.2920
 Charge=             -0.0000 electrons
 Dipole moment (field-independent basis, Debye):
    X=              5.3355    Y=              4.5354    Z=              0.6594  Tot=              7.0336
 Quadrupole moment (field-independent basis, Debye-Ang):
   XX=           -105.4631   YY=            -80.1393   ZZ=            -82.2833
   XY=             -1.6058   XZ=              0.0972   YZ=              0.3540
 Traceless Quadrupole moment (field-independent basis, Debye-Ang):
   XX=            -16.1678   YY=              9.1559   ZZ=              7.0119
   XY=             -1.6058   XZ=              0.0972   YZ=              0.3540
 Octapole moment (field-independent basis, Debye-Ang**2):
  XXX=             99.4401  YYY=             36.7209  ZZZ=             -4.3308  XYY=             -1.9368
  XXY=             11.2696  XXZ=              3.2549  XZZ=             -8.3900  YZZ=             -2.9653
  YYZ=              2.6252  XYZ=             -0.8737
 Hexadecapole moment (field-independent basis, Debye-Ang**3):
 XXXX=          -3525.1810 YYYY=           -612.7815 ZZZZ=           -309.5220 XXXY=            -31.0520
 XXXZ=             -2.6384 YYYX=            -12.9914 YYYZ=             11.6854 ZZZX=              6.8797
 ZZZY=              4.0400 XXYY=           -650.5220 XXZZ=           -541.4345 YYZZ=           -164.8437
 XXYZ=              0.2459 YYXZ=              4.0915 ZZXY=              3.7610
 N-N= 9.186147002803D+02 E-N=-3.383248091813D+03  KE= 6.588570242339D+02
 Calling FoFJK, ICntrl=  10002127 FMM=F ISym2X=0 I1Cent= 0 IOpClX= 0 NMat=1 NMatS=1 NMatT=0.
 -------------------------------------------------------------------
 Center     Atomic                   Forces (Hartrees/Bohr)
 Number     Number              X              Y              Z
 -------------------------------------------------------------------
      1        8           0.002313535   -0.019184889   -0.002936668
      2        7           0.039360851    0.013336429   -0.000894639
      3        8          -0.005077053    0.015867864    0.003738487
      4        6          -0.001837361    0.008445987    0.008557085
      5        6           0.003135757   -0.017213031   -0.005471989
      6        7           0.014102067   -0.008455704   -0.012364816
      7        6          -0.004883247    0.008437805    0.010583906
      8        1          -0.011257502   -0.001937249   -0.008019446
      9        6          -0.005184714    0.001249056   -0.001462638
     10        6           0.002430725   -0.001795828    0.000468067
     11        6          -0.000817051   -0.004326828   -0.001616729
     12        6           0.000819352   -0.010170667   -0.002373191
     13        6           0.016449899   -0.004727830    0.001417758
     14        1           0.000724001    0.004884247   -0.010423537
     15        7          -0.004326880    0.001131947    0.002735191
     16        6          -0.021825641    0.007916407    0.002640632
     17        1           0.007436728   -0.006614322   -0.004554741
     18        1          -0.018023211   -0.001912470    0.004842661
     19        1           0.003370675    0.005599634    0.007375368
     20        1          -0.003110206   -0.007383051    0.002841655
     21        1          -0.004166905    0.002425350    0.009603553
     22        1          -0.004290422   -0.003995333   -0.007254274
     23        1           0.003726343    0.006428344    0.009308285
     24        1          -0.009348042    0.002538663   -0.001977770
     25        1          -0.000495880    0.010282232   -0.002616556
     26        1          -0.004662142   -0.004809540   -0.004200009
     27        1           0.005436324    0.003982778    0.002054355
 -------------------------------------------------------------------
 Cartesian Forces:  Max     0.039360851 RMS     0.008743200

 GradGradGradGradGradGradGradGradGradGradGradGradGradGradGradGradGradGrad
 Berny optimization.
 FormGI is forming the generalized inverse of G from B-inverse, IUseBI=4.
 Internal  Forces:  Max     0.037786306 RMS     0.007025377
 Search for a local minimum.
 Step number   1 out of a maximum of  100
 All quantities printed in internal units (Hartrees-Bohrs-Radians)
 Mixed Optimization -- RFO/linear search
 Second derivative matrix not updated -- first step.
 ITU=  0
     Eigenvalues ---    0.00231   0.00771   0.01037   0.01134   0.01197
     Eigenvalues ---    0.01456   0.01543   0.01589   0.01939   0.02003
     Eigenvalues ---    0.02070   0.02717   0.03638   0.04461   0.04670
     Eigenvalues ---    0.04839   0.05101   0.05142   0.05321   0.05908
     Eigenvalues ---    0.06206   0.07200   0.07570   0.07603   0.07914
     Eigenvalues ---    0.07985   0.08046   0.08083   0.10430   0.11704
     Eigenvalues ---    0.12209   0.13185   0.15041   0.15409   0.15987
     Eigenvalues ---    0.16000   0.20090   0.22173   0.23198   0.24981
     Eigenvalues ---    0.25000   0.25000   0.25299   0.26204   0.26580
     Eigenvalues ---    0.27865   0.28016   0.28433   0.29551   0.31277
     Eigenvalues ---    0.31689   0.32108   0.32264   0.32303   0.32386
     Eigenvalues ---    0.32395   0.32406   0.32535   0.32599   0.32616
     Eigenvalues ---    0.33174   0.33392   0.33599   0.35637   0.43870
     Eigenvalues ---    0.43928   0.49257   0.66847   0.90408   0.91166
     Eigenvalues --- 1000.000001000.000001000.000001000.000001000.00000
     Eigenvalues --- 1000.000001000.000001000.000001000.000001000.00000
     Eigenvalues --- 1000.000001000.000001000.000001000.000001000.00000
     Eigenvalues --- 1000.000001000.000001000.000001000.000001000.00000
     Eigenvalues --- 1000.000001000.000001000.000001000.000001000.00000
     Eigenvalues --- 1000.000001000.000001000.000001000.000001000.00000
     Eigenvalues --- 1000.000001000.000001000.000001000.000001000.00000
     Eigenvalues --- 1000.000001000.000001000.000001000.000001000.00000
     Eigenvalues --- 1000.000001000.000001000.000001000.000001000.00000
     Eigenvalues --- 1000.000001000.000001000.000001000.000001000.00000
     Eigenvalues --- 1000.000001000.000001000.000001000.000001000.00000
     Eigenvalues --- 1000.000001000.000001000.000001000.000001000.00000
     Eigenvalues --- 1000.000001000.000001000.000001000.000001000.00000
     Eigenvalues --- 1000.000001000.000001000.000001000.000001000.00000
     Eigenvalues --- 1000.000001000.000001000.000001000.000001000.00000
     Eigenvalues --- 1000.000001000.000001000.000001000.000001000.00000
     Eigenvalues --- 1000.000001000.000001000.000001000.000001000.00000
     Eigenvalues --- 1000.000001000.000001000.000001000.000001000.00000
     Eigenvalues --- 1000.00000
 RFO step:  Lambda=-2.46729148D-02 EMin= 2.30930451D-03
 Linear search not attempted -- first point.
 Iteration  1 RMS(Cart)=  0.05905634 RMS(Int)=  0.00108375
 Iteration  2 RMS(Cart)=  0.00121299 RMS(Int)=  0.00021884
 Iteration  3 RMS(Cart)=  0.00000083 RMS(Int)=  0.00021884
 Iteration  1 RMS(Cart)=  0.00003232 RMS(Int)=  0.00002673
 Iteration  2 RMS(Cart)=  0.00001670 RMS(Int)=  0.00002952
 Iteration  3 RMS(Cart)=  0.00000991 RMS(Int)=  0.00003288
 Iteration  4 RMS(Cart)=  0.00000689 RMS(Int)=  0.00003531
 Iteration  5 RMS(Cart)=  0.00000537 RMS(Int)=  0.00003707
 Iteration  6 RMS(Cart)=  0.00000443 RMS(Int)=  0.00003842
 Iteration  7 RMS(Cart)=  0.00000373 RMS(Int)=  0.00003952
 Iteration  8 RMS(Cart)=  0.00000317 RMS(Int)=  0.00004044
 Iteration  9 RMS(Cart)=  0.00000271 RMS(Int)=  0.00004122
 Iteration 10 RMS(Cart)=  0.00000231 RMS(Int)=  0.00004190
 Iteration 11 RMS(Cart)=  0.00000197 RMS(Int)=  0.00004247
 Iteration 12 RMS(Cart)=  0.00000168 RMS(Int)=  0.00004297
 Iteration 13 RMS(Cart)=  0.00000144 RMS(Int)=  0.00004341
 Iteration 14 RMS(Cart)=  0.00000123 RMS(Int)=  0.00004378
 Iteration 15 RMS(Cart)=  0.00000105 RMS(Int)=  0.00004410
 Iteration 16 RMS(Cart)=  0.00000090 RMS(Int)=  0.00004437
 Variable       Old X    -DE/DX   Delta X   Delta X   Delta X     New X
                                 (Linear)    (Quad)   (Total)
    R1        2.32400   0.01785   0.00000   0.01907   0.01907   2.34307
    R2        2.32745   0.01580   0.00000   0.01701   0.01701   2.34446
    R3        2.88869  -0.03779   0.00000  -0.11802  -0.11802   2.77067
    R4        2.64933  -0.03541   0.00000  -0.07633  -0.07608   2.57325
    R5        2.81701  -0.02347   0.00000  -0.06683  -0.06659   2.75042
    R6        2.59129  -0.02471   0.00000  -0.04781  -0.04772   2.54357
    R7        2.08369  -0.01060   0.00000  -0.02956  -0.02956   2.05413
    R8        2.82164  -0.01878   0.00000  -0.05237  -0.05251   2.76913
    R9        1.93311  -0.00650   0.00000  -0.01402  -0.01402   1.91909
   R10        2.12186  -0.01305   0.00000  -0.03868  -0.03868   2.08318
   R11        2.92678  -0.01372   0.00000  -0.04647  -0.04646   2.88031
   R12        2.89803  -0.00255   0.00000  -0.00282  -0.00285   2.89519
   R13        2.91253  -0.00424   0.00000  -0.01343  -0.01347   2.89907
   R14        2.09761  -0.00970   0.00000  -0.02766  -0.02766   2.06995
   R15        2.09876  -0.00809   0.00000  -0.02312  -0.02312   2.07564
   R16        2.90655  -0.00158   0.00000  -0.00665  -0.00673   2.89982
   R17        2.10127  -0.01051   0.00000  -0.03016  -0.03016   2.07111
   R18        2.10293  -0.00902   0.00000  -0.02596  -0.02596   2.07697
   R19        2.92224  -0.00990   0.00000  -0.03157  -0.03158   2.89067
   R20        2.10363  -0.01172   0.00000  -0.03375  -0.03375   2.06988
   R21        2.10107  -0.00987   0.00000  -0.02830  -0.02830   2.07278
   R22        2.93821  -0.01023   0.00000  -0.03494  -0.03490   2.90331
   R23        2.10143  -0.01052   0.00000  -0.03019  -0.03019   2.07124
   R24        2.09731  -0.00772   0.00000  -0.02199  -0.02199   2.07531
   R25        2.10647  -0.00961   0.00000  -0.02778  -0.02778   2.07869
   R26        2.76411  -0.00339   0.00000  -0.00688  -0.00717   2.75694
   R27        2.44472  -0.00556   0.00000  -0.00748  -0.00749   2.43723
   R28        2.08012  -0.00634   0.00000  -0.01759  -0.01759   2.06253
    A1        2.15752   0.01107   0.00000   0.04047   0.04027   2.19779
    A2        2.05404  -0.00740   0.00000  -0.02681  -0.02700   2.02704
    A3        2.07150  -0.00365   0.00000  -0.01314  -0.01333   2.05817
    A4        2.02852  -0.00805   0.00000  -0.02724  -0.02762   2.00091
    A5        2.03084  -0.00341   0.00000  -0.01025  -0.01065   2.02019
    A6        2.22303   0.01140   0.00000   0.03631   0.03666   2.25970
    A7        2.20129   0.00662   0.00000   0.02038   0.02077   2.22206
    A8        2.06412  -0.00366   0.00000  -0.01194  -0.01217   2.05195
    A9        2.01660  -0.00293   0.00000  -0.00783  -0.00807   2.00853
   A10        2.23699  -0.00648   0.00000  -0.02578  -0.02580   2.21119
   A11        2.11310  -0.01233   0.00000  -0.07062  -0.07091   2.04219
   A12        1.87446   0.01905   0.00000   0.10433   0.10453   1.97899
   A13        1.82462  -0.00110   0.00000  -0.01791  -0.01774   1.80688
   A14        2.04310  -0.00292   0.00000  -0.01640  -0.01650   2.02660
   A15        1.94515   0.00328   0.00000   0.00722   0.00662   1.95177
   A16        1.84081   0.00320   0.00000   0.02570   0.02556   1.86637
   A17        1.84400   0.00113   0.00000   0.02150   0.02136   1.86536
   A18        1.94718  -0.00298   0.00000  -0.01436  -0.01393   1.93325
   A19        1.89601   0.00033   0.00000  -0.00661  -0.00678   1.88924
   A20        1.93026  -0.00051   0.00000  -0.01150  -0.01148   1.91878
   A21        1.92203  -0.00181   0.00000  -0.00623  -0.00620   1.91583
   A22        1.92518  -0.00105   0.00000   0.00254   0.00247   1.92765
   A23        1.90591   0.00336   0.00000   0.02601   0.02604   1.93196
   A24        1.88443  -0.00028   0.00000  -0.00363  -0.00384   1.88059
   A25        1.93992  -0.00047   0.00000   0.00907   0.00892   1.94884
   A26        1.91862  -0.00074   0.00000  -0.00724  -0.00726   1.91136
   A27        1.90621   0.00002   0.00000  -0.00504  -0.00513   1.90108
   A28        1.91596   0.00046   0.00000   0.00518   0.00525   1.92120
   A29        1.89857   0.00184   0.00000   0.01149   0.01153   1.91011
   A30        1.88353  -0.00111   0.00000  -0.01401  -0.01410   1.86943
   A31        1.94839   0.00129   0.00000   0.00779   0.00802   1.95641
   A32        1.90221   0.00022   0.00000   0.00473   0.00467   1.90687
   A33        1.91576   0.00045   0.00000   0.00536   0.00530   1.92106
   A34        1.90869  -0.00148   0.00000  -0.01656  -0.01664   1.89205
   A35        1.91308  -0.00069   0.00000  -0.00038  -0.00052   1.91256
   A36        1.87417   0.00015   0.00000  -0.00138  -0.00141   1.87277
   A37        1.94659  -0.00423   0.00000  -0.02487  -0.02494   1.92165
   A38        1.90422   0.00254   0.00000   0.01556   0.01539   1.91961
   A39        1.91247   0.00182   0.00000   0.01463   0.01462   1.92709
   A40        1.90551   0.00117   0.00000   0.00202   0.00221   1.90772
   A41        1.91398  -0.00011   0.00000  -0.00322  -0.00313   1.91085
   A42        1.87981  -0.00107   0.00000  -0.00334  -0.00351   1.87630
   A43        1.83297   0.00599   0.00000   0.02930   0.02937   1.86234
   A44        1.95354  -0.00534   0.00000  -0.03420  -0.03476   1.91877
   A45        1.97364  -0.00007   0.00000   0.00719   0.00740   1.98104
   A46        1.88656   0.00210   0.00000   0.03074   0.03112   1.91768
   A47        1.88054  -0.00260   0.00000  -0.02915  -0.02920   1.85134
   A48        1.93053   0.00040   0.00000  -0.00085  -0.00076   1.92977
   A49        2.07195  -0.00470   0.00000  -0.01432  -0.01475   2.05720
   A50        2.25655  -0.00517   0.00000  -0.02295  -0.02303   2.23352
   A51        1.97779   0.00509   0.00000   0.02507   0.02460   2.00238
   A52        2.04884   0.00009   0.00000  -0.00197  -0.00244   2.04640
    D1       -3.03687  -0.00042   0.00000  -0.02832  -0.02762  -3.06449
    D2        0.14417   0.00067   0.00000   0.00000  -0.00000   0.14417
    D3        0.12082  -0.00188   0.00000  -0.06356  -0.06321   0.05761
    D4       -2.98133  -0.00079   0.00000  -0.03524  -0.03559  -3.01692
    D5        3.06467   0.00052   0.00000   0.01866   0.01879   3.08347
    D6       -0.02222   0.00005   0.00000   0.00487   0.00493  -0.01729
    D7       -0.12140  -0.00118   0.00000  -0.01474  -0.01500  -0.13640
    D8        3.07490  -0.00164   0.00000  -0.02853  -0.02887   3.04603
    D9       -2.73279  -0.00224   0.00000  -0.04041  -0.04082  -2.77361
   D10        0.40492   0.00058   0.00000   0.01007   0.00979   0.41471
   D11        0.45333  -0.00044   0.00000  -0.00660  -0.00636   0.44697
   D12       -2.69215   0.00238   0.00000   0.04388   0.04425  -2.64790
   D13       -0.00671  -0.00102   0.00000   0.00734   0.00756   0.00085
   D14        2.72637   0.00378   0.00000   0.05555   0.05482   2.78119
   D15        3.08149  -0.00060   0.00000   0.02066   0.02099   3.10248
   D16       -0.46862   0.00420   0.00000   0.06887   0.06825  -0.40037
   D17       -2.61015  -0.00091   0.00000  -0.01411  -0.01381  -2.62396
   D18        1.64443  -0.00255   0.00000  -0.02479  -0.02456   1.61987
   D19       -0.62630   0.00130   0.00000   0.00455   0.00441  -0.62189
   D20        0.89603  -0.00003   0.00000  -0.02790  -0.02819   0.86783
   D21       -1.13257  -0.00168   0.00000  -0.03857  -0.03895  -1.17152
   D22        2.87988   0.00217   0.00000  -0.00924  -0.00998   2.86990
   D23        2.91410   0.00289   0.00000   0.02932   0.02913   2.94323
   D24       -1.25387   0.00149   0.00000   0.02106   0.02089  -1.23298
   D25        0.82754  -0.00033   0.00000   0.00534   0.00522   0.83276
   D26        0.89440   0.00365   0.00000   0.04282   0.04285   0.93725
   D27        3.00962   0.00224   0.00000   0.03455   0.03460   3.04422
   D28       -1.19215   0.00043   0.00000   0.01883   0.01894  -1.17322
   D29       -1.09931   0.00197   0.00000   0.01006   0.01013  -1.08918
   D30        1.01590   0.00056   0.00000   0.00180   0.00188   1.01779
   D31        3.09732  -0.00125   0.00000  -0.01392  -0.01378   3.08354
   D32       -2.84106  -0.00230   0.00000  -0.01330  -0.01308  -2.85414
   D33       -0.79829   0.00103   0.00000   0.02324   0.02295  -0.77535
   D34        1.39624  -0.00284   0.00000   0.00000  -0.00001   1.39623
   D35       -0.86933  -0.00144   0.00000  -0.01918  -0.01899  -0.88833
   D36        1.17343   0.00189   0.00000   0.01736   0.01704   1.19047
   D37       -2.91522  -0.00197   0.00000  -0.00588  -0.00591  -2.92114
   D38        1.12240   0.00153   0.00000   0.01618   0.01633   1.13873
   D39       -3.11802   0.00486   0.00000   0.05272   0.05236  -3.06566
   D40       -0.92349   0.00099   0.00000   0.02948   0.02941  -0.89408
   D41        0.95662   0.00084   0.00000   0.00000   0.00001   0.95663
   D42        3.08149   0.00061   0.00000   0.00766   0.00761   3.08910
   D43       -1.13826  -0.00117   0.00000  -0.01668  -0.01662  -1.15488
   D44       -1.16172   0.00191   0.00000   0.01683   0.01689  -1.14482
   D45        0.96315   0.00168   0.00000   0.02449   0.02450   0.98765
   D46        3.02659  -0.00010   0.00000   0.00016   0.00026   3.02686
   D47        3.05322   0.00083   0.00000   0.00388   0.00384   3.05706
   D48       -1.10510   0.00059   0.00000   0.01154   0.01145  -1.09365
   D49        0.95834  -0.00118   0.00000  -0.01279  -0.01279   0.94555
   D50       -0.92187  -0.00068   0.00000   0.00000   0.00001  -0.92186
   D51        1.18832  -0.00155   0.00000  -0.01258  -0.01258   1.17574
   D52       -3.04679  -0.00098   0.00000  -0.00842  -0.00847  -3.05526
   D53       -3.04829   0.00025   0.00000  -0.00040  -0.00038  -3.04867
   D54       -0.93810  -0.00062   0.00000  -0.01298  -0.01297  -0.95107
   D55        1.10998  -0.00006   0.00000  -0.00882  -0.00886   1.10112
   D56        1.17753   0.00025   0.00000   0.00680   0.00685   1.18438
   D57       -2.99546  -0.00062   0.00000  -0.00577  -0.00574  -3.00120
   D58       -0.94739  -0.00006   0.00000  -0.00162  -0.00163  -0.94901
   D59        0.98692  -0.00156   0.00000  -0.01519  -0.01524   0.97168
   D60        3.09334  -0.00111   0.00000  -0.01818  -0.01835   3.07498
   D61       -1.13569   0.00014   0.00000  -0.00468  -0.00466  -1.14035
   D62       -1.11949  -0.00168   0.00000  -0.01505  -0.01504  -1.13453
   D63        0.98692  -0.00123   0.00000  -0.01804  -0.01815   0.96877
   D64        3.04108   0.00002   0.00000  -0.00454  -0.00445   3.03663
   D65        3.11339  -0.00060   0.00000  -0.00348  -0.00347   3.10992
   D66       -1.06338  -0.00014   0.00000  -0.00647  -0.00659  -1.06997
   D67        0.99078   0.00110   0.00000   0.00703   0.00711   0.99789
   D68       -1.05169  -0.00023   0.00000  -0.00197  -0.00189  -1.05358
   D69       -3.13969   0.00177   0.00000   0.00709   0.00661  -3.13309
   D70        1.05670   0.00158   0.00000   0.00733   0.00715   1.06385
   D71        3.12584  -0.00149   0.00000  -0.00689  -0.00667   3.11916
   D72        1.03783   0.00051   0.00000   0.00218   0.00182   1.03965
   D73       -1.04895   0.00032   0.00000   0.00242   0.00236  -1.04659
   D74        1.07005  -0.00082   0.00000  -0.00217  -0.00190   1.06815
   D75       -1.01796   0.00118   0.00000   0.00690   0.00660  -1.01136
   D76       -3.10474   0.00099   0.00000   0.00714   0.00714  -3.09760
   D77       -1.17215   0.00637   0.00000   0.00000  -0.00001  -1.17215
   D78        3.09332   0.00070   0.00000  -0.02159  -0.02154   3.07178
   D79        1.03467  -0.00051   0.00000  -0.04086  -0.04120   0.99347
   D80        0.13205   0.00228   0.00000   0.02056   0.02016   0.15221
   D81       -3.00552  -0.00065   0.00000  -0.03170  -0.03159  -3.03711
         Item               Value     Threshold  Converged?
 Maximum Force            0.037786     0.000450     NO 
 RMS     Force            0.007071     0.000300     NO 
 Maximum Displacement     0.305974     0.001800     NO 
 RMS     Displacement     0.059112     0.001200     NO 
 Predicted change in Energy=-1.376598D-02
 GradGradGradGradGradGradGradGradGradGradGradGradGradGradGradGradGradGrad

                          Input orientation:                          
 ---------------------------------------------------------------------
 Center     Atomic      Atomic             Coordinates (Angstroms)
 Number     Number       Type             X           Y           Z
 ---------------------------------------------------------------------
      1          8           0       -3.457634   -1.402812   -0.319882
      2          7           0       -3.103345   -0.233710   -0.107680
      3          8           0       -3.858126    0.734407    0.071859
      4          6           0       -1.657631    0.001263   -0.041574
      5          6           0       -1.303759    1.274766    0.285852
      6          7           0       -0.060003    1.752350    0.477418
      7          6           0        1.192737    0.999303    0.373275
      8          1           0        1.861447    1.511668    1.084284
      9          6           0        1.882608    1.029296   -0.985531
     10          6           0        3.290007    0.440860   -0.822749
     11          6           0        3.249412   -0.959974   -0.197641
     12          6           0        2.451846   -0.984744    1.107418
     13          6           0        1.034518   -0.441173    0.870492
     14          1           0        0.467262   -0.452525    1.812871
     15          7           0        0.419283   -1.330486   -0.108809
     16          6           0       -0.816120   -1.125309   -0.417148
     17          1           0       -2.103287    1.992852    0.449160
     18          1           0        0.065672    2.756904    0.397481
     19          1           0        1.305260    0.445443   -1.710532
     20          1           0        1.934264    2.063020   -1.353216
     21          1           0        3.786101    0.402846   -1.799286
     22          1           0        3.884189    1.109401   -0.184006
     23          1           0        2.781855   -1.656431   -0.901984
     24          1           0        4.269103   -1.319065   -0.012168
     25          1           0        2.387571   -2.010680    1.487747
     26          1           0        2.953037   -0.379007    1.874198
     27          1           0       -1.295280   -1.854473   -1.072870
 ---------------------------------------------------------------------
                    Distance matrix (angstroms):
                    1          2          3          4          5
     1  O    0.000000
     2  N    1.239899   0.000000
     3  O    2.209426   1.240637   0.000000
     4  C    2.299759   1.466176   2.322186   0.000000
     5  C    3.489343   2.380941   2.619651   1.361706   0.000000
     6  N    4.704745   3.680856   3.953027   2.426535   1.345999
     7  C    5.279827   4.495327   5.066778   3.048407   2.513169
     8  H    6.225632   5.395951   5.860260   3.991590   3.272941
     9  C    5.905626   5.217809   5.844746   3.805417   3.439419
    10  C    7.013035   6.468487   7.209875   5.028181   4.798654
    11  C    6.722761   6.394769   7.311679   5.002739   5.095017
    12  C    6.093760   5.735909   6.621450   4.379519   4.459251
    13  C    4.745647   4.256967   5.094877   2.876679   2.958681
    14  H    4.566891   4.060250   4.811332   2.856582   2.907204
    15  N    3.883332   3.689421   4.753173   2.468126   3.148328
    16  C    2.657831   2.474291   3.598816   1.455459   2.548011
    17  H    3.735802   2.503551   2.192144   2.099014   1.086997
    18  H    5.498321   4.386529   4.426366   3.279650   2.021024
    19  H    5.294819   4.739850   5.470006   3.429495   3.388259
    20  H    6.492483   5.674842   6.111287   4.344302   3.713850
    21  H    7.610567   7.122584   7.876885   5.734548   5.569087
    22  H    7.760930   7.115855   7.755612   5.653319   5.211805
    23  H    6.271713   6.106605   7.124171   4.816356   5.166731
    24  H    7.733315   7.452523   8.383057   6.072092   6.154150
    25  H    6.148450   5.987751   6.967709   4.769737   5.085727
    26  H    6.852654   6.374065   7.133025   5.007299   4.835092
    27  H    2.333829   2.612960   3.818492   2.153746   3.411500
                    6          7          8          9         10
     6  N    0.000000
     7  C    1.465361   0.000000
     8  H    2.029331   1.102372   0.000000
     9  C    2.537078   1.524196   2.125386   0.000000
    10  C    3.825312   2.478079   2.612315   1.534121   0.000000
    11  C    4.331816   2.897348   3.111076   2.538921   1.534518
    12  C    3.768019   2.461862   2.565381   2.959868   2.541733
    13  C    2.482746   1.532067   2.131457   2.515224   2.955043
    14  H    2.631144   2.169460   2.516475   3.468436   3.963902
    15  N    3.174469   2.501710   3.403109   2.911792   3.447961
    16  C    3.106909   3.028903   4.046889   3.499788   4.413352
    17  H    2.057584   3.443352   4.044013   4.344438   5.754482
    18  H    1.015536   2.088067   2.290659   2.863321   4.153234
    19  H    2.891206   2.159090   3.042561   1.095373   2.174259
    20  H    2.724856   2.159196   2.500140   1.098384   2.179641
    21  H    4.668732   3.435305   3.639885   2.162851   1.095983
    22  H    4.050619   2.750744   2.421128   2.157587   1.099086
    23  H    4.647439   3.347312   3.850878   2.833505   2.159427
    24  H    5.330520   3.871359   3.874541   3.486774   2.170946
    25  H    4.601280   3.424861   3.584205   3.951398   3.487526
    26  H    3.946148   2.692798   2.321677   3.362615   2.838882
    27  H    4.115638   4.052852   5.094031   4.292170   5.133807
                   11         12         13         14         15
    11  C    0.000000
    12  C    1.529674   0.000000
    13  C    2.513129   1.536366   0.000000
    14  H    3.469873   2.172440   1.099994   0.000000
    15  N    2.855661   2.393754   1.458911   2.113285   0.000000
    16  C    4.074809   3.608831   2.356039   2.659454   1.289725
    17  H    6.147270   5.481662   3.993473   3.800960   4.209426
    18  H    4.930066   4.494192   3.374922   3.530586   4.133779
    19  H    2.836153   3.361686   2.742457   3.731348   2.550371
    20  H    3.493345   3.951136   3.467766   4.301647   3.919133
    21  H    2.170388   3.486341   3.925722   4.979361   4.147001
    22  H    2.164588   2.846897   3.411285   4.254705   4.238428
    23  H    1.095336   2.144240   2.769784   3.765258   2.513386
    24  H    1.096866   2.160478   3.465879   4.305305   3.851049
    25  H    2.165014   1.096051   2.162200   2.494221   2.624083
    26  H    2.172067   1.098208   2.166103   2.487618   3.355225
    27  H    4.713850   4.421656   3.346944   3.660535   2.035609
                   16         17         18         19         20
    16  C    0.000000
    17  H    3.482846   0.000000
    18  H    4.063589   2.300181   0.000000
    19  H    2.939448   4.321682   3.364988   0.000000
    20  H    4.313500   4.422138   2.652932   1.771970   0.000000
    21  H    5.042420   6.501425   4.920261   2.482794   2.526748
    22  H    5.209720   6.085331   4.199221   3.069527   2.465491
    23  H    3.669138   6.245596   5.342638   2.692946   3.841397
    24  H    5.105001   7.196456   5.869426   3.844775   4.323006
    25  H    3.830945   6.105304   5.413848   4.175275   4.987143
    26  H    4.473675   5.763928   4.511264   4.030530   4.173439
    27  H    1.091443   4.215609   5.027815   3.529736   5.084811
                   21         22         23         24         25
    21  H    0.000000
    22  H    1.765778   0.000000
    23  H    2.460545   3.062753   0.000000
    24  H    2.528252   2.464779   1.765642   0.000000
    25  H    4.311100   3.843114   2.447808   2.503646   0.000000
    26  H    3.847047   2.705292   3.060767   2.484777   1.769591
    27  H    5.607460   6.033368   4.085518   5.689825   4.488268
                   26         27
    26  H    0.000000
    27  H    5.376840   0.000000
 Symmetry turned off by external request.
 Stoichiometry    C9H13N3O2
 Framework group  C1[X(C9H13N3O2)]
 Deg. of freedom    75
 Full point group                 C1      NOp   1
 Rotational constants (GHZ):           1.6713335           0.4256377           0.3770508
 Standard basis: 6-31G(d) (6D, 7F)
   236 basis functions,   444 primitive gaussians,   236 cartesian basis functions
    52 alpha electrons       52 beta electrons
       nuclear repulsion energy       933.7861797346 Hartrees.
 NAtoms=   27 NActive=   27 NUniq=   27 SFac= 1.00D+00 NAtFMM=   60 NAOKFM=F Big=F
 Integral buffers will be    131072 words long.
 Raffenetti 1 integral format.
 Two-electron integral symmetry is turned off.
 One-electron integrals computed using PRISM.
 NBasis=   236 RedAO= T EigKep=  1.01D-03  NBF=   236
 NBsUse=   236 1.00D-06 EigRej= -1.00D+00 NBFU=   236
 Initial guess from the checkpoint file:  "/home/alexey/tmp/Gau-1174999.chk"
 B after Tr=     0.059507    0.006287    0.000339
         Rot=    0.999998   -0.001348    0.000740    0.001020 Ang=  -0.21 deg.
 ExpMin= 1.61D-01 ExpMax= 5.48D+03 ExpMxC= 8.25D+02 IAcc=3 IRadAn=         5 AccDes= 0.00D+00
 Harris functional with IExCor=  205 and IRadAn=       5 diagonalized for initial guess.
 HarFok:  IExCor=  205 AccDes= 0.00D+00 IRadAn=         5 IDoV= 1 UseB2=F ITyADJ=14
 ICtDFT=  3500011 ScaDFX=  1.000000  1.000000  1.000000  1.000000
 FoFCou: FMM=F IPFlag=           0 FMFlag=      100000 FMFlg1=           0
         NFxFlg=           0 DoJE=T BraDBF=F KetDBF=T FulRan=T
         wScrn=  0.000000 ICntrl=       500 IOpCl=  0 I1Cent=   200000004 NGrid=           0
         NMat0=    1 NMatS0=      1 NMatT0=    0 NMatD0=    1 NMtDS0=    0 NMtDT0=    0
 Symmetry not used in FoFCou.
 Keep R1 ints in memory in canonical form, NReq=397720213.
 Requested convergence on RMS density matrix=1.00D-08 within 128 cycles.
 Requested convergence on MAX density matrix=1.00D-06.
 Requested convergence on             energy=1.00D-06.
 No special actions if energy rises.
 SCF Done:  E(RHF) =  -661.297321582     A.U. after   14 cycles
            NFock= 14  Conv=0.97D-08     -V/T= 2.0024
 ExpMin= 1.61D-01 ExpMax= 5.48D+03 ExpMxC= 8.25D+02 IAcc=3 IRadAn=         5 AccDes= 0.00D+00
 HarFok:  IExCor=  205 AccDes= 0.00D+00 IRadAn=         5 IDoV=-2 UseB2=F ITyADJ=14
 ICtDFT= 12500011 ScaDFX=  1.000000  1.000000  1.000000  1.000000
 Range of M.O.s used for correlation:    15   236
 NBasis=   236 NAE=    52 NBE=    52 NFC=    14 NFV=     0
 NROrb=    222 NOA=    38 NOB=    38 NVA=   184 NVB=   184
 Fully direct method using O(ONN) memory.
 JobTyp=1 Pass  1:  I=  15 to  52 NPSUse=  4 ParTrn=T ParDer=T DoDerP=T.
 Spin components of T(2) and E(2):
     alpha-alpha T2 =       0.9136905807D-01 E2=     -0.2725470789D+00
     alpha-beta  T2 =       0.4916333892D+00 E2=     -0.1488619497D+01
     beta-beta   T2 =       0.9136905807D-01 E2=     -0.2725470789D+00
 ANorm=    0.1293975079D+01
 E2 =    -0.2033713655D+01 EUMP2 =    -0.66333103523711D+03
          IDoAtm=111111111111111111111111111
          Differentiating once with respect to electric field.
                with respect to dipole field.
          Differentiating once with respect to nuclear coordinates.
 Keep R1 ints in memory in canonical form, NReq=397723379.
          There are     1 degrees of freedom in the 1st order CPHF.  IDoFFX=0 NUNeed=     1.
 LinEq1:  Iter=  0 NonCon=     1 RMS=4.58D-03 Max=1.06D-01 NDo=     1
 AX will form     1 AO Fock derivatives at one time.
 LinEq1:  Iter=  1 NonCon=     1 RMS=1.54D-03 Max=2.77D-02 NDo=     1
 LinEq1:  Iter=  2 NonCon=     1 RMS=6.43D-04 Max=1.79D-02 NDo=     1
 LinEq1:  Iter=  3 NonCon=     1 RMS=2.81D-04 Max=8.32D-03 NDo=     1
 LinEq1:  Iter=  4 NonCon=     1 RMS=8.80D-05 Max=2.03D-03 NDo=     1
[...]
    19  H    2.910560   4.303300   3.582429   0.000000
    20  H    4.305987   4.439159   2.944850   1.769749   0.000000
    21  H    5.022609   6.501762   5.120573   2.502410   2.526905
    22  H    5.192751   6.072299   4.298648   3.071258   2.456751
    23  H    3.652526   6.231057   5.439711   2.719878   3.851482
    24  H    5.099466   7.180329   5.918461   3.859446   4.317620
    25  H    3.833249   6.073413   5.339989   4.187639   4.995977
    26  H    4.490145   5.752810   4.431025   4.055903   4.197921
    27  H    1.089525   4.223678   5.095868   3.484527   5.060856
                   21         22         23         24         25
    21  H    0.000000
    22  H    1.758704   0.000000
    23  H    2.466588   3.062425   0.000000
    24  H    2.512137   2.457675   1.764212   0.000000
    25  H    4.312095   3.847998   2.439702   2.520942   0.000000
    26  H    3.857297   2.721137   3.061862   2.492396   1.768436
    27  H    5.561696   5.995968   4.044204   5.660915   4.477589
                   26         27
    26  H    0.000000
    27  H    5.379514   0.000000
 Symmetry turned off by external request.
 Stoichiometry    C9H13N3O2
 Framework group  C1[X(C9H13N3O2)]
 Deg. of freedom    75
 Full point group                 C1      NOp   1
 Rotational constants (GHZ):           1.6658381           0.4237605           0.3772306

 **********************************************************************

            Population analysis using the SCF Density.

 **********************************************************************

 Alpha  occ. eigenvalues --  -20.59249 -20.58918 -15.84729 -15.64112 -15.56137
 Alpha  occ. eigenvalues --  -11.34993 -11.29550 -11.29504 -11.28712 -11.27035
 Alpha  occ. eigenvalues --  -11.23727 -11.23219 -11.22650 -11.22043  -1.57130
 Alpha  occ. eigenvalues --   -1.36722  -1.31019  -1.23103  -1.14621  -1.09758
 Alpha  occ. eigenvalues --   -1.02740  -1.01182  -0.94500  -0.89614  -0.85562
 Alpha  occ. eigenvalues --   -0.82422  -0.78676  -0.77368  -0.75101  -0.72065
 Alpha  occ. eigenvalues --   -0.69790  -0.69469  -0.67895  -0.64858  -0.63853
 Alpha  occ. eigenvalues --   -0.62170  -0.60186  -0.57641  -0.56946  -0.55212
 Alpha  occ. eigenvalues --   -0.54396  -0.50661  -0.50091  -0.48671  -0.48094
 Alpha  occ. eigenvalues --   -0.47350  -0.46087  -0.45933  -0.43685  -0.41738
 Alpha  occ. eigenvalues --   -0.39921  -0.33855
 Alpha virt. eigenvalues --    0.07452   0.11744   0.17301   0.21965   0.24191
 Alpha virt. eigenvalues --    0.25710   0.27099   0.28695   0.29019   0.29713
 Alpha virt. eigenvalues --    0.30669   0.31851   0.31999   0.32846   0.34019
 Alpha virt. eigenvalues --    0.34535   0.35824   0.37387   0.38479   0.40213
 Alpha virt. eigenvalues --    0.41449   0.42731   0.45039   0.46060   0.46699
 Alpha virt. eigenvalues --    0.47074   0.49089   0.54113   0.57676   0.59593
 Alpha virt. eigenvalues --    0.63791   0.69675   0.69938   0.73112   0.74393
 Alpha virt. eigenvalues --    0.74908   0.75875   0.76776   0.78707   0.79505
 Alpha virt. eigenvalues --    0.81660   0.84621   0.85380   0.85984   0.88505
 Alpha virt. eigenvalues --    0.89361   0.91188   0.91910   0.92777   0.94598
 Alpha virt. eigenvalues --    0.95714   0.97829   0.99632   1.01870   1.02325
 Alpha virt. eigenvalues --    1.03413   1.06050   1.06890   1.07939   1.08949
 Alpha virt. eigenvalues --    1.10389   1.11576   1.11998   1.12399   1.14003
 Alpha virt. eigenvalues --    1.14842   1.15068   1.15800   1.16926   1.18870
 Alpha virt. eigenvalues --    1.19247   1.21437   1.22368   1.23957   1.24390
 Alpha virt. eigenvalues --    1.24779   1.26154   1.26906   1.27480   1.29678
 Alpha virt. eigenvalues --    1.30146   1.33198   1.35698   1.37284   1.40833
 Alpha virt. eigenvalues --    1.42065   1.47182   1.48890   1.51960   1.54250
 Alpha virt. eigenvalues --    1.57036   1.58568   1.59557   1.63611   1.65266
 Alpha virt. eigenvalues --    1.68006   1.68897   1.73644   1.75288   1.78021
 Alpha virt. eigenvalues --    1.82028   1.84508   1.87863   1.90749   1.93484
 Alpha virt. eigenvalues --    1.95297   1.96767   1.99387   2.01560   2.02807
 Alpha virt. eigenvalues --    2.05569   2.06139   2.08075   2.09723   2.12384
 Alpha virt. eigenvalues --    2.12999   2.15841   2.19241   2.19773   2.22142
 Alpha virt. eigenvalues --    2.22413   2.24760   2.25458   2.28260   2.30129
 Alpha virt. eigenvalues --    2.32273   2.33643   2.34710   2.36397   2.39026
 Alpha virt. eigenvalues --    2.40461   2.41843   2.43928   2.45451   2.47611
 Alpha virt. eigenvalues --    2.50974   2.52369   2.53088   2.56029   2.61355
 Alpha virt. eigenvalues --    2.62718   2.65452   2.67445   2.70255   2.70643
 Alpha virt. eigenvalues --    2.72309   2.72478   2.77089   2.78521   2.83614
 Alpha virt. eigenvalues --    2.89088   2.89588   2.92834   2.93125   2.96156
 Alpha virt. eigenvalues --    2.99225   3.01409   3.04548   3.05725   3.07008
 Alpha virt. eigenvalues --    3.09303   3.15663   3.21210   3.25011   3.27610
 Alpha virt. eigenvalues --    3.33819   3.37402   3.37833   3.51995   3.65516
 Alpha virt. eigenvalues --    4.13799   4.27857   4.35153   4.39102   4.46594
 Alpha virt. eigenvalues --    4.56220   4.61898   4.62562   4.73594   4.80036
 Alpha virt. eigenvalues --    4.99269   5.01320   5.05428   5.11264
          Condensed to atoms (all electrons):
               1          2          3          4          5          6
     1  O    8.316467   0.306987  -0.082825  -0.085330   0.004614  -0.000016
     2  N    0.306987   5.719340   0.301644   0.266412  -0.054057   0.000958
     3  O   -0.082825   0.301644   8.353755  -0.092680   0.003534   0.000789
     4  C   -0.085330   0.266412  -0.092680   5.222485   0.560888  -0.047785
     5  C    0.004614  -0.054057   0.003534   0.560888   4.713194   0.317053
     6  N   -0.000016   0.000958   0.000789  -0.047785   0.317053   7.193957
     7  C    0.000004  -0.000155   0.000002   0.005248  -0.032444   0.170135
     8  H   -0.000000   0.000002  -0.000000  -0.000312   0.003576  -0.051508
     9  C   -0.000000  -0.000006  -0.000000   0.000946   0.000451  -0.056338
    10  C    0.000000   0.000000   0.000000  -0.000042  -0.000057   0.003680
    11  C   -0.000000  -0.000000  -0.000000  -0.000032   0.000023  -0.000149
    12  C   -0.000000   0.000002  -0.000000  -0.000143  -0.000158   0.004035
    13  C   -0.000027  -0.000042  -0.000004  -0.011647  -0.001115  -0.051530
    14  H   -0.000003  -0.000099   0.000001   0.002795   0.006098  -0.007312
    15  N    0.000381   0.002304  -0.000016  -0.063786  -0.005749   0.001317
    16  C    0.000600  -0.027466   0.002531   0.328806  -0.049402  -0.001400
    17  H    0.000222  -0.007206   0.017374  -0.022759   0.374256  -0.033684
    18  H    0.000001  -0.000051   0.000012   0.001524  -0.030843   0.338905
    19  H    0.000001  -0.000006   0.000000  -0.001368   0.001374  -0.000403
    20  H    0.000000  -0.000000   0.000000  -0.000093   0.000143  -0.000290
    21  H   -0.000000  -0.000000  -0.000000   0.000001   0.000001  -0.000074
    22  H   -0.000000   0.000000  -0.000000  -0.000000  -0.000004  -0.000121
    23  H    0.000000  -0.000000   0.000000   0.000046  -0.000000  -0.000031
    24  H    0.000000   0.000000   0.000000   0.000000  -0.000000   0.000006
    25  H    0.000000  -0.000000   0.000000   0.000025  -0.000001  -0.000098
    26  H    0.000000  -0.000000   0.000000   0.000006  -0.000003  -0.000061
    27  H    0.006070  -0.001021   0.000017  -0.062561   0.002222   0.000006
               7          8          9         10         11         12
     1  O    0.000004  -0.000000  -0.000000   0.000000  -0.000000  -0.000000
     2  N   -0.000155   0.000002  -0.000006   0.000000  -0.000000   0.000002
     3  O    0.000002  -0.000000  -0.000000   0.000000  -0.000000  -0.000000
     4  C    0.005248  -0.000312   0.000946  -0.000042  -0.000032  -0.000143
     5  C   -0.032444   0.003576   0.000451  -0.000057   0.000023  -0.000158
     6  N    0.170135  -0.051508  -0.056338   0.003680  -0.000149   0.004035
     7  C    5.027590   0.420664   0.348439  -0.056241  -0.009059  -0.061569
     8  H    0.420664   0.539046  -0.055128   0.000125  -0.000464  -0.002670
     9  C    0.348439  -0.055128   5.154786   0.325025  -0.049681  -0.005013
    10  C   -0.056241   0.000125   0.325025   5.120285   0.337141  -0.060465
    11  C   -0.009059  -0.000464  -0.049681   0.337141   5.122088   0.336877
    12  C   -0.061569  -0.002670  -0.005013  -0.060465   0.336877   5.116181
    13  C    0.336443  -0.039284  -0.059487   0.000003  -0.050737   0.370875
    14  H   -0.046482  -0.000338   0.004148  -0.000385   0.004113  -0.034728
    15  N   -0.058970   0.003993  -0.016375   0.001658  -0.015484  -0.082971
    16  C   -0.002361   0.000037  -0.001818  -0.000014   0.000024   0.002996
    17  H    0.001636  -0.000050  -0.000060   0.000001   0.000000   0.000000
    18  H   -0.021231  -0.004827   0.001447  -0.000083   0.000004  -0.000121
    19  H   -0.036756   0.004314   0.390875  -0.031639  -0.002174   0.000717
    20  H   -0.042938  -0.001953   0.399579  -0.035285   0.003859  -0.000426
    21  H    0.004775  -0.000044  -0.036600   0.402298  -0.034770   0.004289
    22  H   -0.005383   0.003741  -0.046868   0.398039  -0.045529  -0.000781
    23  H    0.000464   0.000039  -0.001767  -0.038712   0.399071  -0.037259
    24  H   -0.000136  -0.000127   0.004389  -0.038547   0.401953  -0.038857
    25  H    0.005202   0.000010  -0.000426   0.004130  -0.033569   0.398036
    26  H   -0.004402   0.001663   0.001045  -0.001995  -0.041213   0.397270
    27  H   -0.000423   0.000009  -0.000060   0.000007   0.000014  -0.000044
              13         14         15         16         17         18
     1  O   -0.000027  -0.000003   0.000381   0.000600   0.000222   0.000001
     2  N   -0.000042  -0.000099   0.002304  -0.027466  -0.007206  -0.000051
     3  O   -0.000004   0.000001  -0.000016   0.002531   0.017374   0.000012
     4  C   -0.011647   0.002795  -0.063786   0.328806  -0.022759   0.001524
     5  C   -0.001115   0.006098  -0.005749  -0.049402   0.374256  -0.030843
     6  N   -0.051530  -0.007312   0.001317  -0.001400  -0.033684   0.338905
     7  C    0.336443  -0.046482  -0.058970  -0.002361   0.001636  -0.021231
     8  H   -0.039284  -0.000338   0.003993   0.000037  -0.000050  -0.004827
     9  C   -0.059487   0.004148  -0.016375  -0.001818  -0.000060   0.001447
    10  C    0.000003  -0.000385   0.001658  -0.000014   0.000001  -0.000083
    11  C   -0.050737   0.004113  -0.015484   0.000024   0.000000   0.000004
    12  C    0.370875  -0.034728  -0.082971   0.002996   0.000000  -0.000121
    13  C    5.050925   0.403340   0.245420  -0.072424  -0.000015   0.003091
    14  H    0.403340   0.521454  -0.036040  -0.004937   0.000091  -0.000082
    15  N    0.245420  -0.036040   6.967649   0.583263  -0.000077  -0.000140
    16  C   -0.072424  -0.004937   0.583263   4.714967   0.001898  -0.000202
    17  H   -0.000015   0.000091  -0.000077   0.001898   0.374959  -0.002674
    18  H    0.003091  -0.000082  -0.000140  -0.000202  -0.002674   0.308644
    19  H   -0.007406   0.000108   0.007622   0.003238   0.000014  -0.000147
    20  H    0.004315  -0.000060   0.000186  -0.000039   0.000001   0.000699
    21  H   -0.000455   0.000010  -0.000043   0.000005  -0.000000   0.000001
    22  H    0.000018  -0.000053   0.000020  -0.000003   0.000000   0.000001
    23  H   -0.007585  -0.000003   0.008570   0.000088   0.000000   0.000000
    24  H    0.004757  -0.000054   0.000194   0.000008   0.000000  -0.000000
    25  H   -0.035503  -0.002765   0.000371  -0.000050  -0.000000   0.000003
    26  H   -0.047357  -0.000893   0.004903  -0.000071   0.000000  -0.000000
    27  H    0.005192  -0.000173  -0.040148   0.403273  -0.000079   0.000001
              19         20         21         22         23         24
     1  O    0.000001   0.000000  -0.000000  -0.000000   0.000000   0.000000
     2  N   -0.000006  -0.000000  -0.000000   0.000000  -0.000000   0.000000
     3  O    0.000000   0.000000  -0.000000  -0.000000   0.000000   0.000000
     4  C   -0.001368  -0.000093   0.000001  -0.000000   0.000046   0.000000
     5  C    0.001374   0.000143   0.000001  -0.000004  -0.000000  -0.000000
     6  N   -0.000403  -0.000290  -0.000074  -0.000121  -0.000031   0.000006
     7  C   -0.036756  -0.042938   0.004775  -0.005383   0.000464  -0.000136
     8  H    0.004314  -0.001953  -0.000044   0.003741   0.000039  -0.000127
     9  C    0.390875   0.399579  -0.036600  -0.046868  -0.001767   0.004389
    10  C   -0.031639  -0.035285   0.402298   0.398039  -0.038712  -0.038547
    11  C   -0.002174   0.003859  -0.034770  -0.045529   0.399071   0.401953
    12  C    0.000717  -0.000426   0.004289  -0.000781  -0.037259  -0.038857
    13  C   -0.007406   0.004315  -0.000455   0.000018  -0.007585   0.004757
    14  H    0.000108  -0.000060   0.000010  -0.000053  -0.000003  -0.000054
    15  N    0.007622   0.000186  -0.000043   0.000020   0.008570   0.000194
    16  C    0.003238  -0.000039   0.000005  -0.000003   0.000088   0.000008
    17  H    0.000014   0.000001  -0.000000   0.000000   0.000000   0.000000
    18  H   -0.000147   0.000699   0.000001   0.000001   0.000000  -0.000000
    19  H    0.501959  -0.024499  -0.002667   0.003895   0.001418  -0.000069
    20  H   -0.024499   0.540118  -0.002639  -0.003004  -0.000043  -0.000082
    21  H   -0.002667  -0.002639   0.523690  -0.027309  -0.002892  -0.002290
    22  H    0.003895  -0.003004  -0.027309   0.571184   0.004112  -0.003721
    23  H    0.001418  -0.000043  -0.002892   0.004112   0.496331  -0.025487
    24  H   -0.000069  -0.000082  -0.002290  -0.003721  -0.025487   0.539438
    25  H   -0.000024   0.000012  -0.000087  -0.000077  -0.002320  -0.002246
    26  H    0.000013  -0.000028  -0.000079   0.002261   0.003995  -0.003038
    27  H    0.000097   0.000000  -0.000000   0.000000  -0.000038  -0.000000
              25         26         27
     1  O    0.000000   0.000000   0.006070
     2  N   -0.000000  -0.000000  -0.001021
     3  O    0.000000   0.000000   0.000017
     4  C    0.000025   0.000006  -0.062561
     5  C   -0.000001  -0.000003   0.002222
     6  N   -0.000098  -0.000061   0.000006
     7  C    0.005202  -0.004402  -0.000423
     8  H    0.000010   0.001663   0.000009
     9  C   -0.000426   0.001045  -0.000060
    10  C    0.004130  -0.001995   0.000007
    11  C   -0.033569  -0.041213   0.000014
    12  C    0.398036   0.397270  -0.000044
    13  C   -0.035503  -0.047357   0.005192
    14  H   -0.002765  -0.000893  -0.000173
    15  N    0.000371   0.004903  -0.040148
    16  C   -0.000050  -0.000071   0.403273
    17  H   -0.000000   0.000000  -0.000079
    18  H    0.000003  -0.000000   0.000001
    19  H   -0.000024   0.000013   0.000097
    20  H    0.000012  -0.000028   0.000000
    21  H   -0.000087  -0.000079  -0.000000
    22  H   -0.000077   0.002261   0.000000
    23  H   -0.002320   0.003995  -0.000038
    24  H   -0.002246  -0.003038  -0.000000
    25  H    0.507800  -0.024189  -0.000011
    26  H   -0.024189   0.562080   0.000001
    27  H   -0.000011   0.000001   0.438493
 Mulliken charges:
               1
     1  O   -0.467145
     2  N    0.492460
     3  O   -0.504134
     4  C   -0.000643
     5  C    0.186403
     6  N   -0.780043
     7  C    0.057949
     8  H    0.179484
     9  C   -0.301500
    10  C   -0.328927
    11  C   -0.322307
    12  C   -0.306073
    13  C   -0.039762
    14  H    0.192245
    15  N   -0.508052
    16  C    0.118453
    17  H    0.296151
    18  H    0.406069
    19  H    0.191511
    20  H    0.162467
    21  H    0.174879
    22  H    0.149581
    23  H    0.202003
    24  H    0.163908
    25  H    0.185774
    26  H    0.150093
    27  H    0.249155
 Sum of Mulliken charges =  -0.00000
 Mulliken charges with hydrogens summed into heavy atoms:
               1
     1  O   -0.467145
     2  N    0.492460
     3  O   -0.504134
     4  C   -0.000643
     5  C    0.482554
     6  N   -0.373975
     7  C    0.237433
     9  C    0.052478
    10  C   -0.004468
    11  C    0.043605
    12  C    0.029795
    13  C    0.152484
    15  N   -0.508052
    16  C    0.367607
 Electronic spatial extent (au):  <R**2>=           2977.9477
 Charge=              0.0000 electrons
 Dipole moment (field-independent basis, Debye):
    X=              5.3492    Y=              4.7905    Z=              1.4105  Tot=              7.3180
 Quadrupole moment (field-independent basis, Debye-Ang):
   XX=           -105.9566   YY=            -79.3129   ZZ=            -81.3301
   XY=             -1.6020   XZ=             -0.7008   YZ=              2.1311
 Traceless Quadrupole moment (field-independent basis, Debye-Ang):
   XX=            -17.0901   YY=              9.5537   ZZ=              7.5364
   XY=             -1.6020   XZ=             -0.7008   YZ=              2.1311
 Octapole moment (field-independent basis, Debye-Ang**2):
  XXX=             88.3392  YYY=             35.6561  ZZZ=             -0.4444  XYY=             -5.0606
  XXY=              9.1765  XXZ=              7.2745  XZZ=            -10.2061  YZZ=             -0.1172
  YYZ=              9.3694  XYZ=              0.2682
 Hexadecapole moment (field-independent basis, Debye-Ang**3):
 XXXX=          -3328.3097 YYYY=           -597.1190 ZZZZ=           -315.0175 XXXY=            -12.8627
 XXXZ=            -30.5152 YYYX=             -2.7795 YYYZ=             23.9973 ZZZX=             -7.7165
 ZZZY=              3.6580 XXYY=           -619.3064 XXZZ=           -519.7766 YYZZ=           -156.7718
 XXYZ=             -5.4248 YYXZ=             -2.6907 ZZXY=              5.6244
 N-N= 9.330893228651D+02 E-N=-3.412912911855D+03  KE= 6.596301742783D+02
 Unable to Open any file for archive entry.
 1\1\GINC-LOTUS\FOpt\RMP2-FC\6-31G(d)\C9H13N3O2\ALEXEY\30-Jun-2023\0\\#
 MP2/6-31G* SCF=Tight Opt=(ModRedun, MaxCycle=100 ) NoSymm\\MolName:\\0
 ,1\O,-3.4739951552,-1.3775494513,-0.4335223595\N,-3.0935765962,-0.2221
 350537,-0.1615864356\O,-3.8720203967,0.7361526805,0.0085804669\C,-1.66
 00420892,-0.0131746686,-0.0263624704\C,-1.2880197887,1.2648749224,0.30
 79296673\N,-0.0476484992,1.7549946803,0.4540981172\C,1.2034969856,1.01
 93349719,0.3537513494\H,1.885099,1.5429532891,1.0411168284\C,1.8714948
 166,1.0140705314,-1.0180747093\C,3.2753449979,0.4162265161,-0.85211092
 06\C,3.2455551567,-0.9668998964,-0.1935311317\C,2.4651308237,-0.963918
 3406,1.1246401305\C,1.050086827,-0.4222758188,0.882728545\H,0.46170392
 96,-0.3967827526,1.812375145\N,0.430956796,-1.3219113893,-0.0866598014
 \C,-0.8104625859,-1.1280756317,-0.4037368185\H,-2.090363479,1.97911666
 19,0.4709227764\H,0.0145987934,2.7313308302,0.7162086403\H,1.272138363
 7,0.4233130855,-1.7180151723\H,1.9302423626,2.0369970986,-1.4099035178
 \H,3.7712691113,0.3573379903,-1.8277743469\H,3.8762603309,1.1016698184
 ,-0.2378101516\H,2.7694618457,-1.6829369422,-0.8697995452\H,4.27116512
 93,-1.3143096663,-0.0204195823\H,2.3921458191,-1.9817928186,1.52194906
 66\H,2.9769637058,-0.3516433648,1.8796729942\H,-1.2659962048,-1.870977
 2819,-1.0576867642\\Version=ES64L-G16RevC.02\HF=-661.2986687\MP2=-663.
 3341351\RMSD=3.984e-09\RMSF=1.339e-03\Dipole=1.9542386,1.6884188,0.514
 7644\PG=C01 [X(C9H13N3O2)]\\@
 The archive entry for this job was punched.


      THE ONE-EYED VIEW OF OUR UNIVERSE SAYS YOU MUST NOT LOOK
      FAR AFIELD FOR PROBLEMS.  SUCH PROBLEMS MAY NEVER ARRIVE. 
      INSTEAD, TEND TO THE WOLF WITHIN YOUR FENCES.
      THE PACKS RANGING OUTSIDE MAY NOT EVEN EXIST.

                              -- THE AZHAR BOOK SHAMRA I:4
                                 CHILDREN OF DUNE, BY FRANK HERBERT
 Job cpu time:       0 days  1 hours 24 minutes  2.1 seconds.
 Elapsed time:       0 days  0 hours 25 minutes 12.4 seconds.
 File lengths (MBytes):  RWF=     36 Int=      0 D2E=      0 Chk=      7 Scr=      1
 Normal termination of Gaussian 16 at Fri Jun 30 17:02:59 2023.
