 Entering Gaussian System, Link 0=g16
 Initial command:
 /home/alexey/programs//g16/l1.exe "/home/alexey/tmp/Gau-1178200.inp" -scrdir="/home/alexey/tmp/"
 Entering Link 1 = /home/alexey/programs//g16/l1.exe PID=   1178202.
  
 Copyright (c) 1988-2021, Gaussian, Inc.  All Rights Reserved.
  
 This is part of the Gaussian(R) 16 program.  It is based on
 the Gaussian(R) 09 system (copyright 2009, Gaussian, Inc.),
 the Gaussian(R) 03 system (copyright 2003, Gaussian, Inc.),
 the Gaussian(R) 98 system (copyright 1998, Gaussian, Inc.),
 the Gaussian(R) 94 system (copyright 1995, Gaussian, Inc.),
 the Gaussian 92(TM) system (copyright 1992, Gaussian, Inc.),
 the Gaussian 90(TM) system (copyright 1990, Gaussian, Inc.),
 the Gaussian 88(TM) system (copyright 1988, Gaussian, Inc.),
 the Gaussian 86(TM) system (copyright 1986, Carnegie Mellon
 University), and the Gaussian 82(TM) system (copyright 1983,
 Carnegie Mellon University). Gaussian is a federally registered
 trademark of Gaussian, Inc.
  
 This software contains proprietary and confidential information,
 including trade secrets, belonging to Gaussian, Inc.
  
 This software is provided under written license and may be
 used, copied, transmitted, or stored only in accord with that
 written license.
  
 The following legend is applicable only to US Government
 contracts under FAR:
  
                    RESTRICTED RIGHTS LEGEND
  
 Use, reproduction and disclosure by the US Government is
 subject to restrictions as set forth in subparagraphs (a)
 and (c) of the Commercial Computer Software - Restricted
 Rights clause in FAR 52.227-19.
  
 Gaussian, Inc.
 340 Quinnipiac St., Bldg. 40, Wallingford CT 06492
  
  
 ---------------------------------------------------------------
 Warning -- This program may not be used in any manner that
 competes with the business of Gaussian, Inc. or will provide
 assistance to any competitor of Gaussian, Inc.  The licensee
 of this program is prohibited from giving any competitor of
 Gaussian, Inc. access to this program.  By using this program,
 the user acknowledges that Gaussian, Inc. is engaged in the
 business of creating and licensing software in the field of
 computational chemistry and represents and warrants to the
 licensee that it is not a competitor of Gaussian, Inc. and that
 it will not use this program in any manner prohibited above.
 ---------------------------------------------------------------
  

 Cite this work as:
 Gaussian 16, Revision C.02,
 M. J. Frisch, G. W. Trucks, H. B. Schlegel, G. E. Scuseria, 
 M. A. Robb, J. R. Cheeseman, G. Scalmani, V. Barone, 
 G. A. Petersson, H. Nakatsuji, X. Li, M. Caricato, A. V. Marenich, 
 J. Bloino, B. G. Janesko, R. Gomperts, B. Mennucci, H. P. Hratchian, 
 J. V. Ortiz, A. F. Izmaylov, J. L. Sonnenberg, D. Williams-Young, 
 F. Ding, F. Lipparini, F. Egidi, J. Goings, B. Peng, A. Petrone, 
 T. Henderson, D. Ranasinghe, V. G. Zakrzewski, J. Gao, N. Rega, 
 G. Zheng, W. Liang, M. Hada, M. Ehara, K. Toyota, R. Fukuda, 
 J. Hasegawa, M. Ishida, T. Nakajima, Y. Honda, O. Kitao, H. Nakai, 
 T. Vreven, K. Throssell, J. A. Montgomery, Jr., J. E. Peralta, 
 F. Ogliaro, M. J. Bearpark, J. J. Heyd, E. N. Brothers, K. N. Kudin, 
 V. N. Staroverov, T. A. Keith, R. Kobayashi, J. Normand, 
 K. Raghavachari, A. P. Rendell, J. C. Burant, S. S. Iyengar, 
 J. Tomasi, M. Cossi, J. M. Millam, M. Klene, C. Adamo, R. Cammi, 
 J. W. Ochterski, R. L. Martin, K. Morokuma, O. Farkas, 
 J. B. Foresman, and D. J. Fox, Gaussian, Inc., Wallingford CT, 2019.
 
 ******************************************
 Gaussian 16:  ES64L-G16RevC.02  7-Dec-2021
                30-Jun-2023 
 ******************************************
 %mem=8GB
 %NPROCS=4
 Will use up to    4 processors via shared memory.
 %NoSave
 ----------------------------------------------------------
 #MP2/6-31G* SCF=Tight Opt=(ModRedun, MaxCycle=100 ) NoSymm
 ----------------------------------------------------------
 1/6=100,18=120,19=15,38=1/1,3;
 2/9=110,12=2,15=1,17=6,18=5,40=1/2;
 3/5=1,6=6,7=1,11=9,25=1,30=1,71=1/1,2,3;
 4//1;
 5/5=2,32=2,38=5/2;
 8/6=4,10=2/1;
 9/15=2,16=-3/6;
 10/5=1,31=1/2;
 6/7=2,8=2,9=2,10=2/1;
 7/12=2,30=1/1,2,3,16;
 1/6=100,18=20,19=15/3(2);
 2/9=110,15=1/2;
 99//99;
 2/9=110,15=1/2;
 3/5=1,6=6,7=1,11=9,25=1,30=1,71=1/1,2,3;
 4/5=5,16=3,69=1/1;
 5/5=2,32=2,38=5/2;
 8/6=4,10=2/1;
 9/15=2,16=-3/6;
 10/5=1,31=1/2;
 7/12=2,30=1/1,2,3,16;
 1/6=100,18=20,19=15/3(-8);
 2/9=110,15=1/2;
 6/7=2,8=2,9=2,10=2/1;
 99/9=10/99;
 --------
 MolName:
 --------
 Symbolic Z-matrix:
 Charge =  0 Multiplicity = 1
 8                    0    -3.60921  -1.50808   0.16724 
 7                    0    -3.26681  -0.33075   0.25964 
 8                    0    -4.03445   0.58901   0.54429 
 6                    0    -1.80661   0.00116  -0.01168 
 6                    0    -1.38869   1.30967   0.24195 
 7                    0    -0.11189   1.74184   0.0079 
 6                    0     1.1647    1.01534   0.27888 
 1                    0     1.67238   1.53589   1.12633 
 6                    0     2.10068   1.10916  -0.95139 
 6                    0     3.48145   0.49318  -0.66481 
 6                    0     3.35172  -0.95262  -0.16827 
 6                    0     2.3844   -1.0397    1.02547 
 6                    0     0.98413  -0.45948   0.69939 
 1                    0     0.40364  -0.50061   1.65369 
 7                    0     0.30185  -1.30718  -0.28998 
 6                    0    -0.94863  -1.08746  -0.54939 
 1                    0    -2.10948   2.04086   0.64426 
 1                    0     0.1015    2.66674  -0.37288 
 1                    0     1.63502   0.56561  -1.80399 
 1                    0     2.23608   2.17007  -1.25263 
 1                    0     4.10834   0.52114  -1.5831 
 1                    0     3.99292   1.09689   0.11827 
 1                    0     2.95704  -1.58578  -0.99582 
 1                    0     4.34942  -1.35072   0.11828 
 1                    0     2.27797  -2.10167   1.33858 
 1                    0     2.81718  -0.47727   1.88077 
 1                    0    -1.48364  -1.79024  -1.20602 
 
 The following ModRedundant input section has been read:
 D       6       7      13      15 F                                           
 D       1       2       4      16 F                                           
 D       7      13      15      16 F                                           
 D       7       9      10      11 F                                           
 D       9      10      11      12 F                                           
 

 GradGradGradGradGradGradGradGradGradGradGradGradGradGradGradGradGradGrad
 Berny optimization.
 Initialization pass.
                           ----------------------------
                           !    Initial Parameters    !
                           ! (Angstroms and Degrees)  !
 --------------------------                            --------------------------
 ! Name  Definition              Value          Derivative Info.                !
 --------------------------------------------------------------------------------
 ! R1    R(1,2)                  1.2296         estimate D2E/DX2                !
 ! R2    R(2,3)                  1.2314         estimate D2E/DX2                !
 ! R3    R(2,4)                  1.5218         estimate D2E/DX2                !
 ! R4    R(4,5)                  1.3968         estimate D2E/DX2                !
 ! R5    R(4,16)                 1.4867         estimate D2E/DX2                !
 ! R6    R(5,6)                  1.3681         estimate D2E/DX2                !
 ! R7    R(5,17)                 1.1027         estimate D2E/DX2                !
 ! R8    R(6,7)                  1.4936         estimate D2E/DX2                !
 ! R9    R(6,18)                 1.0227         estimate D2E/DX2                !
 ! R10   R(7,8)                  1.1166         estimate D2E/DX2                !
 ! R11   R(7,9)                  1.5487         estimate D2E/DX2                !
 ! R12   R(7,13)                 1.5442         estimate D2E/DX2                !
 ! R13   R(9,10)                 1.5389         estimate D2E/DX2                !
 ! R14   R(9,19)                 1.1132         estimate D2E/DX2                !
 ! R15   R(9,20)                 1.1111         estimate D2E/DX2                !
 ! R16   R(10,11)                1.5342         estimate D2E/DX2                !
 ! R17   R(10,21)                1.1122         estimate D2E/DX2                !
 ! R18   R(10,22)                1.1132         estimate D2E/DX2                !
 ! R19   R(11,12)                1.5389         estimate D2E/DX2                !
 ! R20   R(11,23)                1.1142         estimate D2E/DX2                !
 ! R21   R(11,24)                1.1118         estimate D2E/DX2                !
 ! R22   R(12,13)                1.5504         estimate D2E/DX2                !
 ! R23   R(12,25)                1.1123         estimate D2E/DX2                !
 ! R24   R(12,26)                1.1114         estimate D2E/DX2                !
 ! R25   R(13,14)                1.1177         estimate D2E/DX2                !
 ! R26   R(13,15)                1.4707         estimate D2E/DX2                !
 ! R27   R(15,16)                1.2959         estimate D2E/DX2                !
 ! R28   R(16,27)                1.1006         estimate D2E/DX2                !
 ! A1    A(1,2,3)              123.9848         estimate D2E/DX2                !
 ! A2    A(1,2,4)              117.5565         estimate D2E/DX2                !
 ! A3    A(3,2,4)              118.4549         estimate D2E/DX2                !
 ! A4    A(2,4,5)              117.323          estimate D2E/DX2                !
 ! A5    A(2,4,16)             117.2908         estimate D2E/DX2                !
 ! A6    A(5,4,16)             125.3754         estimate D2E/DX2                !
 ! A7    A(4,5,6)              122.9606         estimate D2E/DX2                !
 ! A8    A(4,5,17)             119.4601         estimate D2E/DX2                !
 ! A9    A(6,5,17)             117.5786         estimate D2E/DX2                !
 ! A10   A(5,6,7)              127.8036         estimate D2E/DX2                !
 ! A11   A(5,6,18)             122.9621         estimate D2E/DX2                !
 ! A12   A(7,6,18)             109.2137         estimate D2E/DX2                !
 ! A13   A(6,7,8)              107.4291         estimate D2E/DX2                !
 ! A14   A(6,7,9)              110.0574         estimate D2E/DX2                !
 ! A15   A(6,7,13)             114.457          estimate D2E/DX2                !
 ! A16   A(8,7,9)              107.4499         estimate D2E/DX2                !
 ! A17   A(8,7,13)             106.9614         estimate D2E/DX2                !
 ! A18   A(9,7,13)             110.1732         estimate D2E/DX2                !
 ! A19   A(7,9,10)             111.7214         estimate D2E/DX2                !
 ! A20   A(7,9,19)             109.0283         estimate D2E/DX2                !
 ! A21   A(7,9,20)             110.2954         estimate D2E/DX2                !
 ! A22   A(10,9,19)            108.8153         estimate D2E/DX2                !
 ! A23   A(10,9,20)            108.8651         estimate D2E/DX2                !
 ! A24   A(19,9,20)            108.0314         estimate D2E/DX2                !
 ! A25   A(9,10,11)            111.2            estimate D2E/DX2                !
 ! A26   A(9,10,21)            109.9936         estimate D2E/DX2                !
 ! A27   A(9,10,22)            109.0365         estimate D2E/DX2                !
 ! A28   A(11,10,21)           109.7898         estimate D2E/DX2                !
 ! A29   A(11,10,22)           108.7989         estimate D2E/DX2                !
 ! A30   A(21,10,22)           107.9498         estimate D2E/DX2                !
 ! A31   A(10,11,12)           110.9486         estimate D2E/DX2                !
 ! A32   A(10,11,23)           108.9708         estimate D2E/DX2                !
 ! A33   A(10,11,24)           110.1811         estimate D2E/DX2                !
 ! A34   A(12,11,23)           108.7424         estimate D2E/DX2                !
 ! A35   A(12,11,24)           110.1139         estimate D2E/DX2                !
 ! A36   A(23,11,24)           107.8081         estimate D2E/DX2                !
 ! A37   A(11,12,13)           112.5432         estimate D2E/DX2                !
 ! A38   A(11,12,25)           109.4226         estimate D2E/DX2                !
 ! A39   A(11,12,26)           108.8782         estimate D2E/DX2                !
 ! A40   A(13,12,25)           109.2748         estimate D2E/DX2                !
 ! A41   A(13,12,26)           108.9153         estimate D2E/DX2                !
 ! A42   A(25,12,26)           107.6859         estimate D2E/DX2                !
 ! A43   A(7,13,12)            108.0043         estimate D2E/DX2                !
 ! A44   A(7,13,14)            109.1699         estimate D2E/DX2                !
 ! A45   A(7,13,15)            114.9327         estimate D2E/DX2                !
 ! A46   A(12,13,14)           106.0046         estimate D2E/DX2                !
 ! A47   A(12,13,15)           110.1678         estimate D2E/DX2                !
 ! A48   A(14,13,15)           108.1926         estimate D2E/DX2                !
 ! A49   A(13,15,16)           118.9866         estimate D2E/DX2                !
 ! A50   A(4,16,15)            127.4907         estimate D2E/DX2                !
 ! A51   A(4,16,27)            113.754          estimate D2E/DX2                !
 ! A52   A(15,16,27)           118.7017         estimate D2E/DX2                !
 ! D1    D(1,2,4,5)           -172.8736         estimate D2E/DX2                !
 ! D2    D(1,2,4,16)             8.2601         Frozen                          !
 ! D3    D(3,2,4,5)              7.8057         estimate D2E/DX2                !
 ! D4    D(3,2,4,16)          -171.0607         estimate D2E/DX2                !
 ! D5    D(2,4,5,6)           -178.3345         estimate D2E/DX2                !
 ! D6    D(2,4,5,17)             1.3462         estimate D2E/DX2                !
 ! D7    D(16,4,5,6)             0.4299         estimate D2E/DX2                !
 ! D8    D(16,4,5,17)         -179.8894         estimate D2E/DX2                !
 ! D9    D(2,4,16,15)         -144.5148         estimate D2E/DX2                !
 ! D10   D(2,4,16,27)           32.7615         estimate D2E/DX2                !
 ! D11   D(5,4,16,15)           36.7204         estimate D2E/DX2                !
 ! D12   D(5,4,16,27)         -146.0032         estimate D2E/DX2                !
 ! D13   D(4,5,6,7)            -40.9814         estimate D2E/DX2                !
 ! D14   D(4,5,6,18)           140.8533         estimate D2E/DX2                !
 ! D15   D(17,5,6,7)           139.3322         estimate D2E/DX2                !
 ! D16   D(17,5,6,18)          -38.8331         estimate D2E/DX2                !
 ! D17   D(5,6,7,8)           -110.0243         estimate D2E/DX2                !
 ! D18   D(5,6,7,9)            133.2822         estimate D2E/DX2                !
 ! D19   D(5,6,7,13)             8.5758         estimate D2E/DX2                !
 ! D20   D(18,6,7,8)            68.3455         estimate D2E/DX2                !
 ! D21   D(18,6,7,9)           -48.3479         estimate D2E/DX2                !
 ! D22   D(18,6,7,13)         -173.0544         estimate D2E/DX2                !
 ! D23   D(6,7,9,10)           174.3735         estimate D2E/DX2                !
 ! D24   D(6,7,9,19)           -65.3197         estimate D2E/DX2                !
 ! D25   D(6,7,9,20)            53.1469         estimate D2E/DX2                !
 ! D26   D(8,7,9,10)            57.693          estimate D2E/DX2                !
 ! D27   D(8,7,9,19)           177.9998         estimate D2E/DX2                !
 ! D28   D(8,7,9,20)           -63.5336         estimate D2E/DX2                !
 ! D29   D(13,7,9,10)          -58.4922         estimate D2E/DX2                !
 ! D30   D(13,7,9,19)           61.8146         estimate D2E/DX2                !
 ! D31   D(13,7,9,20)         -179.7187         estimate D2E/DX2                !
 ! D32   D(6,7,13,12)         -176.5738         estimate D2E/DX2                !
 ! D33   D(6,7,13,14)          -61.7444         estimate D2E/DX2                !
 ! D34   D(6,7,13,15)           59.9997         Frozen                          !
 ! D35   D(8,7,13,12)          -57.7097         estimate D2E/DX2                !
 ! D36   D(8,7,13,14)           57.1197         estimate D2E/DX2                !
 ! D37   D(8,7,13,15)          178.8638         estimate D2E/DX2                !
 ! D38   D(9,7,13,12)           58.7811         estimate D2E/DX2                !
 ! D39   D(9,7,13,14)          173.6105         estimate D2E/DX2                !
 ! D40   D(9,7,13,15)          -64.6455         estimate D2E/DX2                !
 ! D41   D(7,9,10,11)           54.81           Frozen                          !
 ! D42   D(7,9,10,21)          176.6509         estimate D2E/DX2                !
 ! D43   D(7,9,10,22)          -65.1548         estimate D2E/DX2                !
 ! D44   D(19,9,10,11)         -65.6214         estimate D2E/DX2                !
 ! D45   D(19,9,10,21)          56.2195         estimate D2E/DX2                !
 ! D46   D(19,9,10,22)         174.4138         estimate D2E/DX2                !
 ! D47   D(20,9,10,11)         176.8623         estimate D2E/DX2                !
 ! D48   D(20,9,10,21)         -61.2968         estimate D2E/DX2                !
 ! D49   D(20,9,10,22)          56.8975         estimate D2E/DX2                !
 ! D50   D(9,10,11,12)         -52.8203         Frozen                          !
 ! D51   D(9,10,11,23)          66.8771         estimate D2E/DX2                !
 ! D52   D(9,10,11,24)        -175.0303         estimate D2E/DX2                !
 ! D53   D(21,10,11,12)       -174.7797         estimate D2E/DX2                !
 ! D54   D(21,10,11,23)        -55.0823         estimate D2E/DX2                !
 ! D55   D(21,10,11,24)         63.0102         estimate D2E/DX2                !
 ! D56   D(22,10,11,12)         67.2853         estimate D2E/DX2                !
 ! D57   D(22,10,11,23)       -173.0173         estimate D2E/DX2                !
 ! D58   D(22,10,11,24)        -54.9247         estimate D2E/DX2                !
 ! D59   D(10,11,12,13)         56.0704         estimate D2E/DX2                !
 ! D60   D(10,11,12,25)        177.7615         estimate D2E/DX2                !
 ! D61   D(10,11,12,26)        -64.7858         estimate D2E/DX2                !
 ! D62   D(23,11,12,13)        -63.7634         estimate D2E/DX2                !
 ! D63   D(23,11,12,25)         57.9277         estimate D2E/DX2                !
 ! D64   D(23,11,12,26)        175.3804         estimate D2E/DX2                !
 ! D65   D(24,11,12,13)        178.3196         estimate D2E/DX2                !
 ! D66   D(24,11,12,25)        -59.9893         estimate D2E/DX2                !
 ! D67   D(24,11,12,26)         57.4633         estimate D2E/DX2                !
 ! D68   D(11,12,13,7)         -58.6275         estimate D2E/DX2                !
 ! D69   D(11,12,13,14)       -175.5267         estimate D2E/DX2                !
 ! D70   D(11,12,13,15)         67.6419         estimate D2E/DX2                !
 ! D71   D(25,12,13,7)         179.5975         estimate D2E/DX2                !
 ! D72   D(25,12,13,14)         62.6983         estimate D2E/DX2                !
 ! D73   D(25,12,13,15)        -54.1331         estimate D2E/DX2                !
 ! D74   D(26,12,13,7)          62.2076         estimate D2E/DX2                !
 ! D75   D(26,12,13,14)        -54.6916         estimate D2E/DX2                !
 ! D76   D(26,12,13,15)       -171.5231         estimate D2E/DX2                !
 ! D77   D(7,13,15,16)         -67.1596         Frozen                          !
 ! D78   D(12,13,15,16)        170.5735         estimate D2E/DX2                !
 ! D79   D(14,13,15,16)         55.1132         estimate D2E/DX2                !
 ! D80   D(13,15,16,4)           3.7427         estimate D2E/DX2                !
 ! D81   D(13,15,16,27)       -173.4151         estimate D2E/DX2                !
 --------------------------------------------------------------------------------
 Trust Radius=3.00D-01 FncErr=1.00D-07 GrdErr=1.00D-07 EigMax=2.50D+02 EigMin=1.00D-04
 Number of steps in this run=    100 maximum allowed number of steps=    162.
 GradGradGradGradGradGradGradGradGradGradGradGradGradGradGradGradGradGrad

                          Input orientation:                          
 ---------------------------------------------------------------------
 Center     Atomic      Atomic             Coordinates (Angstroms)
 Number     Number       Type             X           Y           Z
 ---------------------------------------------------------------------
      1          8           0       -3.609210   -1.508080    0.167240
      2          7           0       -3.266810   -0.330750    0.259640
      3          8           0       -4.034450    0.589010    0.544290
      4          6           0       -1.806610    0.001160   -0.011680
      5          6           0       -1.388690    1.309670    0.241950
      6          7           0       -0.111890    1.741840    0.007900
      7          6           0        1.164700    1.015340    0.278880
      8          1           0        1.672380    1.535890    1.126330
      9          6           0        2.100680    1.109160   -0.951390
     10          6           0        3.481450    0.493180   -0.664810
     11          6           0        3.351720   -0.952620   -0.168270
     12          6           0        2.384400   -1.039700    1.025470
     13          6           0        0.984130   -0.459480    0.699390
     14          1           0        0.403640   -0.500610    1.653690
     15          7           0        0.301850   -1.307180   -0.289980
     16          6           0       -0.948630   -1.087460   -0.549390
     17          1           0       -2.109480    2.040860    0.644260
     18          1           0        0.101500    2.666740   -0.372880
     19          1           0        1.635020    0.565610   -1.803990
     20          1           0        2.236080    2.170070   -1.252630
     21          1           0        4.108340    0.521140   -1.583100
     22          1           0        3.992920    1.096890    0.118270
     23          1           0        2.957040   -1.585780   -0.995820
     24          1           0        4.349420   -1.350720    0.118280
     25          1           0        2.277970   -2.101670    1.338580
     26          1           0        2.817180   -0.477270    1.880770
     27          1           0       -1.483640   -1.790240   -1.206020
 ---------------------------------------------------------------------
                    Distance matrix (angstroms):
                    1          2          3          4          5
     1  O    0.000000
     2  N    1.229586   0.000000
     3  O    2.172736   1.231363   0.000000
     4  C    2.357792   1.521829   2.370220   0.000000
     5  C    3.588315   2.493717   2.758769   1.396848   0.000000
     6  N    4.776884   3.783189   4.123495   2.429491   1.368126
     7  C    5.400956   4.631480   5.223348   3.153041   2.570563
     8  H    6.170964   5.350803   5.814057   3.969110   3.194284
     9  C    6.379978   5.687696   6.336200   4.168649   3.693233
    10  C    7.414500   6.860939   7.613137   5.350910   5.020671
    11  C    6.991112   6.661439   7.578910   5.248103   5.268560
    12  C    6.072833   5.746763   6.639719   4.441130   4.513275
    13  C    4.741468   4.275563   5.129282   2.916512   2.994899
    14  H    4.396305   3.929940   4.702625   2.812550   2.912485
    15  N    3.942816   3.740432   4.805730   2.496960   3.160503
    16  C    2.787322   2.569260   3.678175   1.486726   2.562441
    17  H    3.882230   2.666811   2.413166   2.163877   1.102738
    18  H    5.611615   4.553080   4.718500   3.297979   2.107207
    19  H    5.973934   5.393512   6.136600   3.921198   3.725898
    20  H    7.050690   6.230799   6.711797   4.752628   4.014102
    21  H    8.169578   7.649460   8.416378   6.142180   5.845505
    22  H    8.036209   7.400123   8.054695   5.903563   5.387235
    23  H    6.668912   6.472062   7.482151   5.116568   5.366663
    24  H    7.960336   7.685524   8.615876   6.304060   6.326047
    25  H    6.031855   5.919869   6.907771   4.788412   5.126815
    26  H    6.730323   6.297973   7.061725   5.018934   4.854712
    27  H    2.546273   2.730928   3.902697   2.177125   3.422729
                    6          7          8          9         10
     6  N    0.000000
     7  C    1.493625   0.000000
     8  H    2.115873   1.116639   0.000000
     9  C    2.493188   1.548685   2.163899   0.000000
    10  C    3.863131   2.555491   2.751029   1.538858   0.000000
    11  C    4.391782   2.975881   3.269381   2.535609   1.534184
    12  C    3.873484   2.503648   2.674100   2.933611   2.531854
    13  C    2.554453   1.544192   2.153478   2.536216   3.000868
    14  H    2.828954   2.183442   2.456653   3.501106   3.979444
    15  N    3.091349   2.542088   3.459383   3.084145   3.673098
    16  C    3.002606   3.094182   4.069361   3.779555   4.705035
    17  H    2.117719   3.450427   3.845758   4.597783   5.947056
    18  H    1.022726   2.069374   2.448288   2.599510   4.029100
    19  H    2.778157   2.182156   3.087007   1.113199   2.170779
    20  H    2.699126   2.196993   2.525746   1.111129   2.169894
    21  H    4.672444   3.517985   3.782146   2.185297   1.112218
    22  H    4.156634   2.833950   2.567842   2.173682   1.113230
    23  H    4.636684   3.406342   3.987317   2.828079   2.169481
    24  H    5.429493   3.970702   4.063893   3.500291   2.183247
    25  H    4.717490   3.475354   3.693729   3.947762   3.492160
    26  H    4.124505   2.743105   2.435685   3.324344   2.804105
    27  H    3.978805   4.133995   5.144265   4.617218   5.491724
                   11         12         13         14         15
    11  C    0.000000
    12  C    1.538930   0.000000
    13  C    2.569339   1.550400   0.000000
    14  H    3.495000   2.146786   1.117743   0.000000
    15  N    3.072822   2.477694   1.470699   2.106839   0.000000
    16  C    4.319311   3.686672   2.385240   2.650771   1.295867
    17  H    6.280592   5.461696   3.978085   3.713999   4.230448
    18  H    4.868836   4.572167   3.420826   3.772318   3.979831
    19  H    2.815610   3.338328   2.782333   3.822129   2.752619
    20  H    3.488794   3.938827   3.506037   4.351674   4.093801
    21  H    2.178574   3.494686   3.991499   5.024498   4.416365
    22  H    2.166503   2.824069   3.436976   4.218110   4.423824
    23  H    1.114227   2.170653   2.834548   3.836320   2.761496
    24  H    1.111755   2.186557   3.529472   4.318489   4.068341
    25  H    2.178039   1.112270   2.186178   2.485116   2.681133
    26  H    2.170312   1.111379   2.180836   2.424311   3.424586
    27  H    5.015899   4.528200   3.389896   3.660999   2.064086
                   16         17         18         19         20
    16  C    0.000000
    17  H    3.543834   0.000000
    18  H    3.902300   2.512913   0.000000
    19  H    3.313896   4.710793   2.968923   0.000000
    20  H    4.609601   4.743288   2.361583   1.799879   0.000000
    21  H    5.406394   6.777313   4.703509   2.483562   2.516652
    22  H    5.443902   6.197341   4.224785   3.088209   2.473372
    23  H    3.962560   6.442981   5.160047   2.651293   3.833033
    24  H    5.346440   7.314155   5.867371   3.838673   4.329153
    25  H    3.873500   6.073908   5.513969   4.171752   4.996387
    26  H    4.523200   5.669384   4.726379   4.007812   4.142980
    27  H    1.100590   4.300295   4.803276   3.953939   5.433465
                   21         22         23         24         25
    21  H    0.000000
    22  H    1.799853   0.000000
    23  H    2.471741   3.083985   0.000000
    24  H    2.540998   2.473436   1.798665   0.000000
    25  H    4.331928   3.828968   2.485297   2.518723   0.000000
    26  H    3.829140   2.639460   3.085956   2.493400   1.795381
    27  H    6.062583   6.331033   4.450351   5.997628   4.552108
                   26         27
    26  H    0.000000
    27  H    5.454284   0.000000
 Symmetry turned off by external request.
 Stoichiometry    C9H13N3O2
 Framework group  C1[X(C9H13N3O2)]
 Deg. of freedom    75
 Full point group                 C1      NOp   1
 Rotational constants (GHZ):           1.7138938           0.3960618           0.3489273
 Standard basis: 6-31G(d) (6D, 7F)
   236 basis functions,   444 primitive gaussians,   236 cartesian basis functions
    52 alpha electrons       52 beta electrons
       nuclear repulsion energy       915.7661417049 Hartrees.
 NAtoms=   27 NActive=   27 NUniq=   27 SFac= 1.00D+00 NAtFMM=   60 NAOKFM=F Big=F
 Integral buffers will be    131072 words long.
 Raffenetti 1 integral format.
 Two-electron integral symmetry is turned off.
 One-electron integrals computed using PRISM.
 NBasis=   236 RedAO= T EigKep=  1.34D-03  NBF=   236
 NBsUse=   236 1.00D-06 EigRej= -1.00D+00 NBFU=   236
 ExpMin= 1.61D-01 ExpMax= 5.48D+03 ExpMxC= 8.25D+02 IAcc=3 IRadAn=         5 AccDes= 0.00D+00
 Harris functional with IExCor=  205 and IRadAn=       5 diagonalized for initial guess.
 HarFok:  IExCor=  205 AccDes= 0.00D+00 IRadAn=         5 IDoV= 1 UseB2=F ITyADJ=14
 ICtDFT=  3500011 ScaDFX=  1.000000  1.000000  1.000000  1.000000
 FoFCou: FMM=F IPFlag=           0 FMFlag=      100000 FMFlg1=           0
         NFxFlg=           0 DoJE=T BraDBF=F KetDBF=T FulRan=T
         wScrn=  0.000000 ICntrl=       500 IOpCl=  0 I1Cent=   200000004 NGrid=           0
         NMat0=    1 NMatS0=      1 NMatT0=    0 NMatD0=    1 NMtDS0=    0 NMtDT0=    0
 Symmetry not used in FoFCou.
 Keep R1 ints in memory in canonical form, NReq=397720213.
 Requested convergence on RMS density matrix=1.00D-08 within 128 cycles.
 Requested convergence on MAX density matrix=1.00D-06.
 Requested convergence on             energy=1.00D-06.
 No special actions if energy rises.
 SCF Done:  E(RHF) =  -661.272577751     A.U. after   16 cycles
            NFock= 16  Conv=0.73D-08     -V/T= 2.0037
 ExpMin= 1.61D-01 ExpMax= 5.48D+03 ExpMxC= 8.25D+02 IAcc=3 IRadAn=         5 AccDes= 0.00D+00
 HarFok:  IExCor=  205 AccDes= 0.00D+00 IRadAn=         5 IDoV=-2 UseB2=F ITyADJ=14
 ICtDFT= 12500011 ScaDFX=  1.000000  1.000000  1.000000  1.000000
 Range of M.O.s used for correlation:    15   236
 NBasis=   236 NAE=    52 NBE=    52 NFC=    14 NFV=     0
 NROrb=    222 NOA=    38 NOB=    38 NVA=   184 NVB=   184
 Fully direct method using O(ONN) memory.
 JobTyp=1 Pass  1:  I=  15 to  52 NPSUse=  4 ParTrn=T ParDer=T DoDerP=T.
 Spin components of T(2) and E(2):
     alpha-alpha T2 =       0.9172411704D-01 E2=     -0.2713189396D+00
     alpha-beta  T2 =       0.5002472779D+00 E2=     -0.1493696829D+01
     beta-beta   T2 =       0.9172411704D-01 E2=     -0.2713189396D+00
 ANorm=    0.1297572931D+01
 E2 =    -0.2036334708D+01 EUMP2 =    -0.66330891245903D+03
          IDoAtm=111111111111111111111111111
          Differentiating once with respect to electric field.
                with respect to dipole field.
          Differentiating once with respect to nuclear coordinates.
 Keep R1 ints in memory in canonical form, NReq=397723379.
          There are     1 degrees of freedom in the 1st order CPHF.  IDoFFX=0 NUNeed=     1.
 LinEq1:  Iter=  0 NonCon=     1 RMS=4.55D-03 Max=1.05D-01 NDo=     1
 AX will form     1 AO Fock derivatives at one time.
 LinEq1:  Iter=  1 NonCon=     1 RMS=1.53D-03 Max=3.01D-02 NDo=     1
 LinEq1:  Iter=  2 NonCon=     1 RMS=6.36D-04 Max=1.66D-02 NDo=     1
 LinEq1:  Iter=  3 NonCon=     1 RMS=2.98D-04 Max=9.13D-03 NDo=     1
 LinEq1:  Iter=  4 NonCon=     1 RMS=9.19D-05 Max=2.04D-03 NDo=     1
 LinEq1:  Iter=  5 NonCon=     1 RMS=3.95D-05 Max=2.10D-03 NDo=     1
 LinEq1:  Iter=  6 NonCon=     1 RMS=1.63D-05 Max=6.02D-04 NDo=     1
 LinEq1:  Iter=  7 NonCon=     1 RMS=6.45D-06 Max=1.23D-04 NDo=     1
 LinEq1:  Iter=  8 NonCon=     1 RMS=2.62D-06 Max=6.99D-05 NDo=     1
 LinEq1:  Iter=  9 NonCon=     1 RMS=1.02D-06 Max=2.87D-05 NDo=     1
 LinEq1:  Iter= 10 NonCon=     1 RMS=4.87D-07 Max=1.42D-05 NDo=     1
 LinEq1:  Iter= 11 NonCon=     1 RMS=1.64D-07 Max=5.88D-06 NDo=     1
 LinEq1:  Iter= 12 NonCon=     1 RMS=5.62D-08 Max=8.75D-07 NDo=     1
 LinEq1:  Iter= 13 NonCon=     1 RMS=1.79D-08 Max=3.17D-07 NDo=     1
 LinEq1:  Iter= 14 NonCon=     1 RMS=6.10D-09 Max=1.53D-07 NDo=     1
 LinEq1:  Iter= 15 NonCon=     1 RMS=2.44D-09 Max=5.58D-08 NDo=     1
 LinEq1:  Iter= 16 NonCon=     1 RMS=9.20D-10 Max=1.84D-08 NDo=     1
 LinEq1:  Iter= 17 NonCon=     1 RMS=2.74D-10 Max=3.98D-09 NDo=     1
 LinEq1:  Iter= 18 NonCon=     1 RMS=9.01D-11 Max=1.46D-09 NDo=     1
 LinEq1:  Iter= 19 NonCon=     0 RMS=2.77D-11 Max=5.37D-10 NDo=     1
 Linear equations converged to 1.000D-10 1.000D-09 after    19 iterations.
 End of Minotr F.D. properties file   721 does not exist.
 End of Minotr F.D. properties file   722 does not exist.
 End of Minotr F.D. properties file   788 does not exist.

 **********************************************************************

            Population analysis using the SCF Density.

 **********************************************************************

 Alpha  occ. eigenvalues --  -20.60122 -20.59620 -15.85449 -15.61661 -15.57661
 Alpha  occ. eigenvalues --  -11.35341 -11.30712 -11.30383 -11.30061 -11.27994
 Alpha  occ. eigenvalues --  -11.24503 -11.23784 -11.23591 -11.22930  -1.58730
 Alpha  occ. eigenvalues --   -1.38255  -1.28071  -1.22570  -1.13266  -1.08422
 Alpha  occ. eigenvalues --   -1.01900  -1.00644  -0.93282  -0.89074  -0.84874
 Alpha  occ. eigenvalues --   -0.81600  -0.78311  -0.76691  -0.73971  -0.70915
 Alpha  occ. eigenvalues --   -0.70429  -0.69928  -0.67201  -0.64542  -0.63847
 Alpha  occ. eigenvalues --   -0.61857  -0.60915  -0.57675  -0.55906  -0.55051
 Alpha  occ. eigenvalues --   -0.53041  -0.50684  -0.49071  -0.48554  -0.47664
 Alpha  occ. eigenvalues --   -0.47235  -0.46109  -0.45626  -0.44136  -0.41876
 Alpha  occ. eigenvalues --   -0.40400  -0.34097
 Alpha virt. eigenvalues --    0.06405   0.11609   0.19239   0.21135   0.22993
 Alpha virt. eigenvalues --    0.23978   0.26219   0.27601   0.28449   0.29247
 Alpha virt. eigenvalues --    0.30000   0.30732   0.31615   0.32466   0.32978
 Alpha virt. eigenvalues --    0.33147   0.34429   0.36155   0.38027   0.38756
 Alpha virt. eigenvalues --    0.40324   0.42269   0.44188   0.45408   0.45675
 Alpha virt. eigenvalues --    0.46596   0.48951   0.52564   0.57629   0.58672
 Alpha virt. eigenvalues --    0.63363   0.68558   0.70768   0.71940   0.73607
 Alpha virt. eigenvalues --    0.75043   0.75591   0.75787   0.76711   0.79765
 Alpha virt. eigenvalues --    0.80074   0.82920   0.84053   0.85690   0.87964
 Alpha virt. eigenvalues --    0.88998   0.90928   0.91734   0.92821   0.93592
 Alpha virt. eigenvalues --    0.96413   0.97330   0.98714   0.99132   1.01031
 Alpha virt. eigenvalues --    1.02471   1.04370   1.05502   1.06652   1.08159
 Alpha virt. eigenvalues --    1.09155   1.10099   1.10559   1.11466   1.12816
 Alpha virt. eigenvalues --    1.13723   1.14348   1.15067   1.15453   1.17243
 Alpha virt. eigenvalues --    1.18303   1.19228   1.20850   1.21841   1.22227
 Alpha virt. eigenvalues --    1.23306   1.24994   1.25424   1.26407   1.27585
 Alpha virt. eigenvalues --    1.27862   1.31589   1.34587   1.37103   1.41442
 Alpha virt. eigenvalues --    1.43581   1.43838   1.45633   1.48289   1.49459
 Alpha virt. eigenvalues --    1.52463   1.55335   1.60452   1.62377   1.66665
 Alpha virt. eigenvalues --    1.67976   1.68889   1.71895   1.73258   1.74916
 Alpha virt. eigenvalues --    1.78882   1.82115   1.83646   1.87672   1.91876
 Alpha virt. eigenvalues --    1.93712   1.95639   1.96523   1.99772   2.01128
 Alpha virt. eigenvalues --    2.03522   2.04358   2.05880   2.08600   2.11453
 Alpha virt. eigenvalues --    2.11806   2.16152   2.16818   2.18279   2.19329
 Alpha virt. eigenvalues --    2.21148   2.22758   2.23834   2.25237   2.27499
 Alpha virt. eigenvalues --    2.30248   2.31415   2.33781   2.35317   2.36624
 Alpha virt. eigenvalues --    2.38203   2.38824   2.40706   2.42760   2.45474
 Alpha virt. eigenvalues --    2.48329   2.50184   2.53685   2.54766   2.57977
 Alpha virt. eigenvalues --    2.61487   2.62312   2.68165   2.68423   2.69291
 Alpha virt. eigenvalues --    2.70760   2.71263   2.75955   2.78676   2.80021
 Alpha virt. eigenvalues --    2.82000   2.85007   2.91343   2.92240   2.94089
 Alpha virt. eigenvalues --    2.97662   2.98750   3.02069   3.02596   3.06448
 Alpha virt. eigenvalues --    3.08228   3.11419   3.20022   3.22223   3.24954
 Alpha virt. eigenvalues --    3.27811   3.34795   3.36150   3.42945   3.57780
 Alpha virt. eigenvalues --    4.08597   4.22853   4.32784   4.37064   4.40334
 Alpha virt. eigenvalues --    4.53010   4.58007   4.60564   4.69834   4.77110
 Alpha virt. eigenvalues --    4.93361   4.98575   5.02178   5.10638
          Condensed to atoms (all electrons):
               1          2          3          4          5          6
     1  O    8.297158   0.313043  -0.088479  -0.079698   0.003190  -0.000020
     2  N    0.313043   5.698214   0.307390   0.254752  -0.042428   0.001118
     3  O   -0.088479   0.307390   8.325922  -0.084669   0.007235   0.000397
     4  C   -0.079698   0.254752  -0.084669   5.223036   0.586000  -0.059749
     5  C    0.003190  -0.042428   0.007235   0.586000   4.660661   0.304155
     6  N   -0.000020   0.001118   0.000397  -0.059749   0.304155   7.229086
     7  C    0.000003  -0.000082   0.000001   0.000851  -0.029749   0.205211
     8  H   -0.000000   0.000004  -0.000000   0.000282  -0.000351  -0.051576
     9  C   -0.000000  -0.000001   0.000000   0.000062   0.003377  -0.064082
    10  C   -0.000000   0.000000  -0.000000  -0.000002  -0.000086   0.003482
    11  C    0.000000  -0.000000  -0.000000  -0.000020   0.000015  -0.000206
    12  C   -0.000000   0.000003  -0.000000   0.000101  -0.000063   0.003053
    13  C   -0.000019  -0.000074  -0.000003  -0.014838   0.001570  -0.039813
    14  H   -0.000010  -0.000035  -0.000001   0.003575   0.006378  -0.004956
    15  N   -0.000002   0.001691  -0.000015  -0.057597  -0.006535   0.003639
    16  C    0.005416  -0.030350   0.001852   0.321672  -0.040852  -0.002964
    17  H    0.000069  -0.002556   0.009176  -0.034805   0.382580  -0.036746
    18  H    0.000000  -0.000037   0.000008   0.000899  -0.022402   0.327002
    19  H    0.000000   0.000001   0.000000  -0.000192  -0.000164   0.001353
    20  H    0.000000  -0.000000   0.000000  -0.000012   0.000049  -0.003249
    21  H   -0.000000  -0.000000   0.000000  -0.000000   0.000001  -0.000061
    22  H   -0.000000   0.000000  -0.000000   0.000000  -0.000003  -0.000088
    23  H    0.000000  -0.000000   0.000000   0.000015   0.000000  -0.000027
    24  H   -0.000000   0.000000   0.000000   0.000000  -0.000000   0.000004
    25  H    0.000000  -0.000000   0.000000   0.000017  -0.000000  -0.000055
    26  H   -0.000000  -0.000000   0.000000   0.000010  -0.000001  -0.000047
    27  H    0.004061   0.000243  -0.000019  -0.065158   0.002018   0.000167
               7          8          9         10         11         12
     1  O    0.000003  -0.000000  -0.000000  -0.000000   0.000000  -0.000000
     2  N   -0.000082   0.000004  -0.000001   0.000000  -0.000000   0.000003
     3  O    0.000001  -0.000000   0.000000  -0.000000  -0.000000  -0.000000
     4  C    0.000851   0.000282   0.000062  -0.000002  -0.000020   0.000101
     5  C   -0.029749  -0.000351   0.003377  -0.000086   0.000015  -0.000063
     6  N    0.205211  -0.051576  -0.064082   0.003482  -0.000206   0.003053
     7  C    4.945790   0.411990   0.344608  -0.045840  -0.007556  -0.057159
     8  H    0.411990   0.556952  -0.059306   0.002452  -0.000056  -0.000520
     9  C    0.344608  -0.059306   5.188297   0.319759  -0.053903  -0.007551
    10  C   -0.045840   0.002452   0.319759   5.121811   0.333355  -0.060230
    11  C   -0.007556  -0.000056  -0.053903   0.333355   5.122325   0.328290
    12  C   -0.057159  -0.000520  -0.007551  -0.060230   0.328290   5.134253
    13  C    0.340401  -0.042619  -0.046790  -0.003392  -0.049014   0.362475
    14  H   -0.041706  -0.001800   0.004504  -0.000426   0.004245  -0.044592
    15  N   -0.055221   0.003800  -0.008256   0.001041  -0.003695  -0.066985
    16  C   -0.002608   0.000003  -0.000157  -0.000022   0.000000   0.002439
    17  H    0.001612   0.000053  -0.000075   0.000001   0.000000   0.000001
    18  H   -0.026421  -0.000742  -0.000393  -0.000115   0.000010  -0.000099
    19  H   -0.035995   0.004328   0.385287  -0.034745  -0.002375   0.000677
    20  H   -0.040194  -0.002566   0.396825  -0.036880   0.004206  -0.000325
    21  H    0.003706  -0.000121  -0.035506   0.401286  -0.036891   0.004347
    22  H   -0.003094   0.003025  -0.046230   0.394857  -0.045055  -0.001871
    23  H    0.000682   0.000026  -0.002502  -0.041141   0.397380  -0.039163
    24  H   -0.000129  -0.000046   0.004331  -0.038210   0.401024  -0.037349
    25  H    0.004411  -0.000107  -0.000318   0.004208  -0.034357   0.396736
    26  H   -0.002732   0.001842   0.000611  -0.002802  -0.043296   0.394016
    27  H   -0.000376   0.000009  -0.000032   0.000003   0.000002  -0.000008
              13         14         15         16         17         18
     1  O   -0.000019  -0.000010  -0.000002   0.005416   0.000069   0.000000
     2  N   -0.000074  -0.000035   0.001691  -0.030350  -0.002556  -0.000037
     3  O   -0.000003  -0.000001  -0.000015   0.001852   0.009176   0.000008
     4  C   -0.014838   0.003575  -0.057597   0.321672  -0.034805   0.000899
     5  C    0.001570   0.006378  -0.006535  -0.040852   0.382580  -0.022402
     6  N   -0.039813  -0.004956   0.003639  -0.002964  -0.036746   0.327002
     7  C    0.340401  -0.041706  -0.055221  -0.002608   0.001612  -0.026421
     8  H   -0.042619  -0.001800   0.003800   0.000003   0.000053  -0.000742
     9  C   -0.046790   0.004504  -0.008256  -0.000157  -0.000075  -0.000393
    10  C   -0.003392  -0.000426   0.001041  -0.000022   0.000001  -0.000115
    11  C   -0.049014   0.004245  -0.003695   0.000000   0.000000   0.000010
    12  C    0.362475  -0.044592  -0.066985   0.002439   0.000001  -0.000099
    13  C    5.037019   0.400072   0.234928  -0.067499  -0.000098   0.003145
    14  H    0.400072   0.538575  -0.040100  -0.005332   0.000130  -0.000046
    15  N    0.234928  -0.040100   6.912670   0.584341  -0.000092  -0.000073
    16  C   -0.067499  -0.005332   0.584341   4.700040   0.001636  -0.000203
    17  H   -0.000098   0.000130  -0.000092   0.001636   0.399864  -0.001367
    18  H    0.003145  -0.000046  -0.000073  -0.000203  -0.001367   0.319619
    19  H   -0.006885   0.000060   0.006256   0.001750   0.000008  -0.000015
    20  H    0.004002  -0.000063  -0.000027  -0.000027   0.000001   0.003990
    21  H   -0.000314   0.000010  -0.000017   0.000001  -0.000000  -0.000002
    22  H    0.000323  -0.000056   0.000006  -0.000000  -0.000000   0.000003
    23  H   -0.005722   0.000005   0.005896   0.000039   0.000000   0.000000
    24  H    0.004087  -0.000066  -0.000026   0.000003   0.000000  -0.000000
    25  H   -0.033867  -0.002548   0.000365  -0.000001  -0.000000   0.000002
    26  H   -0.044507  -0.001662   0.003953  -0.000067   0.000000  -0.000000
    27  H    0.004626  -0.000186  -0.038832   0.402000  -0.000053   0.000006
              19         20         21         22         23         24
     1  O    0.000000   0.000000  -0.000000  -0.000000   0.000000  -0.000000
     2  N    0.000001  -0.000000  -0.000000   0.000000  -0.000000   0.000000
     3  O    0.000000   0.000000   0.000000  -0.000000   0.000000   0.000000
     4  C   -0.000192  -0.000012  -0.000000   0.000000   0.000015   0.000000
     5  C   -0.000164   0.000049   0.000001  -0.000003   0.000000  -0.000000
     6  N    0.001353  -0.003249  -0.000061  -0.000088  -0.000027   0.000004
     7  C   -0.035995  -0.040194   0.003706  -0.003094   0.000682  -0.000129
     8  H    0.004328  -0.002566  -0.000121   0.003025   0.000026  -0.000046
     9  C    0.385287   0.396825  -0.035506  -0.046230  -0.002502   0.004331
    10  C   -0.034745  -0.036880   0.401286   0.394857  -0.041141  -0.038210
    11  C   -0.002375   0.004206  -0.036891  -0.045055   0.397380   0.401024
    12  C    0.000677  -0.000325   0.004347  -0.001871  -0.039163  -0.037349
    13  C   -0.006885   0.004002  -0.000314   0.000323  -0.005722   0.004087
    14  H    0.000060  -0.000063   0.000010  -0.000056   0.000005  -0.000066
    15  N    0.006256  -0.000027  -0.000017   0.000006   0.005896  -0.000026
    16  C    0.001750  -0.000027   0.000001  -0.000000   0.000039   0.000003
    17  H    0.000008   0.000001  -0.000000  -0.000000   0.000000   0.000000
    18  H   -0.000015   0.003990  -0.000002   0.000003   0.000000  -0.000000
    19  H    0.514754  -0.024795  -0.002857   0.003998   0.001990  -0.000061
    20  H   -0.024795   0.552352  -0.002671  -0.002997  -0.000057  -0.000089
    21  H   -0.002857  -0.002671   0.527471  -0.024894  -0.002879  -0.002033
    22  H    0.003998  -0.002997  -0.024894   0.569501   0.004160  -0.003381
    23  H    0.001990  -0.000057  -0.002879   0.004160   0.518731  -0.024517
    24  H   -0.000061  -0.000089  -0.002033  -0.003381  -0.024517   0.537226
    25  H   -0.000041   0.000010  -0.000086  -0.000093  -0.002275  -0.002325
    26  H    0.000046  -0.000039  -0.000081   0.002812   0.004091  -0.002824
    27  H    0.000034  -0.000000  -0.000000   0.000000  -0.000012  -0.000000
              25         26         27
     1  O    0.000000  -0.000000   0.004061
     2  N   -0.000000  -0.000000   0.000243
     3  O    0.000000   0.000000  -0.000019
     4  C    0.000017   0.000010  -0.065158
     5  C   -0.000000  -0.000001   0.002018
     6  N   -0.000055  -0.000047   0.000167
     7  C    0.004411  -0.002732  -0.000376
     8  H   -0.000107   0.001842   0.000009
     9  C   -0.000318   0.000611  -0.000032
    10  C    0.004208  -0.002802   0.000003
    11  C   -0.034357  -0.043296   0.000002
    12  C    0.396736   0.394016  -0.000008
    13  C   -0.033867  -0.044507   0.004626
    14  H   -0.002548  -0.001662  -0.000186
    15  N    0.000365   0.003953  -0.038832
    16  C   -0.000001  -0.000067   0.402000
    17  H   -0.000000   0.000000  -0.000053
    18  H    0.000002  -0.000000   0.000006
    19  H   -0.000041   0.000046   0.000034
    20  H    0.000010  -0.000039  -0.000000
    21  H   -0.000086  -0.000081  -0.000000
    22  H   -0.000093   0.002812   0.000000
    23  H   -0.002275   0.004091  -0.000012
    24  H   -0.002325  -0.002824  -0.000000
    25  H    0.507217  -0.023171  -0.000011
    26  H   -0.023171   0.560172   0.000001
    27  H   -0.000011   0.000001   0.456721
 Mulliken charges:
               1
     1  O   -0.454712
     2  N    0.499106
     3  O   -0.478796
     4  C    0.005467
     5  C    0.185406
     6  N   -0.815028
     7  C    0.089596
     8  H    0.175043
     9  C   -0.322559
    10  C   -0.318364
    11  C   -0.314429
    12  C   -0.310476
    13  C   -0.037194
    14  H    0.186033
    15  N   -0.481113
    16  C    0.128890
    17  H    0.280662
    18  H    0.397232
    19  H    0.187584
    20  H    0.152557
    21  H    0.171594
    22  H    0.149075
    23  H    0.185280
    24  H    0.164380
    25  H    0.186289
    26  H    0.153677
    27  H    0.234801
 Sum of Mulliken charges =  -0.00000
 Mulliken charges with hydrogens summed into heavy atoms:
               1
     1  O   -0.454712
     2  N    0.499106
     3  O   -0.478796
     4  C    0.005467
     5  C    0.466068
     6  N   -0.417797
     7  C    0.264640
     9  C    0.017581
    10  C    0.002305
    11  C    0.035230
    12  C    0.029490
    13  C    0.148839
    15  N   -0.481113
    16  C    0.363691
 Electronic spatial extent (au):  <R**2>=           3158.0510
 Charge=              0.0000 electrons
 Dipole moment (field-independent basis, Debye):
    X=              5.1730    Y=              4.2376    Z=             -0.0760  Tot=              6.6875
 Quadrupole moment (field-independent basis, Debye-Ang):
   XX=           -104.5169   YY=            -81.1625   ZZ=            -82.1937
   XY=             -2.4818   XZ=              3.9194   YZ=             -0.6903
 Traceless Quadrupole moment (field-independent basis, Debye-Ang):
   XX=            -15.2259   YY=              8.1285   ZZ=              7.0974
   XY=             -2.4818   XZ=              3.9194   YZ=             -0.6903
 Octapole moment (field-independent basis, Debye-Ang**2):
  XXX=             99.9311  YYY=             35.4534  ZZZ=             -8.7499  XYY=             -0.4166
  XXY=             12.2235  XXZ=            -16.4971  XZZ=             -7.2237  YZZ=             -0.8470
  YYZ=             -4.9792  XYZ=             -4.0747
 Hexadecapole moment (field-independent basis, Debye-Ang**3):
 XXXX=          -3592.4674 YYYY=           -641.2198 ZZZZ=           -285.7195 XXXY=            -69.4753
 XXXZ=            147.8887 YYYX=            -45.8639 YYYZ=             13.5519 ZZZX=             83.4772
 ZZZY=             26.6010 XXYY=           -668.5546 XXZZ=           -554.6271 YYZZ=           -160.3790
 XXYZ=             10.2786 YYXZ=             34.7704 ZZXY=             -2.3101
 N-N= 9.157661417049D+02 E-N=-3.377535149407D+03  KE= 6.588623517309D+02
 Calling FoFJK, ICntrl=  10002127 FMM=F ISym2X=0 I1Cent= 0 IOpClX= 0 NMat=1 NMatS=1 NMatT=0.
 -------------------------------------------------------------------
 Center     Atomic                   Forces (Hartrees/Bohr)
 Number     Number              X              Y              Z
 -------------------------------------------------------------------
      1        8           0.001802920   -0.020146699   -0.004705775
      2        7           0.036886561    0.014391068   -0.003534178
      3        8          -0.005260896    0.014673251    0.003675162
      4        6          -0.002720219    0.014290561    0.013176824
      5        6          -0.007259852   -0.021378520   -0.008304470
      6        7           0.022976432   -0.011396718    0.004383958
      7        6           0.000548872   -0.001061846   -0.011885748
      8        1          -0.005052797   -0.003553124   -0.005640571
      9        6          -0.001519180   -0.003036657   -0.004968421
     10        6           0.003929524    0.001517408    0.003325838
     11        6          -0.003007124   -0.005004628   -0.004918608
     12        6           0.002415228   -0.005121550   -0.002746908
     13        6          -0.004147480    0.002083797    0.015224086
     14        1           0.000889216    0.004093526   -0.009292882
     15        7           0.001620985    0.006722902   -0.006373184
     16        6          -0.015548605    0.004284021    0.009326095
     17        1           0.002519786   -0.004920352   -0.011957714
     18        1          -0.015040852   -0.000583128    0.011594707
     19        1           0.001857484    0.006924968    0.008756010
     20        1          -0.003707044   -0.007287251    0.001847750
     21        1          -0.005509295    0.002228633    0.009328885
     22        1          -0.002687402   -0.004006216   -0.007956570
     23        1           0.004466673    0.005262411    0.009128946
     24        1          -0.009408992    0.002755433   -0.002945559
     25        1          -0.001377975    0.011215999   -0.001828917
     26        1          -0.005073817   -0.004646559   -0.005169386
     27        1           0.007407847    0.001699271    0.002460632
 -------------------------------------------------------------------
 Cartesian Forces:  Max     0.036886561 RMS     0.008974453

 GradGradGradGradGradGradGradGradGradGradGradGradGradGradGradGradGradGrad
 Berny optimization.
 FormGI is forming the generalized inverse of G from B-inverse, IUseBI=4.
 Internal  Forces:  Max     0.036518166 RMS     0.006533047
 Search for a local minimum.
 Step number   1 out of a maximum of  100
 All quantities printed in internal units (Hartrees-Bohrs-Radians)
 Mixed Optimization -- RFO/linear search
 Second derivative matrix not updated -- first step.
 ITU=  0
     Eigenvalues ---    0.00231   0.00764   0.01030   0.01160   0.01201
     Eigenvalues ---    0.01502   0.01547   0.01914   0.02031   0.02111
     Eigenvalues ---    0.02122   0.02637   0.03666   0.04606   0.04748
     Eigenvalues ---    0.04840   0.05037   0.05152   0.05285   0.05793
     Eigenvalues ---    0.06457   0.07138   0.07857   0.07987   0.08011
     Eigenvalues ---    0.08074   0.08213   0.08303   0.10535   0.11830
     Eigenvalues ---    0.12467   0.14254   0.15837   0.15993   0.16000
     Eigenvalues ---    0.16027   0.20007   0.20613   0.22913   0.24994
     Eigenvalues ---    0.25000   0.25000   0.25438   0.26108   0.26797
     Eigenvalues ---    0.28255   0.28283   0.28545   0.30191   0.31082
     Eigenvalues ---    0.31794   0.31907   0.32157   0.32260   0.32264
     Eigenvalues ---    0.32361   0.32366   0.32415   0.32454   0.32481
     Eigenvalues ---    0.33012   0.33381   0.33617   0.34632   0.43906
     Eigenvalues ---    0.44436   0.48777   0.65412   0.90521   0.91259
     Eigenvalues --- 1000.000001000.000001000.000001000.000001000.00000
     Eigenvalues --- 1000.000001000.000001000.000001000.000001000.00000
     Eigenvalues --- 1000.000001000.000001000.000001000.000001000.00000
     Eigenvalues --- 1000.000001000.000001000.000001000.000001000.00000
     Eigenvalues --- 1000.000001000.000001000.000001000.000001000.00000
     Eigenvalues --- 1000.000001000.000001000.000001000.000001000.00000
     Eigenvalues --- 1000.000001000.000001000.000001000.000001000.00000
     Eigenvalues --- 1000.000001000.000001000.000001000.000001000.00000
     Eigenvalues --- 1000.000001000.000001000.000001000.000001000.00000
     Eigenvalues --- 1000.000001000.000001000.000001000.000001000.00000
     Eigenvalues --- 1000.000001000.000001000.000001000.000001000.00000
     Eigenvalues --- 1000.000001000.000001000.000001000.000001000.00000
     Eigenvalues --- 1000.000001000.000001000.000001000.000001000.00000
     Eigenvalues --- 1000.000001000.000001000.000001000.000001000.00000
     Eigenvalues --- 1000.000001000.000001000.000001000.000001000.00000
     Eigenvalues --- 1000.000001000.000001000.000001000.000001000.00000
     Eigenvalues --- 1000.000001000.000001000.000001000.000001000.00000
     Eigenvalues --- 1000.000001000.000001000.000001000.000001000.00000
     Eigenvalues --- 1000.00000
 RFO step:  Lambda=-2.29764737D-02 EMin= 2.30512678D-03
 Linear search not attempted -- first point.
 Iteration  1 RMS(Cart)=  0.04902059 RMS(Int)=  0.00117202
 Iteration  2 RMS(Cart)=  0.00139704 RMS(Int)=  0.00021266
 Iteration  3 RMS(Cart)=  0.00000164 RMS(Int)=  0.00021266
 Iteration  4 RMS(Cart)=  0.00000000 RMS(Int)=  0.00021266
 Iteration  1 RMS(Cart)=  0.00002935 RMS(Int)=  0.00001716
 Iteration  2 RMS(Cart)=  0.00001619 RMS(Int)=  0.00001913
 Iteration  3 RMS(Cart)=  0.00000917 RMS(Int)=  0.00002150
 Iteration  4 RMS(Cart)=  0.00000530 RMS(Int)=  0.00002308
 Iteration  5 RMS(Cart)=  0.00000312 RMS(Int)=  0.00002403
 Iteration  6 RMS(Cart)=  0.00000187 RMS(Int)=  0.00002459
 Iteration  7 RMS(Cart)=  0.00000115 RMS(Int)=  0.00002493
 Iteration  8 RMS(Cart)=  0.00000073 RMS(Int)=  0.00002513
 Variable       Old X    -DE/DX   Delta X   Delta X   Delta X     New X
                                 (Linear)    (Quad)   (Total)
    R1        2.32358   0.01914   0.00000   0.02046   0.02046   2.34404
    R2        2.32694   0.01509   0.00000   0.01626   0.01626   2.34320
    R3        2.87584  -0.03483   0.00000  -0.10722  -0.10722   2.76862
    R4        2.63966  -0.03652   0.00000  -0.07936  -0.07925   2.56041
    R5        2.80951  -0.01768   0.00000  -0.05414  -0.05392   2.75558
    R6        2.58538  -0.01167   0.00000  -0.02228  -0.02236   2.56303
    R7        2.08387  -0.00927   0.00000  -0.02599  -0.02599   2.05788
    R8        2.82254  -0.01865   0.00000  -0.04957  -0.04968   2.77286
    R9        1.93267  -0.00798   0.00000  -0.01728  -0.01728   1.91540
   R10        2.11014  -0.00823   0.00000  -0.02407  -0.02407   2.08607
   R11        2.92659  -0.01172   0.00000  -0.04007  -0.04012   2.88647
   R12        2.91810  -0.01106   0.00000  -0.02876  -0.02883   2.88927
   R13        2.90802  -0.00575   0.00000  -0.01650  -0.01652   2.89150
   R14        2.10364  -0.01086   0.00000  -0.03144  -0.03144   2.07221
   R15        2.09973  -0.00791   0.00000  -0.02275  -0.02275   2.07698
   R16        2.89919  -0.00225   0.00000  -0.00864  -0.00863   2.89056
   R17        2.10179  -0.01075   0.00000  -0.03102  -0.03102   2.07077
   R18        2.10370  -0.00900   0.00000  -0.02606  -0.02606   2.07765
   R19        2.90816  -0.00702   0.00000  -0.02180  -0.02175   2.88641
   R20        2.10558  -0.01135   0.00000  -0.03295  -0.03295   2.07263
   R21        2.10091  -0.01019   0.00000  -0.02935  -0.02935   2.07156
   R22        2.92983  -0.01133   0.00000  -0.04023  -0.04021   2.88962
   R23        2.10189  -0.01109   0.00000  -0.03200  -0.03200   2.06988
   R24        2.10020  -0.00831   0.00000  -0.02390  -0.02390   2.07630
   R25        2.11223  -0.00855   0.00000  -0.02507  -0.02507   2.08716
   R26        2.77922  -0.00845   0.00000  -0.01848  -0.01863   2.76059
   R27        2.44883  -0.01086   0.00000  -0.01608  -0.01600   2.43284
   R28        2.07981  -0.00615   0.00000  -0.01714  -0.01714   2.06268
    A1        2.16394   0.01027   0.00000   0.03767   0.03767   2.20161
    A2        2.05175  -0.00815   0.00000  -0.02983  -0.02984   2.02191
    A3        2.06743  -0.00213   0.00000  -0.00777  -0.00778   2.05965
    A4        2.04767  -0.00289   0.00000  -0.00943  -0.00948   2.03819
    A5        2.04711  -0.00401   0.00000  -0.01350  -0.01356   2.03355
    A6        2.18821   0.00688   0.00000   0.02231   0.02193   2.21015
    A7        2.14607   0.00308   0.00000   0.01639   0.01582   2.16188
    A8        2.08497  -0.00327   0.00000  -0.01767  -0.01751   2.06746
    A9        2.05213   0.00019   0.00000   0.00117   0.00133   2.05347
   A10        2.23059  -0.00102   0.00000   0.01085   0.01010   2.24069
   A11        2.14609  -0.01304   0.00000  -0.08001  -0.07976   2.06633
   A12        1.90614   0.01404   0.00000   0.06840   0.06853   1.97467
   A13        1.87499   0.00048   0.00000  -0.00136  -0.00126   1.87374
   A14        1.92086   0.00025   0.00000  -0.00942  -0.00924   1.91163
   A15        1.99765  -0.00368   0.00000  -0.00509  -0.00553   1.99212
   A16        1.87536   0.00145   0.00000   0.02149   0.02143   1.89678
   A17        1.86683  -0.00134   0.00000  -0.00648  -0.00663   1.86020
   A18        1.92288   0.00303   0.00000   0.00286   0.00308   1.92597
   A19        1.94991  -0.00104   0.00000  -0.00116  -0.00127   1.94863
   A20        1.90290  -0.00114   0.00000  -0.01526  -0.01524   1.88766
   A21        1.92502  -0.00112   0.00000  -0.01056  -0.01057   1.91444
   A22        1.89918   0.00140   0.00000   0.01661   0.01661   1.91580
   A23        1.90006   0.00274   0.00000   0.01936   0.01938   1.91944
   A24        1.88550  -0.00082   0.00000  -0.00891  -0.00931   1.87619
   A25        1.94081  -0.00212   0.00000  -0.00313  -0.00321   1.93759
   A26        1.91975  -0.00081   0.00000  -0.00598  -0.00595   1.91380
   A27        1.90305   0.00138   0.00000   0.00279   0.00281   1.90585
   A28        1.91619   0.00181   0.00000   0.01245   0.01247   1.92866
   A29        1.89890   0.00129   0.00000   0.00885   0.00887   1.90777
   A30        1.88408  -0.00152   0.00000  -0.01527  -0.01534   1.86874
   A31        1.93642  -0.00067   0.00000  -0.00060  -0.00062   1.93580
   A32        1.90190   0.00132   0.00000   0.00654   0.00654   1.90844
   A33        1.92302   0.00019   0.00000   0.00535   0.00535   1.92838
   A34        1.89791   0.00025   0.00000  -0.00444  -0.00444   1.89347
   A35        1.92185  -0.00042   0.00000  -0.00015  -0.00015   1.92170
   A36        1.88161  -0.00065   0.00000  -0.00694  -0.00696   1.87464
   A37        1.96425  -0.00053   0.00000  -0.00357  -0.00353   1.96072
   A38        1.90979   0.00273   0.00000   0.01960   0.01956   1.92935
   A39        1.90028   0.00068   0.00000   0.01220   0.01215   1.91243
   A40        1.90721  -0.00203   0.00000  -0.01380  -0.01380   1.89341
   A41        1.90093  -0.00040   0.00000  -0.00988  -0.00989   1.89104
   A42        1.87947  -0.00046   0.00000  -0.00469  -0.00499   1.87449
   A43        1.88503   0.00113   0.00000   0.01146   0.01140   1.89644
   A44        1.90537  -0.00175   0.00000  -0.02595  -0.02617   1.87921
   A45        2.00595   0.00158   0.00000   0.01308   0.01319   2.01914
   A46        1.85013   0.00274   0.00000   0.03411   0.03431   1.88444
   A47        1.92279  -0.00438   0.00000  -0.02507  -0.02499   1.89780
   A48        1.88832   0.00080   0.00000  -0.00572  -0.00558   1.88273
   A49        2.07671  -0.00583   0.00000  -0.00635  -0.00669   2.07001
   A50        2.22513  -0.00218   0.00000  -0.01023  -0.01022   2.21491
   A51        1.98538   0.00640   0.00000   0.03423   0.03410   2.01948
   A52        2.07174  -0.00415   0.00000  -0.02302  -0.02315   2.04858
    D1       -3.01721  -0.00209   0.00000  -0.03161  -0.03128  -3.04849
    D2        0.14417  -0.00093   0.00000   0.00000  -0.00000   0.14417
    D3        0.13623  -0.00115   0.00000  -0.03858  -0.03841   0.09782
    D4       -2.98557   0.00000   0.00000  -0.00697  -0.00714  -2.99271
    D5       -3.11252  -0.00175   0.00000  -0.02924  -0.02926   3.14140
    D6        0.02350  -0.00311   0.00000  -0.05400  -0.05395  -0.03046
    D7        0.00750  -0.00317   0.00000  -0.06419  -0.06464  -0.05713
    D8       -3.13966  -0.00452   0.00000  -0.08894  -0.08933   3.05419
    D9       -2.52226  -0.00133   0.00000  -0.02790  -0.02832  -2.55058
   D10        0.57180   0.00049   0.00000  -0.00339  -0.00340   0.56840
   D11        0.64089   0.00007   0.00000   0.00699   0.00693   0.64782
   D12       -2.54824   0.00189   0.00000   0.03150   0.03186  -2.51638
   D13       -0.71526   0.00297   0.00000   0.07916   0.07948  -0.63578
   D14        2.45835   0.00360   0.00000   0.11151   0.11045   2.56881
   D15        2.43181   0.00430   0.00000   0.10353   0.10405   2.53586
   D16       -0.67776   0.00494   0.00000   0.13588   0.13502  -0.54274
   D17       -1.92029  -0.00007   0.00000  -0.03177  -0.03141  -1.95170
   D18        2.32621  -0.00220   0.00000  -0.05156  -0.05126   2.27496
   D19        0.14968  -0.00366   0.00000  -0.04393  -0.04387   0.10581
   D20        1.19285  -0.00102   0.00000  -0.06267  -0.06322   1.12963
   D21       -0.84383  -0.00315   0.00000  -0.08246  -0.08306  -0.92690
   D22       -3.02037  -0.00460   0.00000  -0.07482  -0.07568  -3.09605
   D23        3.04339   0.00253   0.00000   0.01536   0.01546   3.05886
   D24       -1.14004   0.00286   0.00000   0.02524   0.02528  -1.11477
   D25        0.92759   0.00051   0.00000  -0.00116  -0.00097   0.92662
   D26        1.00693   0.00101   0.00000   0.00985   0.00985   1.01678
   D27        3.10668   0.00134   0.00000   0.01973   0.01966   3.12634
   D28       -1.10887  -0.00101   0.00000  -0.00667  -0.00658  -1.11545
   D29       -1.02088   0.00018   0.00000   0.00393   0.00382  -1.01706
   D30        1.07887   0.00051   0.00000   0.01381   0.01363   1.09250
   D31       -3.13668  -0.00184   0.00000  -0.01259  -0.01261   3.13389
   D32       -3.08179  -0.00038   0.00000  -0.01475  -0.01460  -3.09639
   D33       -1.07764   0.00254   0.00000   0.01812   0.01807  -1.05957
   D34        1.04719   0.00335   0.00000   0.00000  -0.00000   1.04719
   D35       -1.00722  -0.00292   0.00000  -0.02396  -0.02393  -1.03115
   D36        0.99693   0.00000   0.00000   0.00891   0.00874   1.00567
   D37        3.12176   0.00082   0.00000  -0.00921  -0.00933   3.11243
   D38        1.02592  -0.00036   0.00000  -0.00060  -0.00059   1.02534
   D39        3.03007   0.00256   0.00000   0.03227   0.03208   3.06216
   D40       -1.12828   0.00337   0.00000   0.01415   0.01401  -1.11427
   D41        0.95662   0.00014   0.00000   0.00000  -0.00001   0.95661
   D42        3.08314   0.00046   0.00000   0.00957   0.00954   3.09268
   D43       -1.13717  -0.00104   0.00000  -0.01083  -0.01082  -1.14799
   D44       -1.14531   0.00129   0.00000   0.00876   0.00884  -1.13647
   D45        0.98122   0.00160   0.00000   0.01832   0.01838   0.99960
   D46        3.04410   0.00011   0.00000  -0.00207  -0.00198   3.04211
   D47        3.08683  -0.00006   0.00000  -0.00080  -0.00086   3.08597
   D48       -1.06983   0.00025   0.00000   0.00876   0.00869  -1.06114
   D49        0.99305  -0.00124   0.00000  -0.01163  -0.01168   0.98137
   D50       -0.92189  -0.00177   0.00000   0.00000  -0.00000  -0.92189
   D51        1.16723  -0.00104   0.00000  -0.00169  -0.00170   1.16552
   D52       -3.05486  -0.00092   0.00000  -0.00306  -0.00307  -3.05792
   D53       -3.05048  -0.00057   0.00000   0.00114   0.00117  -3.04932
   D54       -0.96137   0.00016   0.00000  -0.00054  -0.00053  -0.96190
   D55        1.09974   0.00028   0.00000  -0.00192  -0.00190   1.09784
   D56        1.17435  -0.00053   0.00000   0.00724   0.00723   1.18158
   D57       -3.01972   0.00020   0.00000   0.00555   0.00553  -3.01419
   D58       -0.95862   0.00032   0.00000   0.00417   0.00416  -0.95445
   D59        0.97861   0.00107   0.00000  -0.00490  -0.00491   0.97370
   D60        3.10252   0.00006   0.00000  -0.01104  -0.01111   3.09142
   D61       -1.13073   0.00145   0.00000   0.00148   0.00153  -1.12920
   D62       -1.11288  -0.00030   0.00000  -0.00977  -0.00977  -1.12265
   D63        1.01103  -0.00132   0.00000  -0.01591  -0.01596   0.99507
   D64        3.06096   0.00007   0.00000  -0.00339  -0.00333   3.05764
   D65        3.11226   0.00057   0.00000   0.00136   0.00135   3.11361
   D66       -1.04701  -0.00044   0.00000  -0.00478  -0.00485  -1.05186
   D67        1.00292   0.00095   0.00000   0.00774   0.00779   1.01071
   D68       -1.02324   0.00115   0.00000   0.00519   0.00529  -1.01795
   D69       -3.06352   0.00123   0.00000   0.01229   0.01211  -3.05141
   D70        1.18057   0.00097   0.00000   0.01277   0.01284   1.19341
   D71        3.13457  -0.00054   0.00000  -0.00764  -0.00749   3.12707
   D72        1.09429  -0.00046   0.00000  -0.00054  -0.00068   1.09361
   D73       -0.94480  -0.00071   0.00000  -0.00006   0.00005  -0.94475
   D74        1.08573   0.00139   0.00000   0.01147   0.01153   1.09726
   D75       -0.95455   0.00147   0.00000   0.01857   0.01835  -0.93620
   D76       -2.99364   0.00122   0.00000   0.01904   0.01908  -2.97456
   D77       -1.17216  -0.00276   0.00000   0.00000   0.00000  -1.17215
   D78        2.97707  -0.00198   0.00000  -0.00507  -0.00492   2.97215
   D79        0.96191  -0.00334   0.00000  -0.02906  -0.02921   0.93270
   D80        0.06532   0.00302   0.00000   0.01697   0.01703   0.08235
   D81       -3.02666   0.00087   0.00000  -0.00998  -0.00963  -3.03630
         Item               Value     Threshold  Converged?
 Maximum Force            0.036904     0.000450     NO 
 RMS     Force            0.006606     0.000300     NO 
 Maximum Displacement     0.239035     0.001800     NO 
 RMS     Displacement     0.049477     0.001200     NO 
 Predicted change in Energy=-1.333927D-02
 GradGradGradGradGradGradGradGradGradGradGradGradGradGradGradGradGradGrad

                          Input orientation:                          
 ---------------------------------------------------------------------
 Center     Atomic      Atomic             Coordinates (Angstroms)
 Number     Number       Type             X           Y           Z
 ---------------------------------------------------------------------
      1          8           0       -3.482718   -1.501555    0.146828
      2          7           0       -3.163262   -0.307127    0.246390
      3          8           0       -3.922451    0.631940    0.527993
      4          6           0       -1.752416   -0.000395   -0.002456
      5          6           0       -1.359185    1.278758    0.209493
      6          7           0       -0.089967    1.719770    0.024754
      7          6           0        1.167992    1.012783    0.290794
      8          1           0        1.660270    1.523492    1.136626
      9          6           0        2.076100    1.108125   -0.933695
     10          6           0        3.448842    0.486560   -0.668179
     11          6           0        3.312409   -0.956667   -0.180108
     12          6           0        2.364019   -1.040960    1.014241
     13          6           0        0.988652   -0.447343    0.707340
     14          1           0        0.396440   -0.459724    1.639542
     15          7           0        0.313701   -1.304638   -0.264023
     16          6           0       -0.930276   -1.089578   -0.516355
     17          1           0       -2.106973    2.006720    0.520577
     18          1           0        0.047904    2.673168   -0.290483
     19          1           0        1.586434    0.585033   -1.763788
     20          1           0        2.191172    2.160719   -1.228330
     21          1           0        4.054659    0.527619   -1.580368
     22          1           0        3.973087    1.080167    0.094428
     23          1           0        2.908638   -1.577233   -0.989317
     24          1           0        4.293575   -1.365321    0.088251
     25          1           0        2.230940   -2.082335    1.326633
     26          1           0        2.794283   -0.495084    1.865185
     27          1           0       -1.440861   -1.801894   -1.166993
 ---------------------------------------------------------------------
                    Distance matrix (angstroms):
                    1          2          3          4          5
     1  O    0.000000
     2  N    1.240413   0.000000
     3  O    2.211438   1.239966   0.000000
     4  C    2.295585   1.465092   2.321697   0.000000
     5  C    3.499066   2.402308   2.662733   1.354912   0.000000
     6  N    4.680021   3.688167   4.015539   2.392373   1.356294
     7  C    5.288830   4.528122   5.110177   3.105046   2.542435
     8  H    6.048218   5.235470   5.686130   3.907194   3.168056
     9  C    6.235256   5.553958   6.192407   4.093111   3.624525
    10  C    7.256952   6.722075   7.469131   5.266251   4.951263
    11  C    6.824774   6.522125   7.440986   5.157370   5.193525
    12  C    5.928650   5.628405   6.523399   4.365946   4.459928
    13  C    4.628032   4.179775   5.031495   2.866535   2.956284
    14  H    4.285029   3.825655   4.591306   2.743123   2.854747
    15  N    3.823660   3.653057   4.724681   2.457297   3.113953
    16  C    2.669175   2.486008   3.606577   1.458192   2.513928
    17  H    3.786867   2.558283   2.277287   2.104231   1.088986
    18  H    5.484966   4.413839   4.538748   3.236055   2.043099
    19  H    5.805222   5.234155   5.966764   3.820070   3.612723
    20  H    6.891759   6.077419   6.542035   4.661016   3.930678
    21  H    7.994549   7.492144   8.251688   6.040756   5.751306
    22  H    7.890315   7.271530   7.920126   5.827383   5.337209
    23  H    6.491994   6.325197   7.338014   5.018540   5.273343
    24  H    7.777707   7.533206   8.466729   6.198811   6.241758
    25  H    5.863031   5.780631   6.772690   4.687011   5.043207
    26  H    6.585323   6.176420   6.940661   4.940169   4.810315
    27  H    2.446529   2.683028   3.867145   2.167627   3.375174
                    6          7          8          9         10
     6  N    0.000000
     7  C    1.467334   0.000000
     8  H    2.082814   1.103900   0.000000
     9  C    2.446340   1.527457   2.152133   0.000000
    10  C    3.811053   2.529588   2.744365   1.530118   0.000000
    11  C    4.333756   2.949408   3.257996   2.521849   1.529618
    12  C    3.823972   2.484294   2.662077   2.914777   2.518074
    13  C    2.515098   1.528935   2.125923   2.508989   2.969304
    14  H    2.755780   2.140722   2.404857   3.449777   3.941851
    15  N    3.064863   2.531418   3.431237   3.062016   3.633296
    16  C    2.981837   3.078009   4.033783   3.747315   4.656601
    17  H    2.096782   3.430176   3.847746   4.518903   5.881420
    18  H    1.013584   2.085512   2.440927   2.641337   4.060823
    19  H    2.701265   2.139946   3.049354   1.096564   2.163011
    20  H    2.639745   2.161572   2.506179   1.099093   2.167558
    21  H    4.601692   3.474115   3.755918   2.160988   1.095805
    22  H    4.113679   2.812767   2.575235   2.157864   1.099442
    23  H    4.570580   3.372939   3.961382   2.812004   2.157357
    24  H    5.360714   3.932642   4.047051   3.475558   2.171457
    25  H    4.640850   3.432575   3.655646   3.913067   3.473007
    26  H    4.075740   2.719778   2.427227   3.304512   2.794639
    27  H    3.955666   4.105321   5.097241   4.570739   5.421718
                   11         12         13         14         15
    11  C    0.000000
    12  C    1.527422   0.000000
    13  C    2.539060   1.529119   0.000000
    14  H    3.472889   2.144809   1.104477   0.000000
    15  N    3.019995   2.430492   1.460842   2.084295   0.000000
    16  C    4.258063   3.632832   2.364779   2.608598   1.287401
    17  H    6.216295   5.433400   3.954769   3.688157   4.176166
    18  H    4.883122   4.567433   3.408555   3.696145   3.986765
    19  H    2.804259   3.311486   2.744015   3.753700   2.727637
    20  H    3.474772   3.912768   3.463360   4.279308   4.057523
    21  H    2.171351   3.471412   3.947729   4.972448   4.368603
    22  H    2.158833   2.816795   3.408196   4.189397   4.382567
    23  H    1.096791   2.144398   2.800294   3.804059   2.708146
    24  H    1.096222   2.164683   3.485466   4.291186   3.995895
    25  H    2.169555   1.095335   2.144761   2.469042   2.609751
    26  H    2.159801   1.098732   2.145504   2.408696   3.367817
    27  H    4.927669   4.451282   3.354171   3.612995   2.034971
                   16         17         18         19         20
    16  C    0.000000
    17  H    3.470865   0.000000
    18  H    3.894369   2.396970   0.000000
    19  H    3.270205   4.569549   2.982954   0.000000
    20  H    4.562322   4.642892   2.394945   1.770653   0.000000
    21  H    5.347619   6.675884   4.724540   2.475697   2.502705
    22  H    5.396649   6.165001   4.253572   3.065002   2.468299
    23  H    3.898559   6.346720   5.170888   2.650174   3.813682
    24  H    5.265947   7.247385   5.871845   3.816090   4.311200
    25  H    3.791498   6.015612   5.476816   4.132909   4.953072
    26  H    4.460661   5.664742   4.714587   3.974292   4.121513
    27  H    1.091522   4.218665   4.796965   3.901038   5.375661
                   21         22         23         24         25
    21  H    0.000000
    22  H    1.765476   0.000000
    23  H    2.468422   3.060936   0.000000
    24  H    2.534678   2.466407   1.767515   0.000000
    25  H    4.311434   3.815078   2.465365   2.510410   0.000000
    26  H    3.808714   2.646994   3.054882   2.482475   1.768264
    27  H    5.983164   6.261653   4.358921   5.886424   4.447352
                   26         27
    26  H    0.000000
    27  H    5.370130   0.000000
 Symmetry turned off by external request.
 Stoichiometry    C9H13N3O2
 Framework group  C1[X(C9H13N3O2)]
 Deg. of freedom    75
 Full point group                 C1      NOp   1
 Rotational constants (GHZ):           1.7359568           0.4132119           0.3621681
 Standard basis: 6-31G(d) (6D, 7F)
   236 basis functions,   444 primitive gaussians,   236 cartesian basis functions
    52 alpha electrons       52 beta electrons
       nuclear repulsion energy       928.7694893248 Hartrees.
 NAtoms=   27 NActive=   27 NUniq=   27 SFac= 1.00D+00 NAtFMM=   60 NAOKFM=F Big=F
 Integral buffers will be    131072 words long.
 Raffenetti 1 integral format.
 Two-electron integral symmetry is turned off.
 One-electron integrals computed using PRISM.
 NBasis=   236 RedAO= T EigKep=  1.08D-03  NBF=   236
 NBsUse=   236 1.00D-06 EigRej= -1.00D+00 NBFU=   236
 Initial guess from the checkpoint file:  "/home/alexey/tmp/Gau-1178202.chk"
 B after Tr=     0.044752    0.003113    0.000466
         Rot=    1.000000    0.000525    0.000293    0.000626 Ang=   0.10 deg.
 ExpMin= 1.61D-01 ExpMax= 5.48D+03 ExpMxC= 8.25D+02 IAcc=3 IRadAn=         5 AccDes= 0.00D+00
 Harris functional with IExCor=  205 and IRadAn=       5 diagonalized for initial guess.
 HarFok:  IExCor=  205 AccDes= 0.00D+00 IRadAn=         5 IDoV= 1 UseB2=F ITyADJ=14
 ICtDFT=  3500011 ScaDFX=  1.000000  1.000000  1.000000  1.000000
 FoFCou: FMM=F IPFlag=           0 FMFlag=      100000 FMFlg1=           0
         NFxFlg=           0 DoJE=T BraDBF=F KetDBF=T FulRan=T
         wScrn=  0.000000 ICntrl=       500 IOpCl=  0 I1Cent=   200000004 NGrid=           0
         NMat0=    1 NMatS0=      1 NMatT0=    0 NMatD0=    1 NMtDS0=    0 NMtDT0=    0
 Symmetry not used in FoFCou.
 Keep R1 ints in memory in canonical form, NReq=397720213.
 Requested convergence on RMS density matrix=1.00D-08 within 128 cycles.
 Requested convergence on MAX density matrix=1.00D-06.
 Requested convergence on             energy=1.00D-06.
 No special actions if energy rises.
 SCF Done:  E(RHF) =  -661.290876655     A.U. after   14 cycles
            NFock= 14  Conv=0.69D-08     -V/T= 2.0025
 ExpMin= 1.61D-01 ExpMax= 5.48D+03 ExpMxC= 8.25D+02 IAcc=3 IRadAn=         5 AccDes= 0.00D+00
 HarFok:  IExCor=  205 AccDes= 0.00D+00 IRadAn=         5 IDoV=-2 UseB2=F ITyADJ=14
 ICtDFT= 12500011 ScaDFX=  1.000000  1.000000  1.000000  1.000000
 Range of M.O.s used for correlation:    15   236
 NBasis=   236 NAE=    52 NBE=    52 NFC=    14 NFV=     0
 NROrb=    222 NOA=    38 NOB=    38 NVA=   184 NVB=   184
 Fully direct method using O(ONN) memory.
 JobTyp=1 Pass  1:  I=  15 to  52 NPSUse=  4 ParTrn=T ParDer=T DoDerP=T.
 Spin components of T(2) and E(2):
     alpha-alpha T2 =       0.9098866306D-01 E2=     -0.2717779984D+00
     alpha-beta  T2 =       0.4919186111D+00 E2=     -0.1488026956D+01
     beta-beta   T2 =       0.9098866306D-01 E2=     -0.2717779984D+00
 ANorm=    0.1293791304D+01
 E2 =    -0.2031582953D+01 EUMP2 =    -0.66332245960762D+03
          IDoAtm=111111111111111111111111111
          Differentiating once with respect to electric field.
                with respect to dipole field.
          Differentiating once with respect to nuclear coordinates.
 Keep R1 ints in memory in canonical form, NReq=397723379.
          There are     1 degrees of freedom in the 1st order CPHF.  IDoFFX=0 NUNeed=     1.
 LinEq1:  Iter=  0 NonCon=     1 RMS=4.53D-03 Max=1.06D-01 NDo=     1
 AX will form     1 AO Fock derivatives at one time.
 LinEq1:  Iter=  1 NonCon=     1 RMS=1.51D-03 Max=2.33D-02 NDo=     1
 LinEq1:  Iter=  2 NonCon=     1 RMS=6.38D-04 Max=1.74D-02 NDo=     1
 LinEq1:  Iter=  3 NonCon=     1 RMS=2.83D-04 Max=7.91D-03 NDo=     1
 LinEq1:  Iter=  4 NonCon=     1 RMS=8.66D-05 Max=1.75D-03 NDo=     1
 LinEq1:  Iter=  5 NonCon=     1 RMS=3.66D-05 Max=1.92D-03 NDo=     1
 LinEq1:  Iter=  6 NonCon=     1 RMS=1.42D-05 Max=5.39D-04 NDo=     1
 LinEq1:  Iter=  7 NonCon=     1 RMS=5.63D-06 Max=1.14D-04 NDo=     1
 LinEq1:  Iter=  8 NonCon=     1 RMS=2.29D-06 Max=6.63D-05 NDo=     1
 LinEq1:  Iter=  9 NonCon=     1 RMS=8.79D-07 Max=2.71D-05 NDo=     1
 LinEq1:  Iter= 10 NonCon=     1 RMS=4.40D-07 Max=1.63D-05 NDo=     1
[...]
    27  H    4.886264   4.429242   3.364552   3.625693   2.027906
                   16         17         18         19         20
    16  C    0.000000
    17  H    3.441820   0.000000
    18  H    4.040534   2.215842   0.000000
    19  H    3.263574   4.343837   3.277188   0.000000
    20  H    4.586959   4.491400   2.668693   1.764822   0.000000
    21  H    5.342790   6.552843   4.945664   2.486874   2.503982
    22  H    5.413553   6.170073   4.328184   3.067083   2.473670
    23  H    3.869752   6.267480   5.334047   2.662279   3.819354
    24  H    5.253667   7.255071   5.951818   3.822179   4.314279
    25  H    3.777774   6.117868   5.441841   4.128605   4.955899
    26  H    4.489575   5.837595   4.634562   3.987743   4.145629
    27  H    1.090130   4.184360   5.014101   3.908192   5.411089
                   21         22         23         24         25
    21  H    0.000000
    22  H    1.759290   0.000000
    23  H    2.473956   3.061715   0.000000
    24  H    2.532301   2.465013   1.764967   0.000000
    25  H    4.311944   3.820485   2.457236   2.516595   0.000000
    26  H    3.819475   2.664026   3.056310   2.483496   1.766139
    27  H    5.963447   6.260378   4.297284   5.834137   4.389621
                   26         27
    26  H    0.000000
    27  H    5.365142   0.000000
 Symmetry turned off by external request.
 Stoichiometry    C9H13N3O2
 Framework group  C1[X(C9H13N3O2)]
 Deg. of freedom    75
 Full point group                 C1      NOp   1
 Rotational constants (GHZ):           1.7305361           0.4074331           0.3582325

 **********************************************************************

            Population analysis using the SCF Density.

 **********************************************************************

 Alpha  occ. eigenvalues --  -20.59256 -20.58926 -15.84735 -15.64067 -15.56133
 Alpha  occ. eigenvalues --  -11.35097 -11.29918 -11.29597 -11.28509 -11.27362
 Alpha  occ. eigenvalues --  -11.23801 -11.23224 -11.22816 -11.22280  -1.57127
 Alpha  occ. eigenvalues --   -1.36731  -1.30830  -1.22999  -1.14877  -1.10002
 Alpha  occ. eigenvalues --   -1.02962  -1.01610  -0.94370  -0.89832  -0.85646
 Alpha  occ. eigenvalues --   -0.82504  -0.78349  -0.77571  -0.75353  -0.71870
 Alpha  occ. eigenvalues --   -0.69777  -0.69435  -0.67535  -0.65090  -0.63766
 Alpha  occ. eigenvalues --   -0.62822  -0.60486  -0.57900  -0.56858  -0.55148
 Alpha  occ. eigenvalues --   -0.54591  -0.51178  -0.50007  -0.48637  -0.48121
 Alpha  occ. eigenvalues --   -0.47472  -0.46336  -0.46249  -0.43688  -0.41611
 Alpha  occ. eigenvalues --   -0.39752  -0.33839
 Alpha virt. eigenvalues --    0.07355   0.11898   0.17399   0.21483   0.23859
 Alpha virt. eigenvalues --    0.25256   0.27082   0.28656   0.28962   0.29656
 Alpha virt. eigenvalues --    0.30752   0.31479   0.32263   0.32501   0.33699
 Alpha virt. eigenvalues --    0.33826   0.35834   0.37203   0.39012   0.40079
 Alpha virt. eigenvalues --    0.41116   0.42343   0.44905   0.46142   0.46692
 Alpha virt. eigenvalues --    0.47061   0.48740   0.53800   0.57162   0.59096
 Alpha virt. eigenvalues --    0.64068   0.68516   0.70521   0.72448   0.73646
 Alpha virt. eigenvalues --    0.74943   0.75738   0.76699   0.78057   0.79605
 Alpha virt. eigenvalues --    0.80401   0.84387   0.85298   0.87320   0.88328
 Alpha virt. eigenvalues --    0.89866   0.91299   0.92513   0.92873   0.94609
 Alpha virt. eigenvalues --    0.95541   0.98503   0.99480   1.00610   1.02265
 Alpha virt. eigenvalues --    1.03013   1.05149   1.07145   1.07498   1.09093
 Alpha virt. eigenvalues --    1.09961   1.10844   1.11646   1.12385   1.13607
 Alpha virt. eigenvalues --    1.14589   1.14839   1.15968   1.16885   1.18429
 Alpha virt. eigenvalues --    1.19024   1.20717   1.22441   1.23528   1.23956
 Alpha virt. eigenvalues --    1.25055   1.25557   1.27268   1.27753   1.29017
 Alpha virt. eigenvalues --    1.29752   1.32385   1.36441   1.37241   1.40733
 Alpha virt. eigenvalues --    1.41170   1.43848   1.48110   1.48781   1.54576
 Alpha virt. eigenvalues --    1.55509   1.58695   1.61340   1.62536   1.65472
 Alpha virt. eigenvalues --    1.68082   1.68781   1.72908   1.73932   1.76206
 Alpha virt. eigenvalues --    1.81012   1.85122   1.87548   1.89917   1.92810
 Alpha virt. eigenvalues --    1.96637   1.97703   1.99788   2.00783   2.02505
 Alpha virt. eigenvalues --    2.03344   2.04977   2.08776   2.09390   2.12201
 Alpha virt. eigenvalues --    2.13188   2.15829   2.17195   2.20573   2.21825
 Alpha virt. eigenvalues --    2.22497   2.23808   2.26206   2.27691   2.29328
 Alpha virt. eigenvalues --    2.31635   2.33563   2.35179   2.35850   2.37184
 Alpha virt. eigenvalues --    2.39355   2.42559   2.43696   2.44142   2.48389
 Alpha virt. eigenvalues --    2.49599   2.51337   2.53433   2.55536   2.60342
 Alpha virt. eigenvalues --    2.62594   2.64955   2.68697   2.70268   2.70991
 Alpha virt. eigenvalues --    2.72034   2.73944   2.76862   2.78209   2.83989
 Alpha virt. eigenvalues --    2.85611   2.87880   2.92724   2.94004   2.95888
 Alpha virt. eigenvalues --    2.99922   3.01057   3.02984   3.05962   3.08836
 Alpha virt. eigenvalues --    3.09985   3.13240   3.21291   3.25590   3.26595
 Alpha virt. eigenvalues --    3.32103   3.38096   3.41393   3.52309   3.65418
 Alpha virt. eigenvalues --    4.13091   4.28471   4.33744   4.38633   4.44775
 Alpha virt. eigenvalues --    4.56670   4.61284   4.61849   4.72515   4.78817
 Alpha virt. eigenvalues --    4.98539   4.99848   5.04195   5.11532
          Condensed to atoms (all electrons):
               1          2          3          4          5          6
     1  O    8.314332   0.307175  -0.081433  -0.085761   0.004606  -0.000016
     2  N    0.307175   5.731848   0.299613   0.257698  -0.051669   0.001067
     3  O   -0.081433   0.299613   8.351958  -0.092190   0.003986   0.000746
     4  C   -0.085761   0.257698  -0.092190   5.234142   0.560811  -0.048100
     5  C    0.004606  -0.051669   0.003986   0.560811   4.702746   0.319063
     6  N   -0.000016   0.001067   0.000746  -0.048100   0.319063   7.193906
     7  C    0.000003  -0.000115   0.000003   0.003038  -0.026592   0.172917
     8  H   -0.000000   0.000003  -0.000000  -0.000044   0.001572  -0.049488
     9  C   -0.000000  -0.000001   0.000000   0.000533   0.001665  -0.076550
    10  C    0.000000   0.000000   0.000000  -0.000020  -0.000050   0.003947
    11  C   -0.000000  -0.000000  -0.000000  -0.000022   0.000028  -0.000274
    12  C   -0.000000   0.000002  -0.000000  -0.000059  -0.000202   0.003475
    13  C   -0.000021  -0.000044  -0.000004  -0.012113  -0.000094  -0.038258
    14  H   -0.000005  -0.000133   0.000001   0.002411   0.006252  -0.006011
    15  N    0.000374   0.002485  -0.000017  -0.062032  -0.008233   0.002881
    16  C    0.001589  -0.027744   0.002610   0.327177  -0.052281  -0.003028
    17  H    0.000208  -0.007296   0.016975  -0.025394   0.375922  -0.035789
    18  H    0.000001  -0.000048   0.000011   0.001597  -0.032756   0.336838
    19  H    0.000000  -0.000001   0.000000  -0.000727   0.000503   0.000163
    20  H    0.000000  -0.000000   0.000000  -0.000045   0.000125  -0.001288
    21  H   -0.000000   0.000000   0.000000   0.000000   0.000001  -0.000085
    22  H   -0.000000   0.000000  -0.000000   0.000000  -0.000003  -0.000107
    23  H    0.000000  -0.000000   0.000000   0.000022   0.000000  -0.000033
    24  H    0.000000   0.000000   0.000000   0.000000  -0.000000   0.000006
    25  H    0.000000  -0.000000   0.000000   0.000024   0.000002  -0.000074
    26  H    0.000000  -0.000000   0.000000   0.000007   0.000001  -0.000055
    27  H    0.006124  -0.000525   0.000021  -0.065168   0.002072   0.000073
               7          8          9         10         11         12
     1  O    0.000003  -0.000000  -0.000000   0.000000  -0.000000  -0.000000
     2  N   -0.000115   0.000003  -0.000001   0.000000  -0.000000   0.000002
     3  O    0.000003  -0.000000   0.000000   0.000000  -0.000000  -0.000000
     4  C    0.003038  -0.000044   0.000533  -0.000020  -0.000022  -0.000059
     5  C   -0.026592   0.001572   0.001665  -0.000050   0.000028  -0.000202
     6  N    0.172917  -0.049488  -0.076550   0.003947  -0.000274   0.003475
     7  C    4.997949   0.412901   0.352858  -0.049590  -0.008861  -0.058976
     8  H    0.412901   0.538601  -0.055463   0.002096  -0.000106  -0.001053
     9  C    0.352858  -0.055463   5.171448   0.324274  -0.052970  -0.006553
    10  C   -0.049590   0.002096   0.324274   5.116256   0.336607  -0.061937
    11  C   -0.008861  -0.000106  -0.052970   0.336607   5.114310   0.333202
    12  C   -0.058976  -0.001053  -0.006553  -0.061937   0.333202   5.125709
    13  C    0.339483  -0.035532  -0.059189  -0.001731  -0.050168   0.373312
    14  H   -0.047609  -0.002011   0.005083  -0.000461   0.004423  -0.041204
    15  N   -0.056291   0.003692  -0.009154   0.001087  -0.006100  -0.078508
    16  C   -0.000749  -0.000035  -0.000203  -0.000047   0.000034   0.001819
    17  H    0.001620  -0.000026  -0.000095   0.000001   0.000000   0.000000
    18  H   -0.021311  -0.003198   0.000388  -0.000088   0.000003  -0.000101
    19  H   -0.037851   0.004549   0.389054  -0.033610  -0.002315   0.000556
    20  H   -0.041184  -0.002461   0.399100  -0.035390   0.004159  -0.000362
    21  H    0.004168  -0.000124  -0.036028   0.403226  -0.035337   0.004483
    22  H   -0.003636   0.002950  -0.046683   0.396952  -0.044794  -0.001717
    23  H    0.000829   0.000027  -0.002544  -0.040112   0.399644  -0.039697
    24  H   -0.000128  -0.000052   0.004430  -0.038104   0.403444  -0.038168
    25  H    0.005052  -0.000109  -0.000400   0.004328  -0.032937   0.398964
    26  H   -0.002525   0.001693   0.000647  -0.002804  -0.042523   0.395403
    27  H   -0.000386   0.000009  -0.000039   0.000004   0.000005  -0.000014
              13         14         15         16         17         18
     1  O   -0.000021  -0.000005   0.000374   0.001589   0.000208   0.000001
     2  N   -0.000044  -0.000133   0.002485  -0.027744  -0.007296  -0.000048
     3  O   -0.000004   0.000001  -0.000017   0.002610   0.016975   0.000011
     4  C   -0.012113   0.002411  -0.062032   0.327177  -0.025394   0.001597
     5  C   -0.000094   0.006252  -0.008233  -0.052281   0.375922  -0.032756
     6  N   -0.038258  -0.006011   0.002881  -0.003028  -0.035789   0.336838
     7  C    0.339483  -0.047609  -0.056291  -0.000749   0.001620  -0.021311
     8  H   -0.035532  -0.002011   0.003692  -0.000035  -0.000026  -0.003198
     9  C   -0.059189   0.005083  -0.009154  -0.000203  -0.000095   0.000388
    10  C   -0.001731  -0.000461   0.001087  -0.000047   0.000001  -0.000088
    11  C   -0.050168   0.004423  -0.006100   0.000034   0.000000   0.000003
    12  C    0.373312  -0.041204  -0.078508   0.001819   0.000000  -0.000101
    13  C    5.020308   0.403297   0.243632  -0.069646  -0.000014   0.002834
    14  H    0.403297   0.542138  -0.042012  -0.003801   0.000107  -0.000172
    15  N    0.243632  -0.042012   6.955634   0.588703  -0.000093  -0.000096
    16  C   -0.069646  -0.003801   0.588703   4.704298   0.002390  -0.000183
    17  H   -0.000014   0.000107  -0.000093   0.002390   0.382613  -0.003196
    18  H    0.002834  -0.000172  -0.000096  -0.000183  -0.003196   0.317651
    19  H   -0.007313   0.000091   0.006955   0.002051   0.000018  -0.000110
    20  H    0.004368  -0.000085  -0.000009  -0.000027   0.000005   0.001420
    21  H   -0.000371   0.000011  -0.000029   0.000001  -0.000000   0.000001
    22  H    0.000192  -0.000063   0.000014  -0.000000  -0.000000   0.000002
    23  H   -0.006835   0.000011   0.007522   0.000107   0.000000   0.000000
    24  H    0.004505  -0.000064  -0.000003   0.000004   0.000000  -0.000000
    25  H   -0.035879  -0.002794   0.000478   0.000070  -0.000000   0.000002
    26  H   -0.047481  -0.001754   0.004835  -0.000044   0.000000   0.000000
    27  H    0.004808  -0.000169  -0.040487   0.404588  -0.000079   0.000002
              19         20         21         22         23         24
     1  O    0.000000   0.000000  -0.000000  -0.000000   0.000000   0.000000
     2  N   -0.000001  -0.000000   0.000000   0.000000  -0.000000   0.000000
     3  O    0.000000   0.000000   0.000000  -0.000000   0.000000   0.000000
     4  C   -0.000727  -0.000045   0.000000   0.000000   0.000022   0.000000
     5  C    0.000503   0.000125   0.000001  -0.000003   0.000000  -0.000000
     6  N    0.000163  -0.001288  -0.000085  -0.000107  -0.000033   0.000006
     7  C   -0.037851  -0.041184   0.004168  -0.003636   0.000829  -0.000128
     8  H    0.004549  -0.002461  -0.000124   0.002950   0.000027  -0.000052
     9  C    0.389054   0.399100  -0.036028  -0.046683  -0.002544   0.004430
    10  C   -0.033610  -0.035390   0.403226   0.396952  -0.040112  -0.038104
    11  C   -0.002315   0.004159  -0.035337  -0.044794   0.399644   0.403444
    12  C    0.000556  -0.000362   0.004483  -0.001717  -0.039697  -0.038168
    13  C   -0.007313   0.004368  -0.000371   0.000192  -0.006835   0.004505
    14  H    0.000091  -0.000085   0.000011  -0.000063   0.000011  -0.000064
    15  N    0.006955  -0.000009  -0.000029   0.000014   0.007522  -0.000003
    16  C    0.002051  -0.000027   0.000001  -0.000000   0.000107   0.000004
    17  H    0.000018   0.000005  -0.000000  -0.000000   0.000000   0.000000
    18  H   -0.000110   0.001420   0.000001   0.000002   0.000000  -0.000000
    19  H    0.512581  -0.025496  -0.003111   0.004113   0.001855  -0.000057
    20  H   -0.025496   0.545468  -0.002817  -0.002935  -0.000054  -0.000086
    21  H   -0.003111  -0.002817   0.524481  -0.027563  -0.002931  -0.002096
    22  H    0.004113  -0.002935  -0.027563   0.570313   0.004223  -0.003476
    23  H    0.001855  -0.000054  -0.002931   0.004223   0.508911  -0.025491
    24  H   -0.000057  -0.000086  -0.002096  -0.003476  -0.025491   0.534160
    25  H   -0.000045   0.000013  -0.000085  -0.000092  -0.002375  -0.002372
    26  H    0.000044  -0.000036  -0.000085   0.002703   0.004294  -0.003111
    27  H    0.000046   0.000000  -0.000000   0.000000  -0.000022  -0.000000
              25         26         27
     1  O    0.000000   0.000000   0.006124
     2  N   -0.000000  -0.000000  -0.000525
     3  O    0.000000   0.000000   0.000021
     4  C    0.000024   0.000007  -0.065168
     5  C    0.000002   0.000001   0.002072
     6  N   -0.000074  -0.000055   0.000073
     7  C    0.005052  -0.002525  -0.000386
     8  H   -0.000109   0.001693   0.000009
     9  C   -0.000400   0.000647  -0.000039
    10  C    0.004328  -0.002804   0.000004
    11  C   -0.032937  -0.042523   0.000005
    12  C    0.398964   0.395403  -0.000014
    13  C   -0.035879  -0.047481   0.004808
    14  H   -0.002794  -0.001754  -0.000169
    15  N    0.000478   0.004835  -0.040487
    16  C    0.000070  -0.000044   0.404588
    17  H   -0.000000   0.000000  -0.000079
    18  H    0.000002   0.000000   0.000002
    19  H   -0.000045   0.000044   0.000046
    20  H    0.000013  -0.000036   0.000000
    21  H   -0.000085  -0.000085  -0.000000
    22  H   -0.000092   0.002703   0.000000
    23  H   -0.002375   0.004294  -0.000022
    24  H   -0.002372  -0.003111  -0.000000
    25  H    0.501412  -0.023909  -0.000020
    26  H   -0.023909   0.563619   0.000001
    27  H   -0.000020   0.000001   0.441453
 Mulliken charges:
               1
     1  O   -0.467177
     2  N    0.487684
     3  O   -0.502279
     4  C    0.004213
     5  C    0.192526
     6  N   -0.775928
     7  C    0.064983
     8  H    0.181609
     9  C   -0.303610
    10  C   -0.324833
    11  C   -0.319452
    12  C   -0.308376
    13  C   -0.032047
    14  H    0.184523
    15  N   -0.515229
    16  C    0.122347
    17  H    0.292125
    18  H    0.400509
    19  H    0.188058
    20  H    0.157616
    21  H    0.174289
    22  H    0.149608
    23  H    0.192647
    24  H    0.166659
    25  H    0.190749
    26  H    0.151082
    27  H    0.247705
 Sum of Mulliken charges =  -0.00000
 Mulliken charges with hydrogens summed into heavy atoms:
               1
     1  O   -0.467177
     2  N    0.487684
     3  O   -0.502279
     4  C    0.004213
     5  C    0.484651
     6  N   -0.375418
     7  C    0.246592
     9  C    0.042065
    10  C   -0.000936
    11  C    0.039854
    12  C    0.033454
    13  C    0.152476
    15  N   -0.515229
    16  C    0.370052
 Electronic spatial extent (au):  <R**2>=           3082.6093
 Charge=              0.0000 electrons
 Dipole moment (field-independent basis, Debye):
    X=              5.5695    Y=              4.7695    Z=              0.7776  Tot=              7.3737
 Quadrupole moment (field-independent basis, Debye-Ang):
   XX=           -106.3940   YY=            -79.1543   ZZ=            -82.0951
   XY=             -2.1116   XZ=              1.9368   YZ=              0.7892
 Traceless Quadrupole moment (field-independent basis, Debye-Ang):
   XX=            -17.1796   YY=             10.0602   ZZ=              7.1194
   XY=             -2.1116   XZ=              1.9368   YZ=              0.7892
 Octapole moment (field-independent basis, Debye-Ang**2):
  XXX=            103.0831  YYY=             37.4392  ZZZ=             -4.8689  XYY=             -3.1190
  XXY=              9.8986  XXZ=             -4.6065  XZZ=             -8.2632  YZZ=             -1.0218
  YYZ=              2.9229  XYZ=              0.0687
 Hexadecapole moment (field-independent basis, Debye-Ang**3):
 XXXX=          -3529.2595 YYYY=           -613.1745 ZZZZ=           -272.6611 XXXY=            -41.9797
 XXXZ=             53.0593 YYYX=            -24.8121 YYYZ=             27.3323 ZZZX=             37.4505
 ZZZY=             20.0449 XXYY=           -651.5119 XXZZ=           -536.8117 YYZZ=           -158.4297
 XXYZ=             -0.3053 YYXZ=             18.2410 ZZXY=              2.3948
 N-N= 9.263372617826D+02 E-N=-3.399323818474D+03  KE= 6.596241244762D+02
 Unable to Open any file for archive entry.
 1\1\GINC-LOTUS\FOpt\RMP2-FC\6-31G(d)\C9H13N3O2\ALEXEY\30-Jun-2023\0\\#
 MP2/6-31G* SCF=Tight Opt=(ModRedun, MaxCycle=100 ) NoSymm\\MolName:\\0
 ,1\O,-3.6011605182,-1.4098106521,-0.1476635412\N,-3.1941129524,-0.2474
 798797,0.0454654645\O,-3.9477357805,0.7240735028,0.2497095218\C,-1.758
 078917,-0.0462669663,0.0496311882\C,-1.3374876881,1.2491394276,0.17499
 06339\N,-0.0778980905,1.7169168911,0.1476450412\C,1.1939349823,1.02207
 88473,0.3500917815\H,1.722940521,1.5578214763,1.1534341767\C,2.0280806
 983,1.0969207188,-0.9330575471\C,3.4123696259,0.475892439,-0.744264049
 \C,3.3116622132,-0.9590722071,-0.2281736915\C,2.4422800171,-1.02987444
 57,1.0246778981\C,1.0490010992,-0.4454520619,0.7878777075\H,0.49827996
 41,-0.4385378761,1.7451798845\N,0.3327575936,-1.3227532372,-0.13133022
 1\C,-0.9298969564,-1.1648793336,-0.3500848527\H,-2.1085767261,2.010350
 9349,0.2620823527\H,-0.0109252593,2.7242043757,0.2469374781\H,1.477469
 3038,0.5635751816,-1.7168144672\H,2.1166169614,2.1425737428,-1.2554588
 075\H,3.9636059792,0.5088653584,-1.6908366124\H,3.9844710333,1.0827280
 124,-0.0279027326\H,2.8608085457,-1.5947686161,-0.9987227174\H,4.30962
 30093,-1.3607269342,-0.0182794268\H,2.3200952197,-2.067515011,1.351202
 0699\H,2.9251713574,-0.4843838047,1.8480187182\H,-1.422285236,-1.93861
 9883,-0.9393752504\\Version=ES64L-G16RevC.02\HF=-661.2990982\MP2=-663.
 3310832\RMSD=8.557e-09\RMSF=3.142e-03\Dipole=2.0334556,1.6800766,0.297
 549\PG=C01 [X(C9H13N3O2)]\\@
 The archive entry for this job was punched.


 A SOLDIER'S LIFE IS A LIFE OF HONOR, BUT A DOG WOULD NOT LEAD IT.
 -- PRINCE RUPERT, FOUNDER OF THE HUDSON'S BAY COMPANY
 Job cpu time:       0 days  1 hours 23 minutes 47.4 seconds.
 Elapsed time:       0 days  0 hours 25 minutes 30.3 seconds.
 File lengths (MBytes):  RWF=     36 Int=      0 D2E=      0 Chk=      7 Scr=      1
 Normal termination of Gaussian 16 at Fri Jun 30 17:28:57 2023.
