 Entering Gaussian System, Link 0=g16
 Initial command:
 /home/alexey/programs//g16/l1.exe "/home/alexey/tmp/Gau-1181286.inp" -scrdir="/home/alexey/tmp/"
 Entering Link 1 = /home/alexey/programs//g16/l1.exe PID=   1181288.
  
 Copyright (c) 1988-2021, Gaussian, Inc.  All Rights Reserved.
  
 This is part of the Gaussian(R) 16 program.  It is based on
 the Gaussian(R) 09 system (copyright 2009, Gaussian, Inc.),
 the Gaussian(R) 03 system (copyright 2003, Gaussian, Inc.),
 the Gaussian(R) 98 system (copyright 1998, Gaussian, Inc.),
 the Gaussian(R) 94 system (copyright 1995, Gaussian, Inc.),
 the Gaussian 92(TM) system (copyright 1992, Gaussian, Inc.),
 the Gaussian 90(TM) system (copyright 1990, Gaussian, Inc.),
 the Gaussian 88(TM) system (copyright 1988, Gaussian, Inc.),
 the Gaussian 86(TM) system (copyright 1986, Carnegie Mellon
 University), and the Gaussian 82(TM) system (copyright 1983,
 Carnegie Mellon University). Gaussian is a federally registered
 trademark of Gaussian, Inc.
  
 This software contains proprietary and confidential information,
 including trade secrets, belonging to Gaussian, Inc.
  
 This software is provided under written license and may be
 used, copied, transmitted, or stored only in accord with that
 written license.
  
 The following legend is applicable only to US Government
 contracts under FAR:
  
                    RESTRICTED RIGHTS LEGEND
  
 Use, reproduction and disclosure by the US Government is
 subject to restrictions as set forth in subparagraphs (a)
 and (c) of the Commercial Computer Software - Restricted
 Rights clause in FAR 52.227-19.
  
 Gaussian, Inc.
 340 Quinnipiac St., Bldg. 40, Wallingford CT 06492
  
  
 ---------------------------------------------------------------
 Warning -- This program may not be used in any manner that
 competes with the business of Gaussian, Inc. or will provide
 assistance to any competitor of Gaussian, Inc.  The licensee
 of this program is prohibited from giving any competitor of
 Gaussian, Inc. access to this program.  By using this program,
 the user acknowledges that Gaussian, Inc. is engaged in the
 business of creating and licensing software in the field of
 computational chemistry and represents and warrants to the
 licensee that it is not a competitor of Gaussian, Inc. and that
 it will not use this program in any manner prohibited above.
 ---------------------------------------------------------------
  

 Cite this work as:
 Gaussian 16, Revision C.02,
 M. J. Frisch, G. W. Trucks, H. B. Schlegel, G. E. Scuseria, 
 M. A. Robb, J. R. Cheeseman, G. Scalmani, V. Barone, 
 G. A. Petersson, H. Nakatsuji, X. Li, M. Caricato, A. V. Marenich, 
 J. Bloino, B. G. Janesko, R. Gomperts, B. Mennucci, H. P. Hratchian, 
 J. V. Ortiz, A. F. Izmaylov, J. L. Sonnenberg, D. Williams-Young, 
 F. Ding, F. Lipparini, F. Egidi, J. Goings, B. Peng, A. Petrone, 
 T. Henderson, D. Ranasinghe, V. G. Zakrzewski, J. Gao, N. Rega, 
 G. Zheng, W. Liang, M. Hada, M. Ehara, K. Toyota, R. Fukuda, 
 J. Hasegawa, M. Ishida, T. Nakajima, Y. Honda, O. Kitao, H. Nakai, 
 T. Vreven, K. Throssell, J. A. Montgomery, Jr., J. E. Peralta, 
 F. Ogliaro, M. J. Bearpark, J. J. Heyd, E. N. Brothers, K. N. Kudin, 
 V. N. Staroverov, T. A. Keith, R. Kobayashi, J. Normand, 
 K. Raghavachari, A. P. Rendell, J. C. Burant, S. S. Iyengar, 
 J. Tomasi, M. Cossi, J. M. Millam, M. Klene, C. Adamo, R. Cammi, 
 J. W. Ochterski, R. L. Martin, K. Morokuma, O. Farkas, 
 J. B. Foresman, and D. J. Fox, Gaussian, Inc., Wallingford CT, 2019.
 
 ******************************************
 Gaussian 16:  ES64L-G16RevC.02  7-Dec-2021
                30-Jun-2023 
 ******************************************
 %mem=8GB
 %NPROCS=4
 Will use up to    4 processors via shared memory.
 %NoSave
 ----------------------------------------------------------
 #MP2/6-31G* SCF=Tight Opt=(ModRedun, MaxCycle=100 ) NoSymm
 ----------------------------------------------------------
 1/6=100,18=120,19=15,38=1/1,3;
 2/9=110,12=2,15=1,17=6,18=5,40=1/2;
 3/5=1,6=6,7=1,11=9,25=1,30=1,71=1/1,2,3;
 4//1;
 5/5=2,32=2,38=5/2;
 8/6=4,10=2/1;
 9/15=2,16=-3/6;
 10/5=1,31=1/2;
 6/7=2,8=2,9=2,10=2/1;
 7/12=2,30=1/1,2,3,16;
 1/6=100,18=20,19=15/3(2);
 2/9=110,15=1/2;
 99//99;
 2/9=110,15=1/2;
 3/5=1,6=6,7=1,11=9,25=1,30=1,71=1/1,2,3;
 4/5=5,16=3,69=1/1;
 5/5=2,32=2,38=5/2;
 8/6=4,10=2/1;
 9/15=2,16=-3/6;
 10/5=1,31=1/2;
 7/12=2,30=1/1,2,3,16;
 1/6=100,18=20,19=15/3(-8);
 2/9=110,15=1/2;
 6/7=2,8=2,9=2,10=2/1;
 99/9=10/99;
 --------
 MolName:
 --------
 Symbolic Z-matrix:
 Charge =  0 Multiplicity = 1
 8                    0    -3.56342  -1.3911   -0.39968 
 7                    0    -3.20237  -0.24203  -0.15155 
 8                    0    -3.98189   0.70027  -0.00527 
 6                    0    -1.70006   0.02438  -0.05004 
 6                    0    -1.33232   1.31687   0.37134 
 7                    0    -0.05067   1.7545    0.59782 
 6                    0     1.18326   0.96242   0.33478 
 1                    0     1.93779   1.44794   1.01694 
 6                    0     1.87131   0.98058  -1.05236 
 6                    0     3.30311   0.441    -0.85496 
 6                    0     3.28572  -0.94358  -0.17954 
 6                    0     2.45784  -0.94135   1.13302 
 6                    0     0.9985   -0.45126   0.88932 
 1                    0     0.44948  -0.48672   1.85792 
 7                    0     0.42353  -1.35271  -0.10055 
 6                    0    -0.80086  -1.10795  -0.45355 
 1                    0    -2.13129   2.04664   0.58343 
 1                    0     0.19202   2.74708   0.54621 
 1                    0     1.31567   0.36712  -1.78969 
 1                    0     1.92151   2.02026  -1.43924 
 1                    0     3.81989   0.37292  -1.83704 
 1                    0     3.87897   1.14539  -0.21471 
 1                    0     2.85772  -1.68652  -0.88873 
 1                    0     4.32717  -1.26332   0.04223 
 1                    0     2.4308   -1.97462   1.543 
 1                    0     2.95278  -0.29544   1.88679 
 1                    0    -1.28519  -1.8288   -1.12989 
 
 The following ModRedundant input section has been read:
 D       6       7      13      15 F                                           
 D       1       2       4      16 F                                           
 D       7      13      15      16 F                                           
 D       7       9      10      11 F                                           
 D       9      10      11      12 F                                           
 

 GradGradGradGradGradGradGradGradGradGradGradGradGradGradGradGradGradGrad
 Berny optimization.
 Initialization pass.
                           ----------------------------
                           !    Initial Parameters    !
                           ! (Angstroms and Degrees)  !
 --------------------------                            --------------------------
 ! Name  Definition              Value          Derivative Info.                !
 --------------------------------------------------------------------------------
 ! R1    R(1,2)                  1.2298         estimate D2E/DX2                !
 ! R2    R(2,3)                  1.2317         estimate D2E/DX2                !
 ! R3    R(2,4)                  1.5291         estimate D2E/DX2                !
 ! R4    R(4,5)                  1.4083         estimate D2E/DX2                !
 ! R5    R(4,16)                 1.5012         estimate D2E/DX2                !
 ! R6    R(5,6)                  1.3731         estimate D2E/DX2                !
 ! R7    R(5,17)                 1.1027         estimate D2E/DX2                !
 ! R8    R(6,7)                  1.4897         estimate D2E/DX2                !
 ! R9    R(6,18)                 1.0231         estimate D2E/DX2                !
 ! R10   R(7,8)                  1.1271         estimate D2E/DX2                !
 ! R11   R(7,9)                  1.5485         estimate D2E/DX2                !
 ! R12   R(7,13)                 1.5298         estimate D2E/DX2                !
 ! R13   R(9,10)                 1.5428         estimate D2E/DX2                !
 ! R14   R(9,19)                 1.1085         estimate D2E/DX2                !
 ! R15   R(9,20)                 1.1105         estimate D2E/DX2                !
 ! R16   R(10,11)                1.5406         estimate D2E/DX2                !
 ! R17   R(10,21)                1.1118         estimate D2E/DX2                !
 ! R18   R(10,22)                1.1125         estimate D2E/DX2                !
 ! R19   R(11,12)                1.5518         estimate D2E/DX2                !
 ! R20   R(11,23)                1.1127         estimate D2E/DX2                !
 ! R21   R(11,24)                1.1118         estimate D2E/DX2                !
 ! R22   R(12,13)                1.5586         estimate D2E/DX2                !
 ! R23   R(12,25)                1.112          estimate D2E/DX2                !
 ! R24   R(12,26)                1.1092         estimate D2E/DX2                !
 ! R25   R(13,14)                1.1139         estimate D2E/DX2                !
 ! R26   R(13,15)                1.4571         estimate D2E/DX2                !
 ! R27   R(15,16)                1.2976         estimate D2E/DX2                !
 ! R28   R(16,27)                1.1007         estimate D2E/DX2                !
 ! A1    A(1,2,3)              123.5744         estimate D2E/DX2                !
 ! A2    A(1,2,4)              117.6867         estimate D2E/DX2                !
 ! A3    A(3,2,4)              118.7265         estimate D2E/DX2                !
 ! A4    A(2,4,5)              115.8682         estimate D2E/DX2                !
 ! A5    A(2,4,16)             116.0549         estimate D2E/DX2                !
 ! A6    A(5,4,16)             128.0447         estimate D2E/DX2                !
 ! A7    A(4,5,6)              125.8443         estimate D2E/DX2                !
 ! A8    A(4,5,17)             118.4074         estimate D2E/DX2                !
 ! A9    A(6,5,17)             115.6997         estimate D2E/DX2                !
 ! A10   A(5,6,7)              125.0684         estimate D2E/DX2                !
 ! A11   A(5,6,18)             121.4856         estimate D2E/DX2                !
 ! A12   A(7,6,18)             108.0863         estimate D2E/DX2                !
 ! A13   A(6,7,8)              102.6265         estimate D2E/DX2                !
 ! A14   A(6,7,9)              121.331          estimate D2E/DX2                !
 ! A15   A(6,7,13)             109.1059         estimate D2E/DX2                !
 ! A16   A(8,7,9)              103.8661         estimate D2E/DX2                !
 ! A17   A(8,7,13)             105.0425         estimate D2E/DX2                !
 ! A18   A(9,7,13)             112.9065         estimate D2E/DX2                !
 ! A19   A(7,9,10)             107.0765         estimate D2E/DX2                !
 ! A20   A(7,9,19)             111.5084         estimate D2E/DX2                !
 ! A21   A(7,9,20)             110.0691         estimate D2E/DX2                !
 ! A22   A(10,9,19)            110.9012         estimate D2E/DX2                !
 ! A23   A(10,9,20)            109.2733         estimate D2E/DX2                !
 ! A24   A(19,9,20)            108.0029         estimate D2E/DX2                !
 ! A25   A(9,10,11)            111.0964         estimate D2E/DX2                !
 ! A26   A(9,10,21)            109.8623         estimate D2E/DX2                !
 ! A27   A(9,10,22)            109.4253         estimate D2E/DX2                !
 ! A28   A(11,10,21)           109.722          estimate D2E/DX2                !
 ! A29   A(11,10,22)           108.8177         estimate D2E/DX2                !
 ! A30   A(21,10,22)           107.8493         estimate D2E/DX2                !
 ! A31   A(10,11,12)           112.0575         estimate D2E/DX2                !
 ! A32   A(10,11,23)           108.9644         estimate D2E/DX2                !
 ! A33   A(10,11,24)           109.5933         estimate D2E/DX2                !
 ! A34   A(12,11,23)           109.5629         estimate D2E/DX2                !
 ! A35   A(12,11,24)           109.3559         estimate D2E/DX2                !
 ! A36   A(23,11,24)           107.1835         estimate D2E/DX2                !
 ! A37   A(11,12,13)           111.5744         estimate D2E/DX2                !
 ! A38   A(11,12,25)           108.8739         estimate D2E/DX2                !
 ! A39   A(11,12,26)           109.7288         estimate D2E/DX2                !
 ! A40   A(13,12,25)           109.091          estimate D2E/DX2                !
 ! A41   A(13,12,26)           109.9343         estimate D2E/DX2                !
 ! A42   A(25,12,26)           107.542          estimate D2E/DX2                !
 ! A43   A(7,13,12)            103.5431         estimate D2E/DX2                !
 ! A44   A(7,13,14)            113.8379         estimate D2E/DX2                !
 ! A45   A(7,13,15)            111.9083         estimate D2E/DX2                !
 ! A46   A(12,13,14)           108.3914         estimate D2E/DX2                !
 ! A47   A(12,13,15)           106.3296         estimate D2E/DX2                !
 ! A48   A(14,13,15)           112.1193         estimate D2E/DX2                !
 ! A49   A(13,15,16)           116.1342         estimate D2E/DX2                !
 ! A50   A(4,16,15)            129.3738         estimate D2E/DX2                !
 ! A51   A(4,16,27)            113.3013         estimate D2E/DX2                !
 ! A52   A(15,16,27)           117.311          estimate D2E/DX2                !
 ! D1    D(1,2,4,5)           -173.6366         estimate D2E/DX2                !
 ! D2    D(1,2,4,16)             8.2594         Frozen                          !
 ! D3    D(3,2,4,5)              7.6022         estimate D2E/DX2                !
 ! D4    D(3,2,4,16)          -170.5018         estimate D2E/DX2                !
 ! D5    D(2,4,5,6)            176.4753         estimate D2E/DX2                !
 ! D6    D(2,4,5,17)            -0.8707         estimate D2E/DX2                !
 ! D7    D(16,4,5,6)            -5.6876         estimate D2E/DX2                !
 ! D8    D(16,4,5,17)          176.9663         estimate D2E/DX2                !
 ! D9    D(2,4,16,15)         -155.8383         estimate D2E/DX2                !
 ! D10   D(2,4,16,27)           22.7484         estimate D2E/DX2                !
 ! D11   D(5,4,16,15)           26.328          estimate D2E/DX2                !
 ! D12   D(5,4,16,27)         -155.0852         estimate D2E/DX2                !
 ! D13   D(4,5,6,7)              4.9601         estimate D2E/DX2                !
 ! D14   D(4,5,6,18)           155.9731         estimate D2E/DX2                !
 ! D15   D(17,5,6,7)          -177.6305         estimate D2E/DX2                !
 ! D16   D(17,5,6,18)          -26.6175         estimate D2E/DX2                !
 ! D17   D(5,6,7,8)           -157.2182         estimate D2E/DX2                !
 ! D18   D(5,6,7,9)             87.7015         estimate D2E/DX2                !
 ! D19   D(5,6,7,13)           -46.1752         estimate D2E/DX2                !
 ! D20   D(18,6,7,8)            48.5507         estimate D2E/DX2                !
 ! D21   D(18,6,7,9)           -66.5295         estimate D2E/DX2                !
 ! D22   D(18,6,7,13)          159.5938         estimate D2E/DX2                !
 ! D23   D(6,7,9,10)           162.6597         estimate D2E/DX2                !
 ! D24   D(6,7,9,19)           -75.8602         estimate D2E/DX2                !
 ! D25   D(6,7,9,20)            43.9842         estimate D2E/DX2                !
 ! D26   D(8,7,9,10)            48.212          estimate D2E/DX2                !
 ! D27   D(8,7,9,19)           169.6921         estimate D2E/DX2                !
 ! D28   D(8,7,9,20)           -70.4635         estimate D2E/DX2                !
 ! D29   D(13,7,9,10)          -65.0238         estimate D2E/DX2                !
 ! D30   D(13,7,9,19)           56.4563         estimate D2E/DX2                !
 ! D31   D(13,7,9,20)          176.3007         estimate D2E/DX2                !
 ! D32   D(6,7,13,12)         -155.8889         estimate D2E/DX2                !
 ! D33   D(6,7,13,14)          -38.4227         estimate D2E/DX2                !
 ! D34   D(6,7,13,15)           89.995          Frozen                          !
 ! D35   D(8,7,13,12)          -46.4599         estimate D2E/DX2                !
 ! D36   D(8,7,13,14)           71.0063         estimate D2E/DX2                !
 ! D37   D(8,7,13,15)         -160.576          estimate D2E/DX2                !
 ! D38   D(9,7,13,12)           66.0572         estimate D2E/DX2                !
 ! D39   D(9,7,13,14)         -176.4766         estimate D2E/DX2                !
 ! D40   D(9,7,13,15)          -48.0589         estimate D2E/DX2                !
 ! D41   D(7,9,10,11)           54.8096         Frozen                          !
 ! D42   D(7,9,10,21)          176.4069         estimate D2E/DX2                !
 ! D43   D(7,9,10,22)          -65.3659         estimate D2E/DX2                !
 ! D44   D(19,9,10,11)         -67.0524         estimate D2E/DX2                !
 ! D45   D(19,9,10,21)          54.545          estimate D2E/DX2                !
 ! D46   D(19,9,10,22)         172.7721         estimate D2E/DX2                !
 ! D47   D(20,9,10,11)         173.9998         estimate D2E/DX2                !
 ! D48   D(20,9,10,21)         -64.4029         estimate D2E/DX2                !
 ! D49   D(20,9,10,22)          53.8243         estimate D2E/DX2                !
 ! D50   D(9,10,11,12)         -52.8194         Frozen                          !
 ! D51   D(9,10,11,23)          68.5973         estimate D2E/DX2                !
 ! D52   D(9,10,11,24)        -174.4081         estimate D2E/DX2                !
 ! D53   D(21,10,11,12)       -174.4987         estimate D2E/DX2                !
 ! D54   D(21,10,11,23)        -53.082          estimate D2E/DX2                !
 ! D55   D(21,10,11,24)         63.9126         estimate D2E/DX2                !
 ! D56   D(22,10,11,12)         67.7158         estimate D2E/DX2                !
 ! D57   D(22,10,11,23)       -170.8675         estimate D2E/DX2                !
 ! D58   D(22,10,11,24)        -53.8729         estimate D2E/DX2                !
 ! D59   D(10,11,12,13)         56.264          estimate D2E/DX2                !
 ! D60   D(10,11,12,25)        176.7197         estimate D2E/DX2                !
 ! D61   D(10,11,12,26)        -65.8289         estimate D2E/DX2                !
 ! D62   D(23,11,12,13)        -64.8079         estimate D2E/DX2                !
 ! D63   D(23,11,12,25)         55.6478         estimate D2E/DX2                !
 ! D64   D(23,11,12,26)        173.0992         estimate D2E/DX2                !
 ! D65   D(24,11,12,13)        177.9888         estimate D2E/DX2                !
 ! D66   D(24,11,12,25)        -61.5554         estimate D2E/DX2                !
 ! D67   D(24,11,12,26)         55.896          estimate D2E/DX2                !
 ! D68   D(11,12,13,7)         -59.7229         estimate D2E/DX2                !
 ! D69   D(11,12,13,14)        179.0673         estimate D2E/DX2                !
 ! D70   D(11,12,13,15)         58.3437         estimate D2E/DX2                !
 ! D71   D(25,12,13,7)         179.9486         estimate D2E/DX2                !
 ! D72   D(25,12,13,14)         58.7388         estimate D2E/DX2                !
 ! D73   D(25,12,13,15)        -61.9847         estimate D2E/DX2                !
 ! D74   D(26,12,13,7)          62.2515         estimate D2E/DX2                !
 ! D75   D(26,12,13,14)        -58.9583         estimate D2E/DX2                !
 ! D76   D(26,12,13,15)       -179.6819         estimate D2E/DX2                !
 ! D77   D(7,13,15,16)         -67.1591         Frozen                          !
 ! D78   D(12,13,15,16)       -179.5449         estimate D2E/DX2                !
 ! D79   D(14,13,15,16)         62.1628         estimate D2E/DX2                !
 ! D80   D(13,15,16,4)           3.9709         estimate D2E/DX2                !
 ! D81   D(13,15,16,27)       -174.5683         estimate D2E/DX2                !
 --------------------------------------------------------------------------------
 Trust Radius=3.00D-01 FncErr=1.00D-07 GrdErr=1.00D-07 EigMax=2.50D+02 EigMin=1.00D-04
 Number of steps in this run=    100 maximum allowed number of steps=    162.
 GradGradGradGradGradGradGradGradGradGradGradGradGradGradGradGradGradGrad

                          Input orientation:                          
 ---------------------------------------------------------------------
 Center     Atomic      Atomic             Coordinates (Angstroms)
 Number     Number       Type             X           Y           Z
 ---------------------------------------------------------------------
      1          8           0       -3.563420   -1.391100   -0.399680
      2          7           0       -3.202370   -0.242030   -0.151550
      3          8           0       -3.981890    0.700270   -0.005270
      4          6           0       -1.700060    0.024380   -0.050040
      5          6           0       -1.332320    1.316870    0.371340
      6          7           0       -0.050670    1.754500    0.597820
      7          6           0        1.183260    0.962420    0.334780
      8          1           0        1.937790    1.447940    1.016940
      9          6           0        1.871310    0.980580   -1.052360
     10          6           0        3.303110    0.441000   -0.854960
     11          6           0        3.285720   -0.943580   -0.179540
     12          6           0        2.457840   -0.941350    1.133020
     13          6           0        0.998500   -0.451260    0.889320
     14          1           0        0.449480   -0.486720    1.857920
     15          7           0        0.423530   -1.352710   -0.100550
     16          6           0       -0.800860   -1.107950   -0.453550
     17          1           0       -2.131290    2.046640    0.583430
     18          1           0        0.192020    2.747080    0.546210
     19          1           0        1.315670    0.367120   -1.789690
     20          1           0        1.921510    2.020260   -1.439240
     21          1           0        3.819890    0.372920   -1.837040
     22          1           0        3.878970    1.145390   -0.214710
     23          1           0        2.857720   -1.686520   -0.888730
     24          1           0        4.327170   -1.263320    0.042230
     25          1           0        2.430800   -1.974620    1.543000
     26          1           0        2.952780   -0.295440    1.886790
     27          1           0       -1.285190   -1.828800   -1.129890
 ---------------------------------------------------------------------
                    Distance matrix (angstroms):
                    1          2          3          4          5
     1  O    0.000000
     2  N    1.229751   0.000000
     3  O    2.168987   1.231657   0.000000
     4  C    2.365997   1.529122   2.380248   0.000000
     5  C    3.592406   2.490114   2.746316   1.408305   0.000000
     6  N    4.819670   3.805378   4.114561   2.476595   1.373113
     7  C    5.348781   4.573944   5.182965   3.056393   2.540692
     8  H    6.350612   5.535577   6.053638   4.049558   3.335805
     9  C    5.965496   5.296080   5.952724   3.830620   3.521826
    10  C    7.121313   6.578950   7.338966   5.084602   4.874235
    11  C    6.867274   6.525969   7.453239   5.080523   5.171015
    12  C    6.229528   5.846122   6.742458   4.429492   4.477167
    13  C    4.832798   4.332955   5.189470   2.896698   2.971079
    14  H    4.692337   4.175386   4.951511   2.919256   2.938991
    15  N    3.998340   3.792540   4.861227   2.531514   3.229914
    16  C    2.777555   2.570656   3.686403   1.501184   2.615845
    17  H    3.851695   2.631619   2.363049   2.162586   1.102678
    18  H    5.667678   4.576410   4.681355   3.368765   2.097544
    19  H    5.369263   4.844301   5.599936   3.498354   3.547383
    20  H    6.542363   5.747195   6.216814   4.362245   3.789508
    21  H    7.725997   7.247839   8.020618   5.812461   5.684475
    22  H    7.864933   7.216252   7.876237   5.692922   5.246942
    23  H    6.446509   6.273331   7.297776   4.940034   5.307030
    24  H    7.903988   7.600958   8.538057   6.163942   6.228605
    25  H    6.328126   6.132371   7.118621   4.857755   5.134955
    26  H    6.992087   6.484100   7.256788   5.050002   4.822677
    27  H    2.432102   2.674054   3.864344   2.184598   3.485850
                    6          7          8          9         10
     6  N    0.000000
     7  C    1.489686   0.000000
     8  H    2.055143   1.127115   0.000000
     9  C    2.648783   1.548515   2.122463   0.000000
    10  C    3.883773   2.486187   2.526269   1.542778   0.000000
    11  C    4.360668   2.884042   2.994636   2.542590   1.540635
    12  C    3.721111   2.426125   2.447986   2.968791   2.564652
    13  C    2.459900   1.529752   2.122619   2.565557   3.024875
    14  H    2.619364   2.226745   2.581709   3.555882   4.045193
    15  N    3.219835   2.475183   3.374227   2.906244   3.475415
    16  C    3.140348   2.973992   4.024316   3.443984   4.404878
    17  H    2.101079   3.496227   4.135672   4.453437   5.846345
    18  H    1.023121   2.052382   2.226447   2.914784   4.118272
    19  H    3.080895   2.210269   3.071218   1.108478   2.197520
    20  H    2.847760   2.193441   2.522030   1.110464   2.178133
    21  H    4.776876   3.466429   3.583737   2.186764   1.111835
    22  H    4.058730   2.757221   2.318766   2.181632   1.112520
    23  H    4.744384   3.364175   3.781890   2.848368   2.173903
    24  H    5.346158   3.863117   3.743010   3.502066   2.181365
    25  H    4.577925   3.412090   3.497673   3.972673   3.513738
    26  H    3.858032   2.668735   2.196865   3.381776   2.860466
    27  H    4.165220   4.003675   5.072820   4.226360   5.126410
                   11         12         13         14         15
    11  C    0.000000
    12  C    1.551839   0.000000
    13  C    2.572201   1.558606   0.000000
    14  H    3.521963   2.183043   1.113942   0.000000
    15  N    2.892362   2.414400   1.457067   2.141545   0.000000
    16  C    4.099053   3.628235   2.339282   2.700402   1.297554
    17  H    6.234383   5.503658   4.016050   3.834398   4.307031
    18  H    4.870181   4.368387   3.316250   3.499190   4.156943
    19  H    2.862100   3.399835   2.819120   3.845047   2.570394
    20  H    3.497465   3.959205   3.518885   4.395803   3.925934
    21  H    2.183075   3.521895   4.009059   5.074581   4.186700
    22  H    2.171861   2.861900   3.473511   4.326775   4.265396
    23  H    1.112697   2.191496   2.853774   3.844896   2.580298
    24  H    1.111771   2.188123   3.529454   4.351588   3.907273
    25  H    2.181989   1.111963   2.190755   2.497729   2.667801
    26  H    2.191040   1.109204   2.199645   2.510763   3.385919
    27  H    4.751842   4.463026   3.345156   3.706382   2.050836
                   16         17         18         19         20
    16  C    0.000000
    17  H    3.577263   0.000000
    18  H    4.104459   2.426885   0.000000
    19  H    2.905306   4.509326   3.518981   0.000000
    20  H    4.262462   4.529578   2.731559   1.795196   0.000000
    21  H    5.045627   6.639018   4.947520   2.504674   2.544763
    22  H    5.199557   6.129641   4.091211   3.107535   2.469113
    23  H    3.729522   6.402653   5.368596   2.721596   3.862612
    24  H    5.154283   7.277392   5.782454   3.883735   4.331726
    25  H    3.896275   6.156620   5.319791   4.223042   5.011207
    26  H    4.497463   5.747334   4.321560   4.078679   4.181921
    27  H    1.100743   4.320924   5.092164   3.467257   5.019351
                   21         22         23         24         25
    21  H    0.000000
    22  H    1.797820   0.000000
    23  H    2.462997   3.084958   0.000000
    24  H    2.542886   2.463490   1.790270   0.000000
    25  H    4.343407   3.862797   2.485674   2.520809   0.000000
    26  H    3.881429   2.711111   3.106067   2.495624   1.791731
    27  H    5.604416   6.029254   4.152361   5.761269   4.579758
                   26         27
    26  H    0.000000
    27  H    5.423278   0.000000
 Symmetry turned off by external request.
 Stoichiometry    C9H13N3O2
 Framework group  C1[X(C9H13N3O2)]
 Deg. of freedom    75
 Full point group                 C1      NOp   1
 Rotational constants (GHZ):           1.6455401           0.4086675           0.3664602
 Standard basis: 6-31G(d) (6D, 7F)
   236 basis functions,   444 primitive gaussians,   236 cartesian basis functions
    52 alpha electrons       52 beta electrons
       nuclear repulsion energy       921.5690513923 Hartrees.
 NAtoms=   27 NActive=   27 NUniq=   27 SFac= 1.00D+00 NAtFMM=   60 NAOKFM=F Big=F
 Integral buffers will be    131072 words long.
 Raffenetti 1 integral format.
 Two-electron integral symmetry is turned off.
 One-electron integrals computed using PRISM.
 NBasis=   236 RedAO= T EigKep=  1.30D-03  NBF=   236
 NBsUse=   236 1.00D-06 EigRej= -1.00D+00 NBFU=   236
 ExpMin= 1.61D-01 ExpMax= 5.48D+03 ExpMxC= 8.25D+02 IAcc=3 IRadAn=         5 AccDes= 0.00D+00
 Harris functional with IExCor=  205 and IRadAn=       5 diagonalized for initial guess.
 HarFok:  IExCor=  205 AccDes= 0.00D+00 IRadAn=         5 IDoV= 1 UseB2=F ITyADJ=14
 ICtDFT=  3500011 ScaDFX=  1.000000  1.000000  1.000000  1.000000
 FoFCou: FMM=F IPFlag=           0 FMFlag=      100000 FMFlg1=           0
         NFxFlg=           0 DoJE=T BraDBF=F KetDBF=T FulRan=T
         wScrn=  0.000000 ICntrl=       500 IOpCl=  0 I1Cent=   200000004 NGrid=           0
         NMat0=    1 NMatS0=      1 NMatT0=    0 NMatD0=    1 NMtDS0=    0 NMtDT0=    0
 Symmetry not used in FoFCou.
 Keep R1 ints in memory in canonical form, NReq=397720213.
 Requested convergence on RMS density matrix=1.00D-08 within 128 cycles.
 Requested convergence on MAX density matrix=1.00D-06.
 Requested convergence on             energy=1.00D-06.
 No special actions if energy rises.
 SCF Done:  E(RHF) =  -661.271851337     A.U. after   16 cycles
            NFock= 16  Conv=0.79D-08     -V/T= 2.0037
 ExpMin= 1.61D-01 ExpMax= 5.48D+03 ExpMxC= 8.25D+02 IAcc=3 IRadAn=         5 AccDes= 0.00D+00
 HarFok:  IExCor=  205 AccDes= 0.00D+00 IRadAn=         5 IDoV=-2 UseB2=F ITyADJ=14
 ICtDFT= 12500011 ScaDFX=  1.000000  1.000000  1.000000  1.000000
 Range of M.O.s used for correlation:    15   236
 NBasis=   236 NAE=    52 NBE=    52 NFC=    14 NFV=     0
 NROrb=    222 NOA=    38 NOB=    38 NVA=   184 NVB=   184
 Fully direct method using O(ONN) memory.
 JobTyp=1 Pass  1:  I=  15 to  52 NPSUse=  4 ParTrn=T ParDer=T DoDerP=T.
 Spin components of T(2) and E(2):
     alpha-alpha T2 =       0.9235183209D-01 E2=     -0.2724000921D+00
     alpha-beta  T2 =       0.5013331880D+00 E2=     -0.1496073153D+01
     beta-beta   T2 =       0.9235183209D-01 E2=     -0.2724000921D+00
 ANorm=    0.1298474818D+01
 E2 =    -0.2040873338D+01 EUMP2 =    -0.66331272467470D+03
          IDoAtm=111111111111111111111111111
          Differentiating once with respect to electric field.
                with respect to dipole field.
          Differentiating once with respect to nuclear coordinates.
 Keep R1 ints in memory in canonical form, NReq=397723379.
          There are     1 degrees of freedom in the 1st order CPHF.  IDoFFX=0 NUNeed=     1.
 LinEq1:  Iter=  0 NonCon=     1 RMS=4.63D-03 Max=1.12D-01 NDo=     1
 AX will form     1 AO Fock derivatives at one time.
 LinEq1:  Iter=  1 NonCon=     1 RMS=1.58D-03 Max=3.44D-02 NDo=     1
 LinEq1:  Iter=  2 NonCon=     1 RMS=6.46D-04 Max=1.78D-02 NDo=     1
 LinEq1:  Iter=  3 NonCon=     1 RMS=2.98D-04 Max=9.69D-03 NDo=     1
 LinEq1:  Iter=  4 NonCon=     1 RMS=9.33D-05 Max=2.38D-03 NDo=     1
 LinEq1:  Iter=  5 NonCon=     1 RMS=3.88D-05 Max=1.92D-03 NDo=     1
 LinEq1:  Iter=  6 NonCon=     1 RMS=1.61D-05 Max=5.91D-04 NDo=     1
 LinEq1:  Iter=  7 NonCon=     1 RMS=6.10D-06 Max=8.99D-05 NDo=     1
 LinEq1:  Iter=  8 NonCon=     1 RMS=2.44D-06 Max=5.90D-05 NDo=     1
 LinEq1:  Iter=  9 NonCon=     1 RMS=9.03D-07 Max=2.59D-05 NDo=     1
 LinEq1:  Iter= 10 NonCon=     1 RMS=4.41D-07 Max=1.52D-05 NDo=     1
 LinEq1:  Iter= 11 NonCon=     1 RMS=1.60D-07 Max=5.77D-06 NDo=     1
 LinEq1:  Iter= 12 NonCon=     1 RMS=5.70D-08 Max=8.60D-07 NDo=     1
 LinEq1:  Iter= 13 NonCon=     1 RMS=1.78D-08 Max=3.55D-07 NDo=     1
 LinEq1:  Iter= 14 NonCon=     1 RMS=5.77D-09 Max=1.60D-07 NDo=     1
 LinEq1:  Iter= 15 NonCon=     1 RMS=2.17D-09 Max=5.81D-08 NDo=     1
 LinEq1:  Iter= 16 NonCon=     1 RMS=8.04D-10 Max=1.51D-08 NDo=     1
 LinEq1:  Iter= 17 NonCon=     1 RMS=2.68D-10 Max=4.25D-09 NDo=     1
 LinEq1:  Iter= 18 NonCon=     1 RMS=9.41D-11 Max=1.30D-09 NDo=     1
 LinEq1:  Iter= 19 NonCon=     0 RMS=3.23D-11 Max=3.93D-10 NDo=     1
 Linear equations converged to 1.000D-10 1.000D-09 after    19 iterations.
 End of Minotr F.D. properties file   721 does not exist.
 End of Minotr F.D. properties file   722 does not exist.
 End of Minotr F.D. properties file   788 does not exist.

 **********************************************************************

            Population analysis using the SCF Density.

 **********************************************************************

 Alpha  occ. eigenvalues --  -20.59865 -20.59444 -15.85352 -15.63523 -15.56908
 Alpha  occ. eigenvalues --  -11.35992 -11.30595 -11.30471 -11.29762 -11.27224
 Alpha  occ. eigenvalues --  -11.24764 -11.23962 -11.23130 -11.22817  -1.58538
 Alpha  occ. eigenvalues --   -1.38024  -1.28918  -1.23043  -1.13023  -1.08267
 Alpha  occ. eigenvalues --   -1.01596  -1.00411  -0.93626  -0.88808  -0.84949
 Alpha  occ. eigenvalues --   -0.81415  -0.78015  -0.76980  -0.74102  -0.71185
 Alpha  occ. eigenvalues --   -0.70383  -0.69862  -0.67664  -0.64330  -0.63244
 Alpha  occ. eigenvalues --   -0.61382  -0.59746  -0.57142  -0.56645  -0.54574
 Alpha  occ. eigenvalues --   -0.53805  -0.50539  -0.49208  -0.48473  -0.47835
 Alpha  occ. eigenvalues --   -0.47673  -0.45999  -0.45197  -0.44043  -0.42292
 Alpha  occ. eigenvalues --   -0.40289  -0.33963
 Alpha virt. eigenvalues --    0.07248   0.11609   0.17858   0.21675   0.23289
 Alpha virt. eigenvalues --    0.24390   0.26381   0.27571   0.28593   0.28940
 Alpha virt. eigenvalues --    0.29683   0.31372   0.31586   0.32489   0.33519
 Alpha virt. eigenvalues --    0.34025   0.34449   0.35257   0.37064   0.38444
 Alpha virt. eigenvalues --    0.40777   0.42187   0.44350   0.45150   0.45798
 Alpha virt. eigenvalues --    0.46022   0.50075   0.53406   0.57619   0.59075
 Alpha virt. eigenvalues --    0.63011   0.68443   0.70346   0.72784   0.74328
 Alpha virt. eigenvalues --    0.74860   0.76155   0.76460   0.78705   0.79027
 Alpha virt. eigenvalues --    0.80911   0.82773   0.84343   0.86635   0.87996
 Alpha virt. eigenvalues --    0.89018   0.90113   0.90555   0.91815   0.94107
 Alpha virt. eigenvalues --    0.95259   0.96694   0.98611   1.00986   1.02019
 Alpha virt. eigenvalues --    1.03178   1.05196   1.06622   1.07243   1.07983
 Alpha virt. eigenvalues --    1.09659   1.10864   1.11430   1.12029   1.13329
 Alpha virt. eigenvalues --    1.14033   1.14520   1.15531   1.16406   1.17267
 Alpha virt. eigenvalues --    1.18472   1.20303   1.20661   1.21476   1.22559
 Alpha virt. eigenvalues --    1.23176   1.24533   1.24802   1.26740   1.27755
 Alpha virt. eigenvalues --    1.29428   1.30674   1.32359   1.35940   1.39089
 Alpha virt. eigenvalues --    1.42960   1.47556   1.48134   1.49334   1.52992
 Alpha virt. eigenvalues --    1.55424   1.57844   1.59160   1.61973   1.64744
 Alpha virt. eigenvalues --    1.68222   1.69625   1.72428   1.74603   1.77515
 Alpha virt. eigenvalues --    1.80007   1.81941   1.85283   1.88838   1.91906
 Alpha virt. eigenvalues --    1.93427   1.96110   1.96380   1.98088   2.01401
 Alpha virt. eigenvalues --    2.03432   2.04560   2.06154   2.09561   2.11820
 Alpha virt. eigenvalues --    2.12649   2.13947   2.17557   2.18208   2.19454
 Alpha virt. eigenvalues --    2.20092   2.21707   2.24810   2.26024   2.27115
 Alpha virt. eigenvalues --    2.29840   2.32088   2.33326   2.35080   2.36127
 Alpha virt. eigenvalues --    2.39182   2.41190   2.42892   2.44033   2.46963
 Alpha virt. eigenvalues --    2.48432   2.49934   2.52375   2.56713   2.58544
 Alpha virt. eigenvalues --    2.61557   2.64576   2.65303   2.68433   2.68793
 Alpha virt. eigenvalues --    2.69637   2.71089   2.75160   2.76820   2.80841
 Alpha virt. eigenvalues --    2.84423   2.87665   2.89400   2.91158   2.94910
 Alpha virt. eigenvalues --    2.97670   2.98515   3.02099   3.03688   3.05293
 Alpha virt. eigenvalues --    3.06542   3.13803   3.18681   3.22431   3.26760
 Alpha virt. eigenvalues --    3.30887   3.32556   3.36604   3.42853   3.57972
 Alpha virt. eigenvalues --    4.10348   4.22908   4.33242   4.36195   4.44336
 Alpha virt. eigenvalues --    4.52170   4.59595   4.60223   4.71201   4.78247
 Alpha virt. eigenvalues --    4.95503   5.00092   5.03477   5.11173
          Condensed to atoms (all electrons):
               1          2          3          4          5          6
     1  O    8.299713   0.313066  -0.090015  -0.078810   0.003479  -0.000012
     2  N    0.313066   5.676841   0.309854   0.269173  -0.046685   0.000823
     3  O   -0.090015   0.309854   8.330713  -0.087257   0.007795   0.000464
     4  C   -0.078810   0.269173  -0.087257   5.239255   0.564358  -0.048385
     5  C    0.003479  -0.046685   0.007795   0.564358   4.691133   0.305222
     6  N   -0.000012   0.000823   0.000464  -0.048385   0.305222   7.171481
     7  C    0.000003  -0.000117   0.000001   0.005792  -0.035748   0.202450
     8  H   -0.000000   0.000002  -0.000000  -0.000363   0.003851  -0.055243
     9  C   -0.000000  -0.000006   0.000000   0.000963   0.000840  -0.041820
    10  C   -0.000000   0.000000  -0.000000  -0.000027  -0.000059   0.002976
    11  C   -0.000000  -0.000000  -0.000000  -0.000015   0.000009  -0.000063
    12  C   -0.000000   0.000001  -0.000000  -0.000146  -0.000117   0.004775
    13  C   -0.000025  -0.000029  -0.000003  -0.010267  -0.001591  -0.058397
    14  H   -0.000002  -0.000049   0.000000   0.003091   0.004606  -0.006459
    15  N    0.000207   0.001464  -0.000012  -0.061230  -0.002137   0.001071
    16  C    0.002781  -0.026311   0.001906   0.318526  -0.038279  -0.000231
    17  H    0.000133  -0.004167   0.012004  -0.025014   0.376032  -0.032195
    18  H    0.000000  -0.000036   0.000008   0.001250  -0.024009   0.328398
    19  H    0.000000  -0.000001   0.000000  -0.001027   0.000859   0.000403
    20  H    0.000000  -0.000000   0.000000  -0.000040  -0.000011  -0.001195
    21  H   -0.000000  -0.000000  -0.000000   0.000000   0.000001  -0.000049
    22  H   -0.000000   0.000000  -0.000000  -0.000000  -0.000003  -0.000110
    23  H    0.000000  -0.000000   0.000000   0.000027  -0.000000  -0.000025
    24  H    0.000000   0.000000   0.000000   0.000000  -0.000000   0.000005
    25  H    0.000000  -0.000000   0.000000   0.000020  -0.000002  -0.000107
    26  H    0.000000  -0.000000   0.000000   0.000005  -0.000005  -0.000097
    27  H    0.005479  -0.000481   0.000009  -0.062630   0.002021   0.000011
               7          8          9         10         11         12
     1  O    0.000003  -0.000000  -0.000000  -0.000000  -0.000000  -0.000000
     2  N   -0.000117   0.000002  -0.000006   0.000000  -0.000000   0.000001
     3  O    0.000001  -0.000000   0.000000  -0.000000  -0.000000  -0.000000
     4  C    0.005792  -0.000363   0.000963  -0.000027  -0.000015  -0.000146
     5  C   -0.035748   0.003851   0.000840  -0.000059   0.000009  -0.000117
     6  N    0.202450  -0.055243  -0.041820   0.002976  -0.000063   0.004775
     7  C    5.061183   0.426357   0.331067  -0.051232  -0.007405  -0.069651
     8  H    0.426357   0.555189  -0.061947  -0.000487  -0.000949  -0.005938
     9  C    0.331067  -0.061947   5.170528   0.318032  -0.053054  -0.005603
    10  C   -0.051232  -0.000487   0.318032   5.129755   0.331802  -0.058770
    11  C   -0.007405  -0.000949  -0.053054   0.331802   5.124108   0.333521
    12  C   -0.069651  -0.005938  -0.005603  -0.058770   0.333521   5.140330
    13  C    0.320811  -0.044672  -0.047739  -0.001131  -0.045940   0.370009
    14  H   -0.038332   0.000194   0.002943  -0.000357   0.003631  -0.037802
    15  N   -0.061948   0.004375  -0.015327   0.001521  -0.010952  -0.080949
    16  C   -0.005415   0.000140  -0.002194   0.000001  -0.000031   0.003712
    17  H    0.001588  -0.000042  -0.000053   0.000001   0.000000   0.000001
    18  H   -0.030101  -0.003958   0.001067  -0.000118   0.000015  -0.000199
    19  H   -0.035694   0.004102   0.387695  -0.031217  -0.002266   0.000562
    20  H   -0.042710  -0.001342   0.397576  -0.037714   0.004082  -0.000382
    21  H    0.004494   0.000039  -0.036917   0.399888  -0.034941   0.004003
    22  H   -0.005736   0.003833  -0.044187   0.396774  -0.045617  -0.000725
    23  H   -0.000036   0.000054  -0.001447  -0.039514   0.396241  -0.035086
    24  H   -0.000175  -0.000190   0.004494  -0.038594   0.399590  -0.037852
    25  H    0.005610   0.000178  -0.000417   0.003981  -0.033908   0.394242
    26  H   -0.006495   0.001126   0.001409  -0.001874  -0.041513   0.395708
    27  H   -0.000453   0.000010  -0.000079   0.000007   0.000007  -0.000046
              13         14         15         16         17         18
     1  O   -0.000025  -0.000002   0.000207   0.002781   0.000133   0.000000
     2  N   -0.000029  -0.000049   0.001464  -0.026311  -0.004167  -0.000036
     3  O   -0.000003   0.000000  -0.000012   0.001906   0.012004   0.000008
     4  C   -0.010267   0.003091  -0.061230   0.318526  -0.025014   0.001250
     5  C   -0.001591   0.004606  -0.002137  -0.038279   0.376032  -0.024009
     6  N   -0.058397  -0.006459   0.001071  -0.000231  -0.032195   0.328398
     7  C    0.320811  -0.038332  -0.061948  -0.005415   0.001588  -0.030101
     8  H   -0.044672   0.000194   0.004375   0.000140  -0.000042  -0.003958
     9  C   -0.047739   0.002943  -0.015327  -0.002194  -0.000053   0.001067
    10  C   -0.001131  -0.000357   0.001521   0.000001   0.000001  -0.000118
    11  C   -0.045940   0.003631  -0.010952  -0.000031   0.000000   0.000015
    12  C    0.370009  -0.037802  -0.080949   0.003712   0.000001  -0.000199
    13  C    5.054328   0.403468   0.240553  -0.075974  -0.000059   0.004628
    14  H    0.403468   0.501699  -0.032077  -0.005457   0.000056   0.000094
    15  N    0.240553  -0.032077   6.940369   0.581155  -0.000053  -0.000143
    16  C   -0.075974  -0.005457   0.581155   4.721725   0.001438  -0.000233
    17  H   -0.000059   0.000056  -0.000053   0.001438   0.381757  -0.002062
    18  H    0.004628   0.000094  -0.000143  -0.000233  -0.002062   0.326447
    19  H   -0.005239   0.000067   0.006582   0.003100   0.000006  -0.000119
    20  H    0.003672  -0.000032   0.000195  -0.000031  -0.000004   0.002011
    21  H   -0.000419   0.000007  -0.000028   0.000004  -0.000000   0.000000
    22  H    0.000439  -0.000034  -0.000012  -0.000003   0.000000   0.000004
    23  H   -0.005161   0.000003   0.006451   0.000009   0.000000   0.000000
    24  H    0.004077  -0.000051   0.000119   0.000007   0.000000  -0.000000
    25  H   -0.035646  -0.002532   0.000691  -0.000128  -0.000000   0.000003
    26  H   -0.044714  -0.000538   0.004419  -0.000083   0.000000  -0.000000
    27  H    0.005394  -0.000161  -0.039416   0.400725  -0.000060   0.000001
              19         20         21         22         23         24
     1  O    0.000000   0.000000  -0.000000  -0.000000   0.000000   0.000000
     2  N   -0.000001  -0.000000  -0.000000   0.000000  -0.000000   0.000000
     3  O    0.000000   0.000000  -0.000000  -0.000000   0.000000   0.000000
     4  C   -0.001027  -0.000040   0.000000  -0.000000   0.000027   0.000000
     5  C    0.000859  -0.000011   0.000001  -0.000003  -0.000000  -0.000000
     6  N    0.000403  -0.001195  -0.000049  -0.000110  -0.000025   0.000005
     7  C   -0.035694  -0.042710   0.004494  -0.005736  -0.000036  -0.000175
     8  H    0.004102  -0.001342   0.000039   0.003833   0.000054  -0.000190
     9  C    0.387695   0.397576  -0.036917  -0.044187  -0.001447   0.004494
    10  C   -0.031217  -0.037714   0.399888   0.396774  -0.039514  -0.038594
    11  C   -0.002266   0.004082  -0.034941  -0.045617   0.396241   0.399590
    12  C    0.000562  -0.000382   0.004003  -0.000725  -0.035086  -0.037852
    13  C   -0.005239   0.003672  -0.000419   0.000439  -0.005161   0.004077
    14  H    0.000067  -0.000032   0.000007  -0.000034   0.000003  -0.000051
    15  N    0.006582   0.000195  -0.000028  -0.000012   0.006451   0.000119
    16  C    0.003100  -0.000031   0.000004  -0.000003   0.000009   0.000007
    17  H    0.000006  -0.000004  -0.000000   0.000000   0.000000   0.000000
    18  H   -0.000119   0.002011   0.000000   0.000004   0.000000  -0.000000
    19  H    0.500077  -0.023422  -0.002285   0.003513   0.001424  -0.000077
    20  H   -0.023422   0.546143  -0.002451  -0.002920  -0.000045  -0.000090
    21  H   -0.002285  -0.002451   0.524624  -0.024618  -0.002788  -0.002027
    22  H    0.003513  -0.002920  -0.024618   0.566020   0.003990  -0.003759
    23  H    0.001424  -0.000045  -0.002788   0.003990   0.506151  -0.025660
    24  H   -0.000077  -0.000090  -0.002027  -0.003759  -0.025660   0.543765
    25  H   -0.000014   0.000011  -0.000084  -0.000073  -0.002066  -0.002356
    26  H    0.000005  -0.000031  -0.000069   0.002088   0.003627  -0.002820
    27  H    0.000120   0.000000  -0.000000   0.000000  -0.000020  -0.000000
              25         26         27
     1  O    0.000000   0.000000   0.005479
     2  N   -0.000000  -0.000000  -0.000481
     3  O    0.000000   0.000000   0.000009
     4  C    0.000020   0.000005  -0.062630
     5  C   -0.000002  -0.000005   0.002021
     6  N   -0.000107  -0.000097   0.000011
     7  C    0.005610  -0.006495  -0.000453
     8  H    0.000178   0.001126   0.000010
     9  C   -0.000417   0.001409  -0.000079
    10  C    0.003981  -0.001874   0.000007
    11  C   -0.033908  -0.041513   0.000007
    12  C    0.394242   0.395708  -0.000046
    13  C   -0.035646  -0.044714   0.005394
    14  H   -0.002532  -0.000538  -0.000161
    15  N    0.000691   0.004419  -0.039416
    16  C   -0.000128  -0.000083   0.400725
    17  H   -0.000000   0.000000  -0.000060
    18  H    0.000003  -0.000000   0.000001
    19  H   -0.000014   0.000005   0.000120
    20  H    0.000011  -0.000031   0.000000
    21  H   -0.000084  -0.000069  -0.000000
    22  H   -0.000073   0.002088   0.000000
    23  H   -0.002066   0.003627  -0.000020
    24  H   -0.002356  -0.002820  -0.000000
    25  H    0.517557  -0.023551  -0.000007
    26  H   -0.023551   0.562585   0.000001
    27  H   -0.000007   0.000001   0.447261
 Mulliken charges:
               1
     1  O   -0.455998
     2  N    0.506660
     3  O   -0.485469
     4  C   -0.027249
     5  C    0.188440
     6  N   -0.773692
     7  C    0.031893
     8  H    0.175680
     9  C   -0.305824
    10  C   -0.323645
    11  C   -0.316353
    12  C   -0.313597
    13  C   -0.030374
    14  H    0.204026
    15  N   -0.484887
    16  C    0.119141
    17  H    0.290692
    18  H    0.397049
    19  H    0.192844
    20  H    0.158730
    21  H    0.173613
    22  H    0.151135
    23  H    0.193872
    24  H    0.161595
    25  H    0.178595
    26  H    0.150815
    27  H    0.242308
 Sum of Mulliken charges =  -0.00000
 Mulliken charges with hydrogens summed into heavy atoms:
               1
     1  O   -0.455998
     2  N    0.506660
     3  O   -0.485469
     4  C   -0.027249
     5  C    0.479132
     6  N   -0.376643
     7  C    0.207573
     9  C    0.045750
    10  C    0.001104
    11  C    0.039114
    12  C    0.015813
    13  C    0.173651
    15  N   -0.484887
    16  C    0.361449
 Electronic spatial extent (au):  <R**2>=           3063.2606
 Charge=             -0.0000 electrons
 Dipole moment (field-independent basis, Debye):
    X=              5.2070    Y=              4.5452    Z=              0.7897  Tot=              6.9566
 Quadrupole moment (field-independent basis, Debye-Ang):
   XX=           -105.2935   YY=            -80.2202   ZZ=            -82.2154
   XY=             -1.2593   XZ=             -0.9365   YZ=              0.7165
 Traceless Quadrupole moment (field-independent basis, Debye-Ang):
   XX=            -16.0504   YY=              9.0228   ZZ=              7.0276
   XY=             -1.2593   XZ=             -0.9365   YZ=              0.7165
 Octapole moment (field-independent basis, Debye-Ang**2):
  XXX=             93.8921  YYY=             36.6574  ZZZ=             -3.6557  XYY=             -2.7916
  XXY=             10.7592  XXZ=              6.5098  XZZ=             -9.0500  YZZ=             -2.9352
  YYZ=              4.7532  XYZ=             -0.4105
 Hexadecapole moment (field-independent basis, Debye-Ang**3):
 XXXX=          -3440.8906 YYYY=           -601.1572 ZZZZ=           -329.9211 XXXY=            -17.2113
 XXXZ=            -28.1813 YYYX=             -2.5697 YYYZ=              9.6717 ZZZX=             -5.2585
 ZZZY=             -3.4462 XXYY=           -636.6245 XXZZ=           -536.0918 YYZZ=           -164.6750
 XXYZ=             -3.3270 YYXZ=             -2.2339 ZZXY=              5.0965
 N-N= 9.215690513923D+02 E-N=-3.389162873587D+03  KE= 6.588610132344D+02
 Calling FoFJK, ICntrl=  10002127 FMM=F ISym2X=0 I1Cent= 0 IOpClX= 0 NMat=1 NMatS=1 NMatT=0.
 -------------------------------------------------------------------
 Center     Atomic                   Forces (Hartrees/Bohr)
 Number     Number              X              Y              Z
 -------------------------------------------------------------------
      1        8           0.002313697   -0.019201025   -0.003320396
      2        7           0.038790222    0.012921246    0.000280595
      3        8          -0.004862739    0.015559767    0.004462349
      4        6           0.001878357    0.010243444    0.008213496
      5        6           0.001456142   -0.018530866   -0.009039266
      6        7           0.010027605   -0.009068861   -0.023261693
      7        6          -0.000709134    0.016820963    0.026772563
      8        1          -0.012680657   -0.003153206   -0.008804926
      9        6          -0.007564360    0.003022740   -0.000417112
     10        6           0.001795713   -0.003692759   -0.000615984
     11        6          -0.000849450   -0.003498796    0.000023181
     12        6           0.001564493   -0.012560862   -0.000900901
     13        6           0.033585806   -0.010808460   -0.002239981
     14        1           0.000067552    0.005964425   -0.011754254
     15        7          -0.016871150    0.004215036    0.001138631
     16        6          -0.023139536    0.006337792    0.003204898
     17        1           0.007217768   -0.007351707   -0.003566913
     18        1          -0.018352910   -0.001927860    0.004184015
     19        1           0.003751968    0.005205914    0.006817650
     20        1          -0.002904609   -0.007326493    0.003172572
     21        1          -0.004038309    0.002415839    0.009437800
     22        1          -0.004792185   -0.004054093   -0.007031911
     23        1           0.003066626    0.007020618    0.009319751
     24        1          -0.009242451    0.002389130   -0.001858796
     25        1           0.000013888    0.009611100   -0.003025609
     26        1          -0.004344715   -0.004733912   -0.004027289
     27        1           0.004822369    0.004180884    0.002837529
 -------------------------------------------------------------------
 Cartesian Forces:  Max     0.038790222 RMS     0.010407549

 GradGradGradGradGradGradGradGradGradGradGradGradGradGradGradGradGradGrad
 Berny optimization.
 FormGI is forming the generalized inverse of G from B-inverse, IUseBI=4.
 Internal  Forces:  Max     0.038182784 RMS     0.007443314
 Search for a local minimum.
 Step number   1 out of a maximum of  100
 All quantities printed in internal units (Hartrees-Bohrs-Radians)
 Mixed Optimization -- RFO/linear search
 Second derivative matrix not updated -- first step.
 ITU=  0
     Eigenvalues ---    0.00232   0.00769   0.00990   0.01113   0.01188
     Eigenvalues ---    0.01389   0.01567   0.01628   0.01869   0.01968
     Eigenvalues ---    0.02015   0.02741   0.03534   0.04361   0.04620
     Eigenvalues ---    0.04838   0.05125   0.05157   0.05356   0.05886
     Eigenvalues ---    0.06187   0.07070   0.07333   0.07462   0.07971
     Eigenvalues ---    0.08054   0.08103   0.08150   0.10374   0.11632
     Eigenvalues ---    0.12148   0.12827   0.14763   0.15005   0.15990
     Eigenvalues ---    0.15999   0.20132   0.22349   0.23196   0.24985
     Eigenvalues ---    0.25000   0.25000   0.25121   0.26161   0.26370
     Eigenvalues ---    0.27629   0.27854   0.28331   0.29505   0.30853
     Eigenvalues ---    0.31191   0.32186   0.32316   0.32335   0.32393
     Eigenvalues ---    0.32406   0.32413   0.32551   0.32684   0.32762
     Eigenvalues ---    0.33034   0.33388   0.33600   0.36333   0.43027
     Eigenvalues ---    0.43844   0.49021   0.65871   0.90400   0.91190
     Eigenvalues --- 1000.000001000.000001000.000001000.000001000.00000
     Eigenvalues --- 1000.000001000.000001000.000001000.000001000.00000
     Eigenvalues --- 1000.000001000.000001000.000001000.000001000.00000
     Eigenvalues --- 1000.000001000.000001000.000001000.000001000.00000
     Eigenvalues --- 1000.000001000.000001000.000001000.000001000.00000
     Eigenvalues --- 1000.000001000.000001000.000001000.000001000.00000
     Eigenvalues --- 1000.000001000.000001000.000001000.000001000.00000
     Eigenvalues --- 1000.000001000.000001000.000001000.000001000.00000
     Eigenvalues --- 1000.000001000.000001000.000001000.000001000.00000
     Eigenvalues --- 1000.000001000.000001000.000001000.000001000.00000
     Eigenvalues --- 1000.000001000.000001000.000001000.000001000.00000
     Eigenvalues --- 1000.000001000.000001000.000001000.000001000.00000
     Eigenvalues --- 1000.000001000.000001000.000001000.000001000.00000
     Eigenvalues --- 1000.000001000.000001000.000001000.000001000.00000
     Eigenvalues --- 1000.000001000.000001000.000001000.000001000.00000
     Eigenvalues --- 1000.000001000.000001000.000001000.000001000.00000
     Eigenvalues --- 1000.000001000.000001000.000001000.000001000.00000
     Eigenvalues --- 1000.000001000.000001000.000001000.000001000.00000
     Eigenvalues --- 1000.00000
 RFO step:  Lambda=-2.69080836D-02 EMin= 2.31676179D-03
 Linear search not attempted -- first point.
 Iteration  1 RMS(Cart)=  0.06521053 RMS(Int)=  0.00117339
 Iteration  2 RMS(Cart)=  0.00136955 RMS(Int)=  0.00024876
 Iteration  3 RMS(Cart)=  0.00000096 RMS(Int)=  0.00024876
 Iteration  1 RMS(Cart)=  0.00003637 RMS(Int)=  0.00003432
 Iteration  2 RMS(Cart)=  0.00002225 RMS(Int)=  0.00003733
 Iteration  3 RMS(Cart)=  0.00001583 RMS(Int)=  0.00004180
 Iteration  4 RMS(Cart)=  0.00001249 RMS(Int)=  0.00004581
 Iteration  5 RMS(Cart)=  0.00001039 RMS(Int)=  0.00004925
 Iteration  6 RMS(Cart)=  0.00000884 RMS(Int)=  0.00005225
 Iteration  7 RMS(Cart)=  0.00000759 RMS(Int)=  0.00005488
 Iteration  8 RMS(Cart)=  0.00000655 RMS(Int)=  0.00005720
 Iteration  9 RMS(Cart)=  0.00000566 RMS(Int)=  0.00005925
 Iteration 10 RMS(Cart)=  0.00000490 RMS(Int)=  0.00006106
 Iteration 11 RMS(Cart)=  0.00000425 RMS(Int)=  0.00006266
 Iteration 12 RMS(Cart)=  0.00000368 RMS(Int)=  0.00006407
 Iteration 13 RMS(Cart)=  0.00000319 RMS(Int)=  0.00006531
 Iteration 14 RMS(Cart)=  0.00000277 RMS(Int)=  0.00006639
 Iteration 15 RMS(Cart)=  0.00000241 RMS(Int)=  0.00006735
 Iteration 16 RMS(Cart)=  0.00000210 RMS(Int)=  0.00006819
 Iteration 17 RMS(Cart)=  0.00000183 RMS(Int)=  0.00006893
 Iteration 18 RMS(Cart)=  0.00000159 RMS(Int)=  0.00006958
 Iteration 19 RMS(Cart)=  0.00000139 RMS(Int)=  0.00007014
 Iteration 20 RMS(Cart)=  0.00000121 RMS(Int)=  0.00007064
 Iteration 21 RMS(Cart)=  0.00000106 RMS(Int)=  0.00007108
 Iteration 22 RMS(Cart)=  0.00000092 RMS(Int)=  0.00007146
 Variable       Old X    -DE/DX   Delta X   Delta X   Delta X     New X
                                 (Linear)    (Quad)   (Total)
    R1        2.32389   0.01793   0.00000   0.01910   0.01910   2.34299
    R2        2.32749   0.01551   0.00000   0.01666   0.01666   2.34416
    R3        2.88962  -0.03732   0.00000  -0.11591  -0.11591   2.77371
    R4        2.66131  -0.03818   0.00000  -0.08189  -0.08168   2.57964
    R5        2.83683  -0.02612   0.00000  -0.07338  -0.07317   2.76366
    R6        2.59481  -0.02343   0.00000  -0.04555  -0.04549   2.54931
    R7        2.08376  -0.01078   0.00000  -0.02988  -0.02988   2.05388
    R8        2.81510  -0.01670   0.00000  -0.04801  -0.04818   2.76692
    R9        1.93342  -0.00643   0.00000  -0.01383  -0.01383   1.91959
   R10        2.12994  -0.01518   0.00000  -0.04524  -0.04524   2.08470
   R11        2.92627  -0.01498   0.00000  -0.05053  -0.05042   2.87585
   R12        2.89081   0.00000   0.00000   0.00519   0.00516   2.89598
   R13        2.91543  -0.00383   0.00000  -0.01224  -0.01235   2.90308
   R14        2.09472  -0.00930   0.00000  -0.02622  -0.02622   2.06850
   R15        2.09847  -0.00810   0.00000  -0.02297  -0.02297   2.07550
   R16        2.91138  -0.00108   0.00000  -0.00591  -0.00603   2.90535
   R17        2.10106  -0.01036   0.00000  -0.02952  -0.02952   2.07154
   R18        2.10236  -0.00909   0.00000  -0.02596  -0.02596   2.07639
   R19        2.93255  -0.01149   0.00000  -0.03684  -0.03693   2.89562
   R20        2.10269  -0.01181   0.00000  -0.03373  -0.03373   2.06896
   R21        2.10094  -0.00972   0.00000  -0.02768  -0.02768   2.07326
   R22        2.94534  -0.00930   0.00000  -0.03172  -0.03162   2.91372
   R23        2.10131  -0.01005   0.00000  -0.02864  -0.02864   2.07267
   R24        2.09609  -0.00743   0.00000  -0.02101  -0.02101   2.07508
   R25        2.10504  -0.01044   0.00000  -0.02994  -0.02994   2.07510
   R26        2.75346   0.00194   0.00000   0.00465   0.00444   2.75790
   R27        2.45202  -0.00663   0.00000  -0.00873  -0.00870   2.44333
   R28        2.08010  -0.00660   0.00000  -0.01820  -0.01820   2.06191
    A1        2.15678   0.01120   0.00000   0.04073   0.04036   2.19714
    A2        2.05402  -0.00727   0.00000  -0.02599  -0.02636   2.02766
    A3        2.07217  -0.00389   0.00000  -0.01377  -0.01414   2.05803
    A4        2.02228  -0.00841   0.00000  -0.03004  -0.03037   1.99192
    A5        2.02554  -0.00475   0.00000  -0.01662  -0.01694   2.00860
    A6        2.23480   0.01312   0.00000   0.04606   0.04655   2.28135
    A7        2.19640   0.00679   0.00000   0.02054   0.02093   2.21733
    A8        2.06660  -0.00437   0.00000  -0.01563  -0.01583   2.05077
    A9        2.01934  -0.00244   0.00000  -0.00492  -0.00511   2.01423
   A10        2.18286  -0.00645   0.00000  -0.03483  -0.03478   2.14808
   A11        2.12032  -0.01240   0.00000  -0.06995  -0.06986   2.05047
   A12        1.88646   0.01931   0.00000   0.10940   0.10948   1.99594
   A13        1.79117   0.00153   0.00000  -0.01248  -0.01233   1.77884
   A14        2.11763  -0.00750   0.00000  -0.02205  -0.02239   2.09524
   A15        1.90426   0.00762   0.00000   0.01631   0.01543   1.91969
   A16        1.81281   0.00376   0.00000   0.02886   0.02884   1.84165
   A17        1.83334   0.00142   0.00000   0.02160   0.02151   1.85485
   A18        1.97059  -0.00514   0.00000  -0.02275  -0.02208   1.94851
   A19        1.86884   0.00042   0.00000  -0.01097  -0.01125   1.85759
   A20        1.94619  -0.00004   0.00000  -0.00755  -0.00755   1.93863
   A21        1.92107  -0.00196   0.00000  -0.00492  -0.00480   1.91627
   A22        1.93559  -0.00229   0.00000  -0.00239  -0.00250   1.93309
   A23        1.90718   0.00409   0.00000   0.02830   0.02840   1.93558
   A24        1.88501  -0.00014   0.00000  -0.00161  -0.00176   1.88325
   A25        1.93900   0.00013   0.00000   0.01489   0.01466   1.95366
   A26        1.91746  -0.00074   0.00000  -0.00761  -0.00762   1.90984
   A27        1.90983  -0.00052   0.00000  -0.00936  -0.00949   1.90034
   A28        1.91501  -0.00003   0.00000   0.00185   0.00195   1.91696
   A29        1.89923   0.00203   0.00000   0.01194   0.01203   1.91126
   A30        1.88232  -0.00089   0.00000  -0.01238  -0.01251   1.86981
   A31        1.95577   0.00258   0.00000   0.01330   0.01383   1.96960
   A32        1.90179  -0.00049   0.00000   0.00207   0.00198   1.90377
   A33        1.91276   0.00048   0.00000   0.00534   0.00516   1.91793
   A34        1.91223  -0.00204   0.00000  -0.02014  -0.02032   1.89191
   A35        1.90862  -0.00117   0.00000  -0.00199  -0.00227   1.90635
   A36        1.87071   0.00055   0.00000   0.00086   0.00086   1.87156
   A37        1.94734  -0.00650   0.00000  -0.03755  -0.03778   1.90957
   A38        1.90021   0.00269   0.00000   0.01332   0.01317   1.91338
   A39        1.91513   0.00245   0.00000   0.01709   0.01716   1.93228
   A40        1.90400   0.00281   0.00000   0.01097   0.01119   1.91518
   A41        1.91872   0.00016   0.00000  -0.00048  -0.00033   1.91838
   A42        1.87696  -0.00138   0.00000  -0.00195  -0.00217   1.87479
   A43        1.80717   0.00817   0.00000   0.03899   0.03916   1.84633
   A44        1.98685  -0.00713   0.00000  -0.04134  -0.04224   1.94461
   A45        1.95317  -0.00163   0.00000  -0.00075  -0.00069   1.95248
   A46        1.89179   0.00200   0.00000   0.03394   0.03450   1.92629
   A47        1.85580   0.00166   0.00000  -0.02852  -0.02849   1.82731
   A48        1.95685  -0.00144   0.00000   0.00299   0.00290   1.95975
   A49        2.02692  -0.00052   0.00000  -0.01235  -0.01283   2.01409
   A50        2.25800  -0.00485   0.00000  -0.02427  -0.02448   2.23352
   A51        1.97748   0.00427   0.00000   0.02216   0.02177   1.99925
   A52        2.04746   0.00066   0.00000   0.00309   0.00270   2.05016
    D1       -3.03053  -0.00005   0.00000  -0.01674  -0.01608  -3.04661
    D2        0.14415   0.00097   0.00000   0.00000  -0.00000   0.14415
    D3        0.13268  -0.00217   0.00000  -0.06517  -0.06484   0.06785
    D4       -2.97582  -0.00115   0.00000  -0.04843  -0.04875  -3.02457
    D5        3.08008  -0.00066   0.00000   0.00704   0.00727   3.08734
    D6       -0.01520  -0.00004   0.00000   0.00742   0.00765  -0.00755
    D7       -0.09927  -0.00230   0.00000  -0.01373  -0.01375  -0.11301
    D8        3.08864  -0.00168   0.00000  -0.01335  -0.01337   3.07528
    D9       -2.71989  -0.00312   0.00000  -0.03444  -0.03456  -2.75445
   D10        0.39703   0.00096   0.00000   0.01548   0.01524   0.41228
   D11        0.45951  -0.00141   0.00000  -0.01339  -0.01315   0.44636
   D12       -2.70675   0.00267   0.00000   0.03653   0.03665  -2.67010
   D13        0.08657  -0.00205   0.00000   0.00431   0.00450   0.09108
   D14        2.72224   0.00423   0.00000   0.04496   0.04497   2.76722
   D15       -3.10024  -0.00271   0.00000   0.00366   0.00386  -3.09638
   D16       -0.46456   0.00357   0.00000   0.04431   0.04433  -0.42023
   D17       -2.74398  -0.00144   0.00000  -0.02001  -0.01995  -2.76393
   D18        1.53068  -0.00347   0.00000  -0.03569  -0.03562   1.49506
   D19       -0.80591   0.00369   0.00000   0.00462   0.00428  -0.80163
   D20        0.84737  -0.00020   0.00000  -0.01750  -0.01735   0.83002
   D21       -1.16116  -0.00223   0.00000  -0.03318  -0.03302  -1.19418
   D22        2.78544   0.00493   0.00000   0.00713   0.00688   2.79232
   D23        2.83895   0.00501   0.00000   0.03790   0.03758   2.87652
   D24       -1.32401   0.00243   0.00000   0.02329   0.02294  -1.30107
   D25        0.76767   0.00093   0.00000   0.01311   0.01279   0.78046
   D26        0.84146   0.00421   0.00000   0.04358   0.04371   0.88517
   D27        2.96169   0.00163   0.00000   0.02897   0.02907   2.99076
   D28       -1.22982   0.00013   0.00000   0.01879   0.01892  -1.21090
   D29       -1.13488   0.00273   0.00000   0.01210   0.01241  -1.12247
   D30        0.98535   0.00015   0.00000  -0.00252  -0.00223   0.98312
   D31        3.07703  -0.00135   0.00000  -0.01270  -0.01238   3.06465
   D32       -2.72077  -0.00574   0.00000  -0.01219  -0.01203  -2.73280
   D33       -0.67060  -0.00182   0.00000   0.03221   0.03154  -0.63907
   D34        1.57071  -0.01144   0.00000   0.00000  -0.00000   1.57071
   D35       -0.81088  -0.00026   0.00000  -0.00972  -0.00934  -0.82022
   D36        1.23929   0.00366   0.00000   0.03468   0.03422   1.27351
   D37       -2.80258  -0.00595   0.00000   0.00247   0.00268  -2.79990
   D38        1.15291   0.00260   0.00000   0.02607   0.02636   1.17928
   D39       -3.08010   0.00652   0.00000   0.07046   0.06993  -3.01017
   D40       -0.83879  -0.00310   0.00000   0.03826   0.03839  -0.80040
   D41        0.95661   0.00095   0.00000   0.00000   0.00001   0.95662
   D42        3.07888   0.00051   0.00000   0.00703   0.00699   3.08587
   D43       -1.14085  -0.00132   0.00000  -0.01817  -0.01807  -1.15892
   D44       -1.17028   0.00210   0.00000   0.01772   0.01775  -1.15253
   D45        0.95199   0.00165   0.00000   0.02475   0.02473   0.97672
   D46        3.01544  -0.00018   0.00000  -0.00045  -0.00033   3.01511
   D47        3.03687   0.00110   0.00000   0.00334   0.00328   3.04015
   D48       -1.12404   0.00065   0.00000   0.01038   0.01026  -1.11379
   D49        0.93941  -0.00118   0.00000  -0.01483  -0.01480   0.92461
   D50       -0.92187  -0.00048   0.00000   0.00000   0.00001  -0.92186
   D51        1.19725  -0.00171   0.00000  -0.01531  -0.01529   1.18196
   D52       -3.04400  -0.00106   0.00000  -0.01006  -0.01015  -3.05415
   D53       -3.04558   0.00038   0.00000  -0.00148  -0.00145  -3.04703
   D54       -0.92646  -0.00085   0.00000  -0.01679  -0.01675  -0.94321
   D55        1.11549  -0.00020   0.00000  -0.01154  -0.01162   1.10387
   D56        1.18186   0.00028   0.00000   0.00542   0.00550   1.18736
   D57       -2.98220  -0.00095   0.00000  -0.00988  -0.00980  -2.99200
   D58       -0.94026  -0.00030   0.00000  -0.00463  -0.00466  -0.94492
   D59        0.98199  -0.00272   0.00000  -0.02151  -0.02153   0.96047
   D60        3.08434  -0.00153   0.00000  -0.02268  -0.02287   3.06147
   D61       -1.14893  -0.00024   0.00000  -0.00751  -0.00747  -1.15640
   D62       -1.13111  -0.00240   0.00000  -0.01905  -0.01901  -1.15012
   D63        0.97124  -0.00122   0.00000  -0.02022  -0.02035   0.95088
   D64        3.02115   0.00008   0.00000  -0.00505  -0.00496   3.01620
   D65        3.10649  -0.00121   0.00000  -0.00729  -0.00725   3.09924
   D66       -1.07434  -0.00003   0.00000  -0.00846  -0.00859  -1.08293
   D67        0.97557   0.00127   0.00000   0.00670   0.00681   0.98238
   D68       -1.04236  -0.00063   0.00000  -0.00465  -0.00460  -1.04696
   D69        3.12531   0.00230   0.00000   0.00603   0.00522   3.13053
   D70        1.01829   0.00200   0.00000   0.00022  -0.00024   1.01805
   D71        3.14070  -0.00173   0.00000  -0.00478  -0.00437   3.13633
   D72        1.02519   0.00120   0.00000   0.00590   0.00544   1.03063
   D73       -1.08184   0.00090   0.00000   0.00010  -0.00002  -1.08185
   D74        1.08649  -0.00181   0.00000  -0.00862  -0.00819   1.07830
   D75       -1.02902   0.00112   0.00000   0.00206   0.00162  -1.02740
   D76       -3.13604   0.00083   0.00000  -0.00375  -0.00384  -3.13988
   D77       -1.17215   0.01090   0.00000   0.00000  -0.00000  -1.17215
   D78       -3.13365   0.00111   0.00000  -0.02984  -0.02994   3.11959
   D79        1.08494  -0.00154   0.00000  -0.05496  -0.05556   1.02938
   D80        0.06931   0.00502   0.00000   0.03431   0.03366   0.10297
   D81       -3.04679   0.00077   0.00000  -0.01749  -0.01760  -3.06439
         Item               Value     Threshold  Converged?
 Maximum Force            0.037317     0.000450     NO 
 RMS     Force            0.007284     0.000300     NO 
 Maximum Displacement     0.320082     0.001800     NO 
 RMS     Displacement     0.065302     0.001200     NO 
 Predicted change in Energy=-1.513777D-02
 GradGradGradGradGradGradGradGradGradGradGradGradGradGradGradGradGradGrad

                          Input orientation:                          
 ---------------------------------------------------------------------
 Center     Atomic      Atomic             Coordinates (Angstroms)
 Number     Number       Type             X           Y           Z
 ---------------------------------------------------------------------
      1          8           0       -3.395913   -1.376203   -0.436197
      2          7           0       -3.050231   -0.215156   -0.172144
      3          8           0       -3.812510    0.742707    0.028369
      4          6           0       -1.606048    0.019892   -0.056017
      5          6           0       -1.276781    1.281036    0.349635
      6          7           0       -0.039377    1.758101    0.596917
      7          6           0        1.179192    0.984494    0.350991
      8          1           0        1.905471    1.487138    1.011943
      9          6           0        1.817015    0.986152   -1.030730
     10          6           0        3.235626    0.423321   -0.855192
     11          6           0        3.226654   -0.953815   -0.171706
     12          6           0        2.445062   -0.958886    1.146254
     13          6           0        1.015421   -0.438343    0.896171
     14          1           0        0.437145   -0.446002    1.829634
     15          7           0        0.461574   -1.343868   -0.105418
     16          6           0       -0.760803   -1.105638   -0.452934
     17          1           0       -2.090699    1.976641    0.536575
     18          1           0        0.089949    2.765115    0.564418
     19          1           0        1.240517    0.373566   -1.731117
     20          1           0        1.848014    2.010844   -1.424843
     21          1           0        3.722253    0.349251   -1.834678
     22          1           0        3.825743    1.127946   -0.253043
     23          1           0        2.770667   -1.685361   -0.846695
     24          1           0        4.255890   -1.283373    0.017367
     25          1           0        2.402951   -1.979499    1.545711
     26          1           0        2.945233   -0.332537    1.896795
     27          1           0       -1.233017   -1.805551   -1.144069
 ---------------------------------------------------------------------
                    Distance matrix (angstroms):
                    1          2          3          4          5
     1  O    0.000000
     2  N    1.239859   0.000000
     3  O    2.208881   1.240475   0.000000
     4  C    2.301572   1.467786   2.323372   0.000000
     5  C    3.488435   2.378229   2.612075   1.365084   0.000000
     6  N    4.707178   3.681092   3.948519   2.429434   1.349039
     7  C    5.208084   4.427284   5.007957   2.975512   2.473811
     8  H    6.196814   5.372043   5.849522   3.952735   3.256970
     9  C    5.754025   5.086294   5.733455   3.687965   3.400579
    10  C    6.884124   6.355014   7.110479   4.923743   4.748589
    11  C    6.641293   6.320198   7.243483   4.931177   5.054432
    12  C    6.065913   5.699961   6.580448   4.337621   4.416330
    13  C    4.702622   4.209588   5.045481   2.826436   2.917046
    14  H    4.548801   4.027678   4.766251   2.819109   2.847911
    15  N    3.871778   3.689338   4.758097   2.477367   3.181050
    16  C    2.649017   2.472505   3.600132   1.462464   2.570324
    17  H    3.727121   2.495387   2.178416   2.101170   1.086865
    18  H    5.504814   4.391499   4.427941   3.285969   2.028933
    19  H    5.122011   4.602989   5.363315   3.321744   3.389664
    20  H    6.320465   5.524231   5.980094   4.215224   3.666842
    21  H    7.456623   6.996364   7.771641   5.626980   5.534418
    22  H    7.645693   7.006389   7.653137   5.547157   5.140273
    23  H    6.187956   6.041471   7.071030   4.763265   5.158735
    24  H    7.665795   7.386230   8.318906   6.005514   6.107130
    25  H    6.157820   5.983404   6.953034   4.757644   5.059853
    26  H    6.836829   6.343491   7.093254   4.965062   4.777314
    27  H    2.315932   2.603125   3.810776   2.157604   3.429299
                    6          7          8          9         10
     6  N    0.000000
     7  C    1.464192   0.000000
     8  H    2.007013   1.103173   0.000000
     9  C    2.586761   1.521832   2.105071   0.000000
    10  C    3.823075   2.449227   2.527294   1.536245   0.000000
    11  C    4.314189   2.867465   3.017417   2.547249   1.537446
    12  C    3.722395   2.451855   2.508432   2.986114   2.557592
    13  C    2.454897   1.532484   2.124399   2.526794   2.956189
    14  H    2.569968   2.187084   2.561569   3.483789   3.974357
    15  N    3.219696   2.478821   3.368670   2.849985   3.373498
    16  C    3.134270   2.962858   3.997171   3.369656   4.297787
    17  H    2.063813   3.422132   4.054006   4.325245   5.720102
    18  H    1.015804   2.098240   2.264867   2.948213   4.170681
    19  H    2.995799   2.170752   3.034236   1.094602   2.179491
    20  H    2.777343   2.157383   2.493090   1.098307   2.184078
    21  H    4.695463   3.412893   3.563528   2.163771   1.096213
    22  H    4.007328   2.718394   2.327370   2.158678   1.098780
    23  H    4.673092   3.330971   3.777281   2.842587   2.159352
    24  H    5.294880   3.836743   3.766880   3.492472   2.171429
    25  H    4.564518   3.422016   3.542593   3.971958   3.497318
    26  H    3.868895   2.691279   2.274926   3.403266   2.868639
    27  H    4.141911   3.979737   5.033915   4.136321   5.002009
                   11         12         13         14         15
    11  C    0.000000
    12  C    1.532296   0.000000
    13  C    2.509108   1.541875   0.000000
    14  H    3.470533   2.182152   1.098096   0.000000
    15  N    2.793243   2.376788   1.459419   2.133351   0.000000
    16  C    4.000244   3.585598   2.328162   2.660886   1.292952
    17  H    6.112568   5.437109   3.950878   3.732452   4.236984
    18  H    4.920492   4.444465   3.350926   3.468802   4.179776
    19  H    2.852796   3.391994   2.759078   3.741129   2.489825
    20  H    3.501457   3.973198   3.475462   4.314888   3.862278
    21  H    2.170040   3.496912   3.924892   4.985132   4.060667
    22  H    2.167776   2.866911   3.416411   4.277552   4.177235
    23  H    1.094849   2.146073   2.770112   3.760860   2.449085
    24  H    1.097125   2.158419   3.462226   4.309096   3.796784
    25  H    2.163339   1.096809   2.173086   2.509306   2.626633
    26  H    2.178045   1.098087   2.176377   2.511552   3.346672
    27  H    4.643233   4.414826   3.329762   3.671610   2.040486
                   16         17         18         19         20
    16  C    0.000000
    17  H    3.499742   0.000000
    18  H    4.091639   2.318985   0.000000
    19  H    2.797692   4.336967   3.508959   0.000000
    20  H    4.178874   4.400204   2.759869   1.773001   0.000000
    21  H    4.911589   6.485495   4.978523   2.484014   2.538036
    22  H    5.105415   6.028936   4.159894   3.072000   2.462526
    23  H    3.600334   6.241520   5.383699   2.713437   3.853241
    24  H    5.041823   7.153772   5.834773   3.859419   4.327783
    25  H    3.842858   6.071432   5.368824   4.198306   5.005495
    26  H    4.455740   5.704658   4.418521   4.070183   4.210535
    27  H    1.091115   4.226720   5.055705   3.348366   4.912887
                   21         22         23         24         25
    21  H    0.000000
    22  H    1.765968   0.000000
    23  H    2.453828   3.062728   0.000000
    24  H    2.525926   2.464266   1.764676   0.000000
    25  H    4.311689   3.862132   2.438307   2.500761   0.000000
    26  H    3.872013   2.744105   3.063877   2.480758   1.769127
    27  H    5.447460   5.915267   4.016511   5.634687   4.526085
                   26         27
    26  H    0.000000
    27  H    5.373491   0.000000
 Symmetry turned off by external request.
 Stoichiometry    C9H13N3O2
 Framework group  C1[X(C9H13N3O2)]
 Deg. of freedom    75
 Full point group                 C1      NOp   1
 Rotational constants (GHZ):           1.6476749           0.4343940           0.3870681
 Standard basis: 6-31G(d) (6D, 7F)
   236 basis functions,   444 primitive gaussians,   236 cartesian basis functions
    52 alpha electrons       52 beta electrons
       nuclear repulsion energy       937.4617724889 Hartrees.
 NAtoms=   27 NActive=   27 NUniq=   27 SFac= 1.00D+00 NAtFMM=   60 NAOKFM=F Big=F
 Integral buffers will be    131072 words long.
 Raffenetti 1 integral format.
 Two-electron integral symmetry is turned off.
 One-electron integrals computed using PRISM.
 NBasis=   236 RedAO= T EigKep=  1.01D-03  NBF=   236
 NBsUse=   236 1.00D-06 EigRej= -1.00D+00 NBFU=   236
 Initial guess from the checkpoint file:  "/home/alexey/tmp/Gau-1181288.chk"
 B after Tr=     0.065627    0.007645    0.000322
         Rot=    0.999998   -0.001619    0.000897    0.000691 Ang=  -0.23 deg.
 ExpMin= 1.61D-01 ExpMax= 5.48D+03 ExpMxC= 8.25D+02 IAcc=3 IRadAn=         5 AccDes= 0.00D+00
 Harris functional with IExCor=  205 and IRadAn=       5 diagonalized for initial guess.
 HarFok:  IExCor=  205 AccDes= 0.00D+00 IRadAn=         5 IDoV= 1 UseB2=F ITyADJ=14
 ICtDFT=  3500011 ScaDFX=  1.000000  1.000000  1.000000  1.000000
 FoFCou: FMM=F IPFlag=           0 FMFlag=      100000 FMFlg1=           0
         NFxFlg=           0 DoJE=T BraDBF=F KetDBF=T FulRan=T
         wScrn=  0.000000 ICntrl=       500 IOpCl=  0 I1Cent=   200000004 NGrid=           0
         NMat0=    1 NMatS0=      1 NMatT0=    0 NMatD0=    1 NMtDS0=    0 NMtDT0=    0
 Symmetry not used in FoFCou.
 Keep R1 ints in memory in canonical form, NReq=397720213.
 Requested convergence on RMS density matrix=1.00D-08 within 128 cycles.
 Requested convergence on MAX density matrix=1.00D-06.
 Requested convergence on             energy=1.00D-06.
 No special actions if energy rises.
 SCF Done:  E(RHF) =  -661.289977764     A.U. after   14 cycles
            NFock= 14  Conv=0.82D-08     -V/T= 2.0024
 ExpMin= 1.61D-01 ExpMax= 5.48D+03 ExpMxC= 8.25D+02 IAcc=3 IRadAn=         5 AccDes= 0.00D+00
 HarFok:  IExCor=  205 AccDes= 0.00D+00 IRadAn=         5 IDoV=-2 UseB2=F ITyADJ=14
 ICtDFT= 12500011 ScaDFX=  1.000000  1.000000  1.000000  1.000000
 Range of M.O.s used for correlation:    15   236
 NBasis=   236 NAE=    52 NBE=    52 NFC=    14 NFV=     0
 NROrb=    222 NOA=    38 NOB=    38 NVA=   184 NVB=   184
 Fully direct method using O(ONN) memory.
 JobTyp=1 Pass  1:  I=  15 to  52 NPSUse=  4 ParTrn=T ParDer=T DoDerP=T.
 Spin components of T(2) and E(2):
     alpha-alpha T2 =       0.9165459078D-01 E2=     -0.2730417523D+00
     alpha-beta  T2 =       0.4929655738D+00 E2=     -0.1490524689D+01
     beta-beta   T2 =       0.9165459078D-01 E2=     -0.2730417523D+00
 ANorm=    0.1294710298D+01
 E2 =    -0.2036608193D+01 EUMP2 =    -0.66332658595703D+03
          IDoAtm=111111111111111111111111111
          Differentiating once with respect to electric field.
                with respect to dipole field.
          Differentiating once with respect to nuclear coordinates.
 Keep R1 ints in memory in canonical form, NReq=397723379.
          There are     1 degrees of freedom in the 1st order CPHF.  IDoFFX=0 NUNeed=     1.
 LinEq1:  Iter=  0 NonCon=     1 RMS=4.59D-03 Max=1.06D-01 NDo=     1
[...]
    27  H    4.613197   4.413398   3.333197   3.653527   2.035332
                   16         17         18         19         20
    16  C    0.000000
    17  H    3.491913   0.000000
    18  H    4.132277   2.282509   0.000000
    19  H    2.765786   4.317320   3.707888   0.000000
    20  H    4.171844   4.421924   3.046104   1.771966   0.000000
    21  H    4.887336   6.485341   5.162962   2.507664   2.538502
    22  H    5.082192   6.009090   4.250209   3.073696   2.447148
    23  H    3.586077   6.228014   5.462500   2.751757   3.868394
    24  H    5.037006   7.133680   5.863899   3.879211   4.318114
    25  H    3.850629   6.036512   5.280984   4.220713   5.018318
    26  H    4.470728   5.682593   4.320703   4.098559   4.231840
    27  H    1.089163   4.238349   5.125927   3.302766   4.891808
                   21         22         23         24         25
    21  H    0.000000
    22  H    1.758490   0.000000
    23  H    2.459185   3.063110   0.000000
    24  H    2.502218   2.453340   1.763338   0.000000
    25  H    4.312226   3.867573   2.431275   2.523340   0.000000
    26  H    3.879712   2.758280   3.064989   2.491717   1.769302
    27  H    5.400348   5.874186   3.981359   5.609863   4.522879
                   26         27
    26  H    0.000000
    27  H    5.376852   0.000000
 Symmetry turned off by external request.
 Stoichiometry    C9H13N3O2
 Framework group  C1[X(C9H13N3O2)]
 Deg. of freedom    75
 Full point group                 C1      NOp   1
 Rotational constants (GHZ):           1.6410921           0.4332168           0.3878504

 **********************************************************************

            Population analysis using the SCF Density.

 **********************************************************************

 Alpha  occ. eigenvalues --  -20.59292 -20.58965 -15.84757 -15.64028 -15.56226
 Alpha  occ. eigenvalues --  -11.34970 -11.29557 -11.29246 -11.28947 -11.26826
 Alpha  occ. eigenvalues --  -11.23767 -11.23264 -11.22573 -11.21981  -1.57172
 Alpha  occ. eigenvalues --   -1.36763  -1.31102  -1.23214  -1.14410  -1.09636
 Alpha  occ. eigenvalues --   -1.02594  -1.00883  -0.94506  -0.89444  -0.85585
 Alpha  occ. eigenvalues --   -0.82348  -0.78786  -0.77305  -0.74854  -0.72146
 Alpha  occ. eigenvalues --   -0.69845  -0.69567  -0.67997  -0.64832  -0.64002
 Alpha  occ. eigenvalues --   -0.61826  -0.59944  -0.57549  -0.56696  -0.55423
 Alpha  occ. eigenvalues --   -0.54034  -0.50609  -0.49872  -0.48695  -0.48082
 Alpha  occ. eigenvalues --   -0.47326  -0.45962  -0.45632  -0.43706  -0.41839
 Alpha  occ. eigenvalues --   -0.40120  -0.33935
 Alpha virt. eigenvalues --    0.07377   0.11588   0.17323   0.22207   0.24316
 Alpha virt. eigenvalues --    0.25692   0.27017   0.28605   0.28902   0.29895
 Alpha virt. eigenvalues --    0.30671   0.31806   0.32129   0.32946   0.34131
 Alpha virt. eigenvalues --    0.34714   0.35684   0.37565   0.38300   0.39988
 Alpha virt. eigenvalues --    0.41606   0.43332   0.45054   0.45937   0.46566
 Alpha virt. eigenvalues --    0.46973   0.49291   0.54396   0.57785   0.59944
 Alpha virt. eigenvalues --    0.63506   0.69196   0.70670   0.73704   0.74593
 Alpha virt. eigenvalues --    0.75122   0.76201   0.77194   0.78829   0.79683
 Alpha virt. eigenvalues --    0.81865   0.83527   0.85954   0.86573   0.88457
 Alpha virt. eigenvalues --    0.89356   0.91256   0.91582   0.92445   0.94859
 Alpha virt. eigenvalues --    0.95924   0.97400   0.99558   1.01776   1.02306
 Alpha virt. eigenvalues --    1.03971   1.06120   1.07081   1.08011   1.08836
 Alpha virt. eigenvalues --    1.10544   1.11889   1.12221   1.12375   1.14170
 Alpha virt. eigenvalues --    1.14902   1.15198   1.16191   1.16862   1.19173
 Alpha virt. eigenvalues --    1.19412   1.21186   1.22120   1.23457   1.24185
 Alpha virt. eigenvalues --    1.24715   1.26126   1.27020   1.27607   1.29800
 Alpha virt. eigenvalues --    1.30349   1.33065   1.34779   1.37636   1.40651
 Alpha virt. eigenvalues --    1.42462   1.47631   1.49529   1.51066   1.54565
 Alpha virt. eigenvalues --    1.57565   1.58767   1.60567   1.63539   1.64484
 Alpha virt. eigenvalues --    1.67937   1.69777   1.74527   1.75477   1.79708
 Alpha virt. eigenvalues --    1.83019   1.84945   1.88402   1.90711   1.93163
 Alpha virt. eigenvalues --    1.94702   1.96085   1.98616   2.01566   2.03341
 Alpha virt. eigenvalues --    2.06058   2.06892   2.07370   2.10165   2.12333
 Alpha virt. eigenvalues --    2.12461   2.16899   2.19143   2.20574   2.21369
 Alpha virt. eigenvalues --    2.22121   2.24858   2.26033   2.28380   2.31510
 Alpha virt. eigenvalues --    2.32492   2.33536   2.35156   2.36423   2.39641
 Alpha virt. eigenvalues --    2.40297   2.41850   2.44034   2.45660   2.49041
 Alpha virt. eigenvalues --    2.51051   2.52792   2.53610   2.57445   2.60833
 Alpha virt. eigenvalues --    2.63712   2.65953   2.67207   2.69937   2.71183
 Alpha virt. eigenvalues --    2.72107   2.73103   2.77358   2.78524   2.83221
 Alpha virt. eigenvalues --    2.88793   2.91250   2.92137   2.93982   2.96480
 Alpha virt. eigenvalues --    2.98796   3.01610   3.04108   3.05847   3.06150
 Alpha virt. eigenvalues --    3.08981   3.16360   3.21220   3.24580   3.27729
 Alpha virt. eigenvalues --    3.34444   3.35108   3.37272   3.51410   3.64420
 Alpha virt. eigenvalues --    4.13966   4.27356   4.36372   4.39713   4.47074
 Alpha virt. eigenvalues --    4.56110   4.61825   4.63039   4.73864   4.80618
 Alpha virt. eigenvalues --    4.98604   5.02088   5.06180   5.11963
          Condensed to atoms (all electrons):
               1          2          3          4          5          6
     1  O    8.316885   0.307002  -0.083352  -0.084798   0.004522  -0.000016
     2  N    0.307002   5.714074   0.302205   0.270785  -0.054545   0.000976
     3  O   -0.083352   0.302205   8.353491  -0.092377   0.003192   0.000788
     4  C   -0.084798   0.270785  -0.092377   5.216876   0.562606  -0.049198
     5  C    0.004522  -0.054545   0.003192   0.562606   4.720887   0.315789
     6  N   -0.000016   0.000976   0.000788  -0.049198   0.315789   7.189852
     7  C    0.000005  -0.000204   0.000001   0.006405  -0.038338   0.173362
     8  H   -0.000000   0.000002  -0.000000  -0.000394   0.004564  -0.054035
     9  C   -0.000000  -0.000011  -0.000000   0.001078   0.000225  -0.046404
    10  C    0.000000   0.000000  -0.000000  -0.000042  -0.000072   0.003587
    11  C   -0.000000  -0.000000  -0.000000  -0.000043   0.000017  -0.000042
    12  C    0.000000   0.000002  -0.000000  -0.000151  -0.000113   0.004404
    13  C   -0.000036  -0.000051  -0.000004  -0.012306  -0.002870  -0.059117
    14  H   -0.000004  -0.000087   0.000001   0.003137   0.006244  -0.008013
    15  N    0.000373   0.002158  -0.000015  -0.064117  -0.004562   0.001108
    16  C    0.000038  -0.028235   0.002501   0.328991  -0.046906  -0.000569
    17  H    0.000227  -0.007185   0.017240  -0.022430   0.373921  -0.032725
    18  H    0.000001  -0.000053   0.000012   0.001575  -0.029458   0.338664
    19  H    0.000002  -0.000010   0.000000  -0.001642   0.001462  -0.000297
    20  H    0.000000  -0.000000   0.000000  -0.000122   0.000111  -0.000205
    21  H   -0.000000  -0.000000  -0.000000   0.000001   0.000002  -0.000070
    22  H   -0.000000   0.000000  -0.000000  -0.000001  -0.000005  -0.000131
    23  H    0.000000  -0.000000   0.000000   0.000052   0.000000  -0.000033
    24  H    0.000000   0.000000   0.000000   0.000000  -0.000000   0.000006
    25  H   -0.000000  -0.000000   0.000000   0.000025  -0.000003  -0.000116
    26  H    0.000000  -0.000000   0.000000   0.000004  -0.000005  -0.000063
    27  H    0.005922  -0.001309   0.000016  -0.060502   0.002165  -0.000004
               7          8          9         10         11         12
     1  O    0.000005  -0.000000  -0.000000   0.000000  -0.000000   0.000000
     2  N   -0.000204   0.000002  -0.000011   0.000000  -0.000000   0.000002
     3  O    0.000001  -0.000000  -0.000000  -0.000000  -0.000000  -0.000000
     4  C    0.006405  -0.000394   0.001078  -0.000042  -0.000043  -0.000151
     5  C   -0.038338   0.004564   0.000225  -0.000072   0.000017  -0.000113
     6  N    0.173362  -0.054035  -0.046404   0.003587  -0.000042   0.004404
     7  C    5.055952   0.425926   0.342105  -0.058988  -0.009151  -0.062179
     8  H    0.425926   0.542295  -0.056197  -0.001576  -0.000908  -0.003824
     9  C    0.342105  -0.056197   5.150837   0.325344  -0.048525  -0.004412
    10  C   -0.058988  -0.001576   0.325344   5.122969   0.337250  -0.059200
    11  C   -0.009151  -0.000908  -0.048525   0.337250   5.126918   0.338635
    12  C   -0.062179  -0.003824  -0.004412  -0.059200   0.338635   5.111477
    13  C    0.329738  -0.042226  -0.056861   0.000252  -0.050818   0.368279
    14  H   -0.046545   0.000434   0.003554  -0.000349   0.003934  -0.031527
    15  N   -0.061958   0.004219  -0.019568   0.001727  -0.020231  -0.084796
    16  C   -0.004004   0.000117  -0.003159   0.000020   0.000014   0.003980
    17  H    0.001718  -0.000062  -0.000041   0.000001   0.000000   0.000000
    18  H   -0.021242  -0.005324   0.001467  -0.000084   0.000006  -0.000138
    19  H   -0.036807   0.004252   0.392327  -0.030893  -0.002091   0.000724
    20  H   -0.044068  -0.001627   0.399681  -0.035338   0.003729  -0.000438
    21  H    0.005176   0.000062  -0.037242   0.402095  -0.034613   0.004159
    22  H   -0.006731   0.003992  -0.046316   0.398668  -0.045535  -0.000350
    23  H    0.000186   0.000053  -0.001389  -0.038201   0.399037  -0.036140
    24  H   -0.000159  -0.000194   0.004412  -0.038727   0.401139  -0.039152
    25  H    0.005355   0.000098  -0.000431   0.004000  -0.033970   0.397663
    26  H   -0.005465   0.001595   0.001166  -0.001502  -0.040687   0.398254
    27  H   -0.000467   0.000011  -0.000056   0.000008   0.000019  -0.000064
              13         14         15         16         17         18
     1  O   -0.000036  -0.000004   0.000373   0.000038   0.000227   0.000001
     2  N   -0.000051  -0.000087   0.002158  -0.028235  -0.007185  -0.000053
     3  O   -0.000004   0.000001  -0.000015   0.002501   0.017240   0.000012
     4  C   -0.012306   0.003137  -0.064117   0.328991  -0.022430   0.001575
     5  C   -0.002870   0.006244  -0.004562  -0.046906   0.373921  -0.029458
     6  N   -0.059117  -0.008013   0.001108  -0.000569  -0.032725   0.338664
     7  C    0.329738  -0.046545  -0.061958  -0.004004   0.001718  -0.021242
     8  H   -0.042226   0.000434   0.004219   0.000117  -0.000062  -0.005324
     9  C   -0.056861   0.003554  -0.019568  -0.003159  -0.000041   0.001467
    10  C    0.000252  -0.000349   0.001727   0.000020   0.000001  -0.000084
    11  C   -0.050818   0.003934  -0.020231   0.000014   0.000000   0.000006
    12  C    0.368279  -0.031527  -0.084796   0.003980   0.000000  -0.000138
    13  C    5.076910   0.404293   0.246936  -0.076715  -0.000030   0.003441
    14  H    0.404293   0.509965  -0.033646  -0.006033   0.000093  -0.000026
    15  N    0.246936  -0.033646   6.972561   0.578166  -0.000072  -0.000152
    16  C   -0.076715  -0.006033   0.578166   4.730609   0.001681  -0.000213
    17  H   -0.000030   0.000093  -0.000072   0.001681   0.372298  -0.002356
    18  H    0.003441  -0.000026  -0.000152  -0.000213  -0.002356   0.305365
    19  H   -0.006832   0.000111   0.006995   0.003577   0.000009  -0.000130
    20  H    0.004229  -0.000047   0.000321  -0.000037  -0.000002   0.000591
    21  H   -0.000499   0.000009  -0.000042   0.000009  -0.000000   0.000001
    22  H    0.000035  -0.000047   0.000015  -0.000005   0.000000   0.000001
    23  H   -0.007470  -0.000015   0.008019   0.000030   0.000000   0.000000
    24  H    0.004855  -0.000050   0.000324   0.000009   0.000000  -0.000000
    25  H   -0.035489  -0.002614   0.000280  -0.000099  -0.000000   0.000003
    26  H   -0.047107  -0.000656   0.004896  -0.000096   0.000000  -0.000000
    27  H    0.005525  -0.000167  -0.039594   0.402302  -0.000078   0.000000
              19         20         21         22         23         24
     1  O    0.000002   0.000000  -0.000000  -0.000000   0.000000   0.000000
     2  N   -0.000010  -0.000000  -0.000000   0.000000  -0.000000   0.000000
     3  O    0.000000   0.000000  -0.000000  -0.000000   0.000000   0.000000
     4  C   -0.001642  -0.000122   0.000001  -0.000001   0.000052   0.000000
     5  C    0.001462   0.000111   0.000002  -0.000005   0.000000  -0.000000
     6  N   -0.000297  -0.000205  -0.000070  -0.000131  -0.000033   0.000006
     7  C   -0.036807  -0.044068   0.005176  -0.006731   0.000186  -0.000159
     8  H    0.004252  -0.001627   0.000062   0.003992   0.000053  -0.000194
     9  C    0.392327   0.399681  -0.037242  -0.046316  -0.001389   0.004412
    10  C   -0.030893  -0.035338   0.402095   0.398668  -0.038201  -0.038727
    11  C   -0.002091   0.003729  -0.034613  -0.045535   0.399037   0.401139
    12  C    0.000724  -0.000438   0.004159  -0.000350  -0.036140  -0.039152
    13  C   -0.006832   0.004229  -0.000499   0.000035  -0.007470   0.004855
    14  H    0.000111  -0.000047   0.000009  -0.000047  -0.000015  -0.000050
    15  N    0.006995   0.000321  -0.000042   0.000015   0.008019   0.000324
    16  C    0.003577  -0.000037   0.000009  -0.000005   0.000030   0.000009
    17  H    0.000009  -0.000002  -0.000000   0.000000   0.000000   0.000000
    18  H   -0.000130   0.000591   0.000001   0.000001   0.000000  -0.000000
    19  H    0.495931  -0.024018  -0.002409   0.003746   0.001253  -0.000073
    20  H   -0.024018   0.538712  -0.002522  -0.003010  -0.000041  -0.000080
    21  H   -0.002409  -0.002522   0.523010  -0.027065  -0.002879  -0.002384
    22  H    0.003746  -0.003010  -0.027065   0.570002   0.004055  -0.003838
    23  H    0.001253  -0.000041  -0.002879   0.004055   0.492018  -0.025607
    24  H   -0.000073  -0.000080  -0.002384  -0.003838  -0.025607   0.541937
    25  H   -0.000015   0.000012  -0.000086  -0.000070  -0.002342  -0.002139
    26  H    0.000003  -0.000025  -0.000076   0.002012   0.003853  -0.003063
    27  H    0.000132   0.000000  -0.000000   0.000000  -0.000038  -0.000000
              25         26         27
     1  O   -0.000000   0.000000   0.005922
     2  N   -0.000000  -0.000000  -0.001309
     3  O    0.000000   0.000000   0.000016
     4  C    0.000025   0.000004  -0.060502
     5  C   -0.000003  -0.000005   0.002165
     6  N   -0.000116  -0.000063  -0.000004
     7  C    0.005355  -0.005465  -0.000467
     8  H    0.000098   0.001595   0.000011
     9  C   -0.000431   0.001166  -0.000056
    10  C    0.004000  -0.001502   0.000008
    11  C   -0.033970  -0.040687   0.000019
    12  C    0.397663   0.398254  -0.000064
    13  C   -0.035489  -0.047107   0.005525
    14  H   -0.002614  -0.000656  -0.000167
    15  N    0.000280   0.004896  -0.039594
    16  C   -0.000099  -0.000096   0.402302
    17  H   -0.000000   0.000000  -0.000078
    18  H    0.000003  -0.000000   0.000000
    19  H   -0.000015   0.000003   0.000132
    20  H    0.000012  -0.000025   0.000000
    21  H   -0.000086  -0.000076  -0.000000
    22  H   -0.000070   0.002012   0.000000
    23  H   -0.002342   0.003853  -0.000038
    24  H   -0.002139  -0.003063  -0.000000
    25  H    0.511229  -0.024464  -0.000008
    26  H   -0.024464   0.561787   0.000001
    27  H   -0.000008   0.000001   0.436431
 Mulliken charges:
               1
     1  O   -0.466769
     2  N    0.494485
     3  O   -0.503696
     4  C   -0.003412
     5  C    0.181172
     6  N   -0.777495
     7  C    0.050376
     8  H    0.178748
     9  C   -0.301585
    10  C   -0.330948
    11  C   -0.324083
    12  C   -0.305094
    13  C   -0.046061
    14  H    0.198053
    15  N   -0.499344
    16  C    0.114027
    17  H    0.297794
    18  H    0.408051
    19  H    0.194692
    20  H    0.164193
    21  H    0.175363
    22  H    0.150577
    23  H    0.205600
    24  H    0.162784
    25  H    0.183181
    26  H    0.149637
    27  H    0.249755
 Sum of Mulliken charges =  -0.00000
 Mulliken charges with hydrogens summed into heavy atoms:
               1
     1  O   -0.466769
     2  N    0.494485
     3  O   -0.503696
     4  C   -0.003412
     5  C    0.478967
     6  N   -0.369445
     7  C    0.229123
     9  C    0.057300
    10  C   -0.005007
    11  C    0.044301
    12  C    0.027724
    13  C    0.151992
    15  N   -0.499344
    16  C    0.363782
 Electronic spatial extent (au):  <R**2>=           2921.9538
 Charge=             -0.0000 electrons
 Dipole moment (field-independent basis, Debye):
    X=              5.2053    Y=              4.7804    Z=              1.5743  Tot=              7.2405
 Quadrupole moment (field-independent basis, Debye-Ang):
   XX=           -105.5377   YY=            -79.4919   ZZ=            -81.0701
   XY=             -1.2411   XZ=             -1.5764   YZ=              2.4994
 Traceless Quadrupole moment (field-independent basis, Debye-Ang):
   XX=            -16.8378   YY=              9.2080   ZZ=              7.6298
   XY=             -1.2411   XZ=             -1.5764   YZ=              2.4994
 Octapole moment (field-independent basis, Debye-Ang**2):
  XXX=             80.0636  YYY=             34.7788  ZZZ=              0.9358  XYY=             -5.9993
  XXY=              8.4134  XXZ=             10.4308  XZZ=            -11.1315  YZZ=              0.3622
  YYZ=             11.3275  XYZ=              0.3024
 Hexadecapole moment (field-independent basis, Debye-Ang**3):
 XXXX=          -3219.0397 YYYY=           -588.8546 ZZZZ=           -336.9793 XXXY=              2.1179
 XXXZ=            -53.9870 YYYX=              9.1677 YYYZ=             21.4631 ZZZX=            -21.4880
 ZZZY=             -2.0694 XXYY=           -602.2221 XXZZ=           -511.5479 YYZZ=           -155.9122
 XXYZ=             -7.4162 YYXZ=             -8.8659 ZZXY=              7.3766
 N-N= 9.370339646294D+02 E-N=-3.420824623405D+03  KE= 6.596278594072D+02
 Unable to Open any file for archive entry.
 1\1\GINC-LOTUS\FOpt\RMP2-FC\6-31G(d)\C9H13N3O2\ALEXEY\30-Jun-2023\0\\#
 MP2/6-31G* SCF=Tight Opt=(ModRedun, MaxCycle=100 ) NoSymm\\MolName:\\0
 ,1\O,-3.4086082411,-1.3484445393,-0.5339496162\N,-3.0362977608,-0.1999
 983682,-0.2243943468\O,-3.8210969808,0.7524085746,-0.0516826099\C,-1.6
 033499238,0.0087792681,-0.0498933497\C,-1.2586594885,1.2723548976,0.37
 32430703\N,-0.0236058288,1.7586978839,0.577211111\C,1.1904210759,1.002
 9661292,0.3335246565\H,1.9341143328,1.5096473898,0.9676084388\C,1.7984
 464208,0.9722245449,-1.0625791326\C,3.2152084068,0.399190256,-0.882323
 5115\C,3.2220033174,-0.9586065431,-0.1665007668\C,2.4581691148,-0.9375
 97138,1.1658141074\C,1.0318460574,-0.4244945693,0.9066991066\H,0.41648
 43371,-0.3946287698,1.8159036567\N,0.4745082642,-1.3390496227,-0.08815
 74048\C,-0.7547596159,-1.1095240434,-0.4415851752\H,-2.0760929197,1.95
 99212135,0.5713523857\H,0.0535014392,2.722997226,0.8753083278\H,1.1998
 181506,0.3559219606,-1.7383759338\H,1.8423627782,1.9865726684,-1.47764
 82863\H,3.7040368043,0.3034666362,-1.8588535427\H,3.8092530118,1.12209
 09825,-0.3060913916\H,2.761094709,-1.7115017937,-0.8108291576\H,4.2597
 483595,-1.2692088691,0.0063468889\H,2.4109847861,-1.9492363513,1.58333
 10782\H,2.9653928579,-0.2995097297,1.9018629601\H,-1.2059234644,-1.823
 4692939,-1.1293415624\\Version=ES64L-G16RevC.02\HF=-661.2908466\MP2=-6
 63.3294184\RMSD=8.670e-09\RMSF=4.409e-03\Dipole=1.899408,1.6796618,0.5
 676898\PG=C01 [X(C9H13N3O2)]\\@
 The archive entry for this job was punched.


 IT IS BY LOGIC THAT WE PROVE, BUT BY INTUITION THAT WE DISCOVER.
     -- J.H.POINCARE (1854-1912)
 Job cpu time:       0 days  1 hours 43 minutes 55.6 seconds.
 Elapsed time:       0 days  0 hours 31 minutes 23.4 seconds.
 File lengths (MBytes):  RWF=     36 Int=      0 D2E=      0 Chk=      7 Scr=      1
 Normal termination of Gaussian 16 at Fri Jun 30 18:00:49 2023.
