 Entering Gaussian System, Link 0=g16
 Initial command:
 /home/alexey/programs//g16/l1.exe "/home/alexey/tmp/Gau-1185238.inp" -scrdir="/home/alexey/tmp/"
 Entering Link 1 = /home/alexey/programs//g16/l1.exe PID=   1185240.
  
 Copyright (c) 1988-2021, Gaussian, Inc.  All Rights Reserved.
  
 This is part of the Gaussian(R) 16 program.  It is based on
 the Gaussian(R) 09 system (copyright 2009, Gaussian, Inc.),
 the Gaussian(R) 03 system (copyright 2003, Gaussian, Inc.),
 the Gaussian(R) 98 system (copyright 1998, Gaussian, Inc.),
 the Gaussian(R) 94 system (copyright 1995, Gaussian, Inc.),
 the Gaussian 92(TM) system (copyright 1992, Gaussian, Inc.),
 the Gaussian 90(TM) system (copyright 1990, Gaussian, Inc.),
 the Gaussian 88(TM) system (copyright 1988, Gaussian, Inc.),
 the Gaussian 86(TM) system (copyright 1986, Carnegie Mellon
 University), and the Gaussian 82(TM) system (copyright 1983,
 Carnegie Mellon University). Gaussian is a federally registered
 trademark of Gaussian, Inc.
  
 This software contains proprietary and confidential information,
 including trade secrets, belonging to Gaussian, Inc.
  
 This software is provided under written license and may be
 used, copied, transmitted, or stored only in accord with that
 written license.
  
 The following legend is applicable only to US Government
 contracts under FAR:
  
                    RESTRICTED RIGHTS LEGEND
  
 Use, reproduction and disclosure by the US Government is
 subject to restrictions as set forth in subparagraphs (a)
 and (c) of the Commercial Computer Software - Restricted
 Rights clause in FAR 52.227-19.
  
 Gaussian, Inc.
 340 Quinnipiac St., Bldg. 40, Wallingford CT 06492
  
  
 ---------------------------------------------------------------
 Warning -- This program may not be used in any manner that
 competes with the business of Gaussian, Inc. or will provide
 assistance to any competitor of Gaussian, Inc.  The licensee
 of this program is prohibited from giving any competitor of
 Gaussian, Inc. access to this program.  By using this program,
 the user acknowledges that Gaussian, Inc. is engaged in the
 business of creating and licensing software in the field of
 computational chemistry and represents and warrants to the
 licensee that it is not a competitor of Gaussian, Inc. and that
 it will not use this program in any manner prohibited above.
 ---------------------------------------------------------------
  

 Cite this work as:
 Gaussian 16, Revision C.02,
 M. J. Frisch, G. W. Trucks, H. B. Schlegel, G. E. Scuseria, 
 M. A. Robb, J. R. Cheeseman, G. Scalmani, V. Barone, 
 G. A. Petersson, H. Nakatsuji, X. Li, M. Caricato, A. V. Marenich, 
 J. Bloino, B. G. Janesko, R. Gomperts, B. Mennucci, H. P. Hratchian, 
 J. V. Ortiz, A. F. Izmaylov, J. L. Sonnenberg, D. Williams-Young, 
 F. Ding, F. Lipparini, F. Egidi, J. Goings, B. Peng, A. Petrone, 
 T. Henderson, D. Ranasinghe, V. G. Zakrzewski, J. Gao, N. Rega, 
 G. Zheng, W. Liang, M. Hada, M. Ehara, K. Toyota, R. Fukuda, 
 J. Hasegawa, M. Ishida, T. Nakajima, Y. Honda, O. Kitao, H. Nakai, 
 T. Vreven, K. Throssell, J. A. Montgomery, Jr., J. E. Peralta, 
 F. Ogliaro, M. J. Bearpark, J. J. Heyd, E. N. Brothers, K. N. Kudin, 
 V. N. Staroverov, T. A. Keith, R. Kobayashi, J. Normand, 
 K. Raghavachari, A. P. Rendell, J. C. Burant, S. S. Iyengar, 
 J. Tomasi, M. Cossi, J. M. Millam, M. Klene, C. Adamo, R. Cammi, 
 J. W. Ochterski, R. L. Martin, K. Morokuma, O. Farkas, 
 J. B. Foresman, and D. J. Fox, Gaussian, Inc., Wallingford CT, 2019.
 
 ******************************************
 Gaussian 16:  ES64L-G16RevC.02  7-Dec-2021
                30-Jun-2023 
 ******************************************
 %mem=8GB
 %NPROCS=4
 Will use up to    4 processors via shared memory.
 %NoSave
 ----------------------------------------------------------
 #MP2/6-31G* SCF=Tight Opt=(ModRedun, MaxCycle=100 ) NoSymm
 ----------------------------------------------------------
 1/6=100,18=120,19=15,38=1/1,3;
 2/9=110,12=2,15=1,17=6,18=5,40=1/2;
 3/5=1,6=6,7=1,11=9,25=1,30=1,71=1/1,2,3;
 4//1;
 5/5=2,32=2,38=5/2;
 8/6=4,10=2/1;
 9/15=2,16=-3/6;
 10/5=1,31=1/2;
 6/7=2,8=2,9=2,10=2/1;
 7/12=2,30=1/1,2,3,16;
 1/6=100,18=20,19=15/3(2);
 2/9=110,15=1/2;
 99//99;
 2/9=110,15=1/2;
 3/5=1,6=6,7=1,11=9,25=1,30=1,71=1/1,2,3;
 4/5=5,16=3,69=1/1;
 5/5=2,32=2,38=5/2;
 8/6=4,10=2/1;
 9/15=2,16=-3/6;
 10/5=1,31=1/2;
 7/12=2,30=1/1,2,3,16;
 1/6=100,18=20,19=15/3(-8);
 2/9=110,15=1/2;
 6/7=2,8=2,9=2,10=2/1;
 99/9=10/99;
 --------
 MolName:
 --------
 Symbolic Z-matrix:
 Charge =  0 Multiplicity = 1
 8                    0    -3.62901  -1.49311   0.34657 
 7                    0    -3.27861  -0.31476   0.36624 
 8                    0    -4.02419   0.62178   0.65457 
 6                    0    -1.83531  -0.00491   0.0027 
 6                    0    -1.395     1.30948   0.16786 
 7                    0    -0.12252   1.68519  -0.15875 
 6                    0     1.14103   1.01208   0.25852 
 1                    0     1.55803   1.54767   1.1418 
 6                    0     2.1483    1.14952  -0.91056 
 6                    0     3.52088   0.52922  -0.59814 
 6                    0     3.38367  -0.93697  -0.17223 
 6                    0     2.37259  -1.07759   0.97596 
 6                    0     0.98306  -0.48025   0.64047 
 1                    0     0.40754  -0.52742   1.59937 
 7                    0     0.25988  -1.32156  -0.32992 
 6                    0    -1.00582  -1.11881  -0.52992 
 1                    0    -2.0812    2.07428   0.5681 
 1                    0     0.09965   2.58171  -0.59751 
 1                    0     1.73014   0.6299   -1.80342 
 1                    0     2.29206   2.22031  -1.1715 
 1                    0     4.18311   0.60215  -1.48886 
 1                    0     3.99647   1.10076   0.23055 
 1                    0     3.01924  -1.53359  -1.04026 
 1                    0     4.37201  -1.34473   0.13254 
 1                    0     2.25744  -2.15155   1.24171 
 1                    0     2.7779   -0.55227   1.86846 
 1                    0    -1.57034  -1.84154  -1.13835 
 
 The following ModRedundant input section has been read:
 D       6       7      13      15 F                                           
 D       1       2       4      16 F                                           
 D       7      13      15      16 F                                           
 D       7       9      10      11 F                                           
 D       9      10      11      12 F                                           
 

 GradGradGradGradGradGradGradGradGradGradGradGradGradGradGradGradGradGrad
 Berny optimization.
 Initialization pass.
                           ----------------------------
                           !    Initial Parameters    !
                           ! (Angstroms and Degrees)  !
 --------------------------                            --------------------------
 ! Name  Definition              Value          Derivative Info.                !
 --------------------------------------------------------------------------------
 ! R1    R(1,2)                  1.2295         estimate D2E/DX2                !
 ! R2    R(2,3)                  1.2313         estimate D2E/DX2                !
 ! R3    R(2,4)                  1.5203         estimate D2E/DX2                !
 ! R4    R(4,5)                  1.396          estimate D2E/DX2                !
 ! R5    R(4,16)                 1.4875         estimate D2E/DX2                !
 ! R6    R(5,6)                  1.3664         estimate D2E/DX2                !
 ! R7    R(5,17)                 1.1027         estimate D2E/DX2                !
 ! R8    R(6,7)                  1.4912         estimate D2E/DX2                !
 ! R9    R(6,18)                 1.0226         estimate D2E/DX2                !
 ! R10   R(7,8)                  1.114          estimate D2E/DX2                !
 ! R11   R(7,9)                  1.5493         estimate D2E/DX2                !
 ! R12   R(7,13)                 1.5485         estimate D2E/DX2                !
 ! R13   R(9,10)                 1.5383         estimate D2E/DX2                !
 ! R14   R(9,19)                 1.1145         estimate D2E/DX2                !
 ! R15   R(9,20)                 1.1115         estimate D2E/DX2                !
 ! R16   R(10,11)                1.533          estimate D2E/DX2                !
 ! R17   R(10,21)                1.1123         estimate D2E/DX2                !
 ! R18   R(10,22)                1.1134         estimate D2E/DX2                !
 ! R19   R(11,12)                1.5364         estimate D2E/DX2                !
 ! R20   R(11,23)                1.1146         estimate D2E/DX2                !
 ! R21   R(11,24)                1.1117         estimate D2E/DX2                !
 ! R22   R(12,13)                1.5492         estimate D2E/DX2                !
 ! R23   R(12,25)                1.1123         estimate D2E/DX2                !
 ! R24   R(12,26)                1.1121         estimate D2E/DX2                !
 ! R25   R(13,14)                1.1193         estimate D2E/DX2                !
 ! R26   R(13,15)                1.4739         estimate D2E/DX2                !
 ! R27   R(15,16)                1.2973         estimate D2E/DX2                !
 ! R28   R(16,27)                1.1005         estimate D2E/DX2                !
 ! A1    A(1,2,3)              124.0653         estimate D2E/DX2                !
 ! A2    A(1,2,4)              117.5205         estimate D2E/DX2                !
 ! A3    A(3,2,4)              118.4133         estimate D2E/DX2                !
 ! A4    A(2,4,5)              117.5838         estimate D2E/DX2                !
 ! A5    A(2,4,16)             117.5432         estimate D2E/DX2                !
 ! A6    A(5,4,16)             124.8595         estimate D2E/DX2                !
 ! A7    A(4,5,6)              121.6242         estimate D2E/DX2                !
 ! A8    A(4,5,17)             119.9794         estimate D2E/DX2                !
 ! A9    A(6,5,17)             118.3961         estimate D2E/DX2                !
 ! A10   A(5,6,7)              126.733          estimate D2E/DX2                !
 ! A11   A(5,6,18)             123.0912         estimate D2E/DX2                !
 ! A12   A(7,6,18)             109.3728         estimate D2E/DX2                !
 ! A13   A(6,7,8)              108.786          estimate D2E/DX2                !
 ! A14   A(6,7,9)              107.4397         estimate D2E/DX2                !
 ! A15   A(6,7,13)             114.6821         estimate D2E/DX2                !
 ! A16   A(8,7,9)              108.198          estimate D2E/DX2                !
 ! A17   A(8,7,13)             107.816          estimate D2E/DX2                !
 ! A18   A(9,7,13)             109.7518         estimate D2E/DX2                !
 ! A19   A(7,9,10)             113.0224         estimate D2E/DX2                !
 ! A20   A(7,9,19)             108.617          estimate D2E/DX2                !
 ! A21   A(7,9,20)             110.2868         estimate D2E/DX2                !
 ! A22   A(10,9,19)            108.0284         estimate D2E/DX2                !
 ! A23   A(10,9,20)            108.7085         estimate D2E/DX2                !
 ! A24   A(19,9,20)            108.0368         estimate D2E/DX2                !
 ! A25   A(9,10,11)            111.2378         estimate D2E/DX2                !
 ! A26   A(9,10,21)            110.008          estimate D2E/DX2                !
 ! A27   A(9,10,22)            108.9846         estimate D2E/DX2                !
 ! A28   A(11,10,21)           109.7846         estimate D2E/DX2                !
 ! A29   A(11,10,22)           108.8098         estimate D2E/DX2                !
 ! A30   A(21,10,22)           107.9421         estimate D2E/DX2                !
 ! A31   A(10,11,12)           110.7375         estimate D2E/DX2                !
 ! A32   A(10,11,23)           108.9576         estimate D2E/DX2                !
 ! A33   A(10,11,24)           110.3281         estimate D2E/DX2                !
 ! A34   A(12,11,23)           108.5338         estimate D2E/DX2                !
 ! A35   A(12,11,24)           110.28           estimate D2E/DX2                !
 ! A36   A(23,11,24)           107.9295         estimate D2E/DX2                !
 ! A37   A(11,12,13)           113.1493         estimate D2E/DX2                !
 ! A38   A(11,12,25)           109.5756         estimate D2E/DX2                !
 ! A39   A(11,12,26)           108.4625         estimate D2E/DX2                !
 ! A40   A(13,12,25)           109.339          estimate D2E/DX2                !
 ! A41   A(13,12,26)           108.5745         estimate D2E/DX2                !
 ! A42   A(25,12,26)           107.5816         estimate D2E/DX2                !
 ! A43   A(7,13,12)            109.4811         estimate D2E/DX2                !
 ! A44   A(7,13,14)            107.7199         estimate D2E/DX2                !
 ! A45   A(7,13,15)            115.9603         estimate D2E/DX2                !
 ! A46   A(12,13,14)           105.034          estimate D2E/DX2                !
 ! A47   A(12,13,15)           111.2573         estimate D2E/DX2                !
 ! A48   A(14,13,15)           106.7189         estimate D2E/DX2                !
 ! A49   A(13,15,16)           119.4045         estimate D2E/DX2                !
 ! A50   A(4,16,15)            127.2928         estimate D2E/DX2                !
 ! A51   A(4,16,27)            113.8091         estimate D2E/DX2                !
 ! A52   A(15,16,27)           118.8834         estimate D2E/DX2                !
 ! D1    D(1,2,4,5)           -173.0127         estimate D2E/DX2                !
 ! D2    D(1,2,4,16)             8.2602         Frozen                          !
 ! D3    D(3,2,4,5)              7.3307         estimate D2E/DX2                !
 ! D4    D(3,2,4,16)          -171.3964         estimate D2E/DX2                !
 ! D5    D(2,4,5,6)           -178.6494         estimate D2E/DX2                !
 ! D6    D(2,4,5,17)             1.178          estimate D2E/DX2                !
 ! D7    D(16,4,5,6)            -0.0248         estimate D2E/DX2                !
 ! D8    D(16,4,5,17)          179.8025         estimate D2E/DX2                !
 ! D9    D(2,4,16,15)         -144.9287         estimate D2E/DX2                !
 ! D10   D(2,4,16,27)           33.6491         estimate D2E/DX2                !
 ! D11   D(5,4,16,15)           36.4463         estimate D2E/DX2                !
 ! D12   D(5,4,16,27)         -144.976          estimate D2E/DX2                !
 ! D13   D(4,5,6,7)            -50.0452         estimate D2E/DX2                !
 ! D14   D(4,5,6,18)           141.3298         estimate D2E/DX2                !
 ! D15   D(17,5,6,7)           130.1248         estimate D2E/DX2                !
 ! D16   D(17,5,6,18)          -38.5002         estimate D2E/DX2                !
 ! D17   D(5,6,7,8)            -97.4726         estimate D2E/DX2                !
 ! D18   D(5,6,7,9)            145.6152         estimate D2E/DX2                !
 ! D19   D(5,6,7,13)            23.3244         estimate D2E/DX2                !
 ! D20   D(18,6,7,8)            72.4397         estimate D2E/DX2                !
 ! D21   D(18,6,7,9)           -44.4725         estimate D2E/DX2                !
 ! D22   D(18,6,7,13)         -166.7634         estimate D2E/DX2                !
 ! D23   D(6,7,9,10)           178.3389         estimate D2E/DX2                !
 ! D24   D(6,7,9,19)           -61.7943         estimate D2E/DX2                !
 ! D25   D(6,7,9,20)            56.4254         estimate D2E/DX2                !
 ! D26   D(8,7,9,10)            61.0425         estimate D2E/DX2                !
 ! D27   D(8,7,9,19)          -179.0907         estimate D2E/DX2                !
 ! D28   D(8,7,9,20)           -60.871          estimate D2E/DX2                !
 ! D29   D(13,7,9,10)          -56.3605         estimate D2E/DX2                !
 ! D30   D(13,7,9,19)           63.5063         estimate D2E/DX2                !
 ! D31   D(13,7,9,20)         -178.274          estimate D2E/DX2                !
 ! D32   D(6,7,13,12)          176.8687         estimate D2E/DX2                !
 ! D33   D(6,7,13,14)          -69.4356         estimate D2E/DX2                !
 ! D34   D(6,7,13,15)           50.0013         Frozen                          !
 ! D35   D(8,7,13,12)          -61.8018         estimate D2E/DX2                !
 ! D36   D(8,7,13,14)           51.8939         estimate D2E/DX2                !
 ! D37   D(8,7,13,15)          171.3309         estimate D2E/DX2                !
 ! D38   D(9,7,13,12)           55.8395         estimate D2E/DX2                !
 ! D39   D(9,7,13,14)          169.5352         estimate D2E/DX2                !
 ! D40   D(9,7,13,15)          -71.0278         estimate D2E/DX2                !
 ! D41   D(7,9,10,11)           54.81           Frozen                          !
 ! D42   D(7,9,10,21)          176.6795         estimate D2E/DX2                !
 ! D43   D(7,9,10,22)          -65.1582         estimate D2E/DX2                !
 ! D44   D(19,9,10,11)         -65.3939         estimate D2E/DX2                !
 ! D45   D(19,9,10,21)          56.4756         estimate D2E/DX2                !
 ! D46   D(19,9,10,22)         174.6379         estimate D2E/DX2                !
 ! D47   D(20,9,10,11)         177.6056         estimate D2E/DX2                !
 ! D48   D(20,9,10,21)         -60.5248         estimate D2E/DX2                !
 ! D49   D(20,9,10,22)          57.6375         estimate D2E/DX2                !
 ! D50   D(9,10,11,12)         -52.8204         Frozen                          !
 ! D51   D(9,10,11,23)          66.4829         estimate D2E/DX2                !
 ! D52   D(9,10,11,24)        -175.1982         estimate D2E/DX2                !
 ! D53   D(21,10,11,12)       -174.8196         estimate D2E/DX2                !
 ! D54   D(21,10,11,23)        -55.5163         estimate D2E/DX2                !
 ! D55   D(21,10,11,24)         62.8025         estimate D2E/DX2                !
 ! D56   D(22,10,11,12)         67.2514         estimate D2E/DX2                !
 ! D57   D(22,10,11,23)       -173.4453         estimate D2E/DX2                !
 ! D58   D(22,10,11,24)        -55.1265         estimate D2E/DX2                !
 ! D59   D(10,11,12,13)         55.435          estimate D2E/DX2                !
 ! D60   D(10,11,12,25)        177.7306         estimate D2E/DX2                !
 ! D61   D(10,11,12,26)        -65.0941         estimate D2E/DX2                !
 ! D62   D(23,11,12,13)        -64.1232         estimate D2E/DX2                !
 ! D63   D(23,11,12,25)         58.1724         estimate D2E/DX2                !
 ! D64   D(23,11,12,26)        175.3476         estimate D2E/DX2                !
 ! D65   D(24,11,12,13)        177.8409         estimate D2E/DX2                !
 ! D66   D(24,11,12,25)        -59.8634         estimate D2E/DX2                !
 ! D67   D(24,11,12,26)         57.3118         estimate D2E/DX2                !
 ! D68   D(11,12,13,7)         -57.1048         estimate D2E/DX2                !
 ! D69   D(11,12,13,14)       -172.5279         estimate D2E/DX2                !
 ! D70   D(11,12,13,15)         72.378          estimate D2E/DX2                !
 ! D71   D(25,12,13,7)        -179.5323         estimate D2E/DX2                !
 ! D72   D(25,12,13,14)         65.0446         estimate D2E/DX2                !
 ! D73   D(25,12,13,15)        -50.0495         estimate D2E/DX2                !
 ! D74   D(26,12,13,7)          63.3606         estimate D2E/DX2                !
 ! D75   D(26,12,13,14)        -52.0625         estimate D2E/DX2                !
 ! D76   D(26,12,13,15)       -167.1566         estimate D2E/DX2                !
 ! D77   D(7,13,15,16)         -67.1601         Frozen                          !
 ! D78   D(12,13,15,16)        166.8665         estimate D2E/DX2                !
 ! D79   D(14,13,15,16)         52.8206         estimate D2E/DX2                !
 ! D80   D(13,15,16,4)           7.5493         estimate D2E/DX2                !
 ! D81   D(13,15,16,27)       -170.9647         estimate D2E/DX2                !
 --------------------------------------------------------------------------------
 Trust Radius=3.00D-01 FncErr=1.00D-07 GrdErr=1.00D-07 EigMax=2.50D+02 EigMin=1.00D-04
 Number of steps in this run=    100 maximum allowed number of steps=    162.
 GradGradGradGradGradGradGradGradGradGradGradGradGradGradGradGradGradGrad

                          Input orientation:                          
 ---------------------------------------------------------------------
 Center     Atomic      Atomic             Coordinates (Angstroms)
 Number     Number       Type             X           Y           Z
 ---------------------------------------------------------------------
      1          8           0       -3.629010   -1.493110    0.346570
      2          7           0       -3.278610   -0.314760    0.366240
      3          8           0       -4.024190    0.621780    0.654570
      4          6           0       -1.835310   -0.004910    0.002700
      5          6           0       -1.395000    1.309480    0.167860
      6          7           0       -0.122520    1.685190   -0.158750
      7          6           0        1.141030    1.012080    0.258520
      8          1           0        1.558030    1.547670    1.141800
      9          6           0        2.148300    1.149520   -0.910560
     10          6           0        3.520880    0.529220   -0.598140
     11          6           0        3.383670   -0.936970   -0.172230
     12          6           0        2.372590   -1.077590    0.975960
     13          6           0        0.983060   -0.480250    0.640470
     14          1           0        0.407540   -0.527420    1.599370
     15          7           0        0.259880   -1.321560   -0.329920
     16          6           0       -1.005820   -1.118810   -0.529920
     17          1           0       -2.081200    2.074280    0.568100
     18          1           0        0.099650    2.581710   -0.597510
     19          1           0        1.730140    0.629900   -1.803420
     20          1           0        2.292060    2.220310   -1.171500
     21          1           0        4.183110    0.602150   -1.488860
     22          1           0        3.996470    1.100760    0.230550
     23          1           0        3.019240   -1.533590   -1.040260
     24          1           0        4.372010   -1.344730    0.132540
     25          1           0        2.257440   -2.151550    1.241710
     26          1           0        2.777900   -0.552270    1.868460
     27          1           0       -1.570340   -1.841540   -1.138350
 ---------------------------------------------------------------------
                    Distance matrix (angstroms):
                    1          2          3          4          5
     1  O    0.000000
     2  N    1.229502   0.000000
     3  O    2.173428   1.231313   0.000000
     4  C    2.355917   1.520291   2.368305   0.000000
     5  C    3.588488   2.495095   2.760880   1.395984   0.000000
     6  N    4.759455   3.773105   4.124968   2.411670   1.366396
     7  C    5.388600   4.615769   5.195064   3.155679   2.555017
     8  H    6.064991   5.240537   5.679423   3.901642   3.118602
     9  C    6.476201   5.764173   6.389662   4.246870   3.707230
    10  C    7.490208   6.919205   7.648917   5.416186   5.036014
    11  C    7.053802   6.712903   7.615096   5.304440   5.291303
    12  C    6.048801   5.734957   6.626458   4.450202   4.532754
    13  C    4.731115   4.273689   5.127107   2.928465   3.013580
    14  H    4.335412   3.892754   4.674777   2.802275   2.944923
    15  N    3.951017   3.744222   4.806147   2.496803   3.147822
    16  C    2.790961   2.571998   3.680112   1.487451   2.556355
    17  H    3.895005   2.679935   2.427436   2.168679   1.102716
    18  H    5.603423   4.553130   4.734457   3.285563   2.106737
    19  H    6.152245   5.539619   6.257323   4.046911   3.756897
    20  H    7.152139   6.310593   6.766450   4.833791   4.027146
    21  H    8.293861   7.743345   8.482597   6.230141   5.861770
    22  H    8.055406   7.412752   8.046130   5.940040   5.395873
    23  H    6.791477   6.567092   7.558305   5.195314   5.387775
    24  H    8.005257   7.723176   8.639204   6.351598   6.348581
    25  H    5.990418   5.898143   6.891659   4.784748   5.145114
    26  H    6.652054   6.244549   7.008591   5.006233   4.875577
    27  H    2.562131   2.740992   3.912018   2.178397   3.415532
                    6          7          8          9         10
     6  N    0.000000
     7  C    1.491224   0.000000
     8  H    2.129458   1.113970   0.000000
     9  C    2.451282   1.549268   2.172354   0.000000
    10  C    3.847557   2.575016   2.813790   1.538296   0.000000
    11  C    4.378273   3.002295   3.351578   2.534701   1.532951
    12  C    3.891798   2.529463   2.753725   2.927334   2.525510
    13  C    2.559334   1.548512   2.166652   2.533699   2.998952
    14  H    2.875342   2.169319   2.416401   3.484555   3.954545
    15  N    3.035799   2.562921   3.476152   3.163781   3.759182
    16  C    2.963174   3.125907   4.059321   3.903675   4.817849
    17  H    2.125119   3.406886   3.721619   4.574963   5.927109
    18  H    1.022555   2.069057   2.494255   2.519154   3.989678
    19  H    2.692754   2.178235   3.089700   1.114478   2.160923
    20  H    2.672492   2.197646   2.518452   1.111462   2.167608
    21  H    4.634719   3.532086   3.834765   2.185062   1.112317
    22  H    4.178420   2.856954   2.641230   2.172612   1.113360
    23  H    4.583477   3.419786   4.048541   2.823905   2.168478
    24  H    5.428265   4.001207   4.159696   3.500604   2.184034
    25  H    4.727163   3.495939   3.766084   3.942238   3.488245
    26  H    4.186675   2.778208   2.534929   3.318951   2.793878
    27  H    3.936194   4.176831   5.145146   4.777720   5.642061
                   11         12         13         14         15
    11  C    0.000000
    12  C    1.536358   0.000000
    13  C    2.575268   1.549246   0.000000
    14  H    3.487642   2.133717   1.119347   0.000000
    15  N    3.151323   2.495674   1.473923   2.091560   0.000000
    16  C    4.407792   3.699058   2.394413   2.623205   1.297345
    17  H    6.283353   5.471460   3.990056   3.745155   4.221235
    18  H    4.831848   4.586125   3.418860   3.819394   3.915711
    19  H    2.801789   3.324638   2.786245   3.829836   2.853255
    20  H    3.486914   3.936269   3.505673   4.333492   4.169275
    21  H    2.177501   3.489247   3.993239   5.006798   4.520568
    22  H    2.165664   2.817416   3.427574   4.171937   4.488192
    23  H    1.114559   2.165926   2.842606   3.847207   2.857203
    24  H    1.111741   2.186413   3.534162   4.305416   4.138118
    25  H    2.177803   1.112328   2.186042   2.487539   2.673789
    26  H    2.163184   1.112112   2.175913   2.385714   3.430030
    27  H    5.127753   4.538791   3.396640   3.624090   2.067279
                   16         17         18         19         20
    16  C    0.000000
    17  H    3.543715   0.000000
    18  H    3.862704   2.524329   0.000000
    19  H    3.487874   4.715576   2.814654   0.000000
    20  H    4.736809   4.708815   2.294937   1.801244   0.000000
    21  H    5.550339   6.755726   4.624695   2.473212   2.509030
    22  H    5.525189   6.164394   4.250189   3.081395   2.474702
    23  H    4.078431   6.451204   5.065148   2.631517   3.825935
    24  H    5.423186   7.315959   5.848330   3.824471   4.328536
    25  H    3.854100   6.093865   5.517476   4.157803   4.993790
    26  H    4.515499   5.674553   4.803734   3.997253   4.143018
    27  H    1.100549   4.301929   4.758835   4.176542   5.605164
                   21         22         23         24         25
    21  H    0.000000
    22  H    1.799949   0.000000
    23  H    2.473302   3.083786   0.000000
    24  H    2.540662   2.476097   1.800310   0.000000
    25  H    4.329790   3.824159   2.483868   2.520441   0.000000
    26  H    3.818232   2.626818   3.079267   2.486483   1.794823
    27  H    6.260724   6.443632   4.600945   6.097008   4.518041
                   26         27
    26  H    0.000000
    27  H    5.441536   0.000000
 Symmetry turned off by external request.
 Stoichiometry    C9H13N3O2
 Framework group  C1[X(C9H13N3O2)]
 Deg. of freedom    75
 Full point group                 C1      NOp   1
 Rotational constants (GHZ):           1.7285485           0.3927854           0.3447014
 Standard basis: 6-31G(d) (6D, 7F)
   236 basis functions,   444 primitive gaussians,   236 cartesian basis functions
    52 alpha electrons       52 beta electrons
       nuclear repulsion energy       914.1837753925 Hartrees.
 NAtoms=   27 NActive=   27 NUniq=   27 SFac= 1.00D+00 NAtFMM=   60 NAOKFM=F Big=F
 Integral buffers will be    131072 words long.
 Raffenetti 1 integral format.
 Two-electron integral symmetry is turned off.
 One-electron integrals computed using PRISM.
 NBasis=   236 RedAO= T EigKep=  1.37D-03  NBF=   236
 NBsUse=   236 1.00D-06 EigRej= -1.00D+00 NBFU=   236
 ExpMin= 1.61D-01 ExpMax= 5.48D+03 ExpMxC= 8.25D+02 IAcc=3 IRadAn=         5 AccDes= 0.00D+00
 Harris functional with IExCor=  205 and IRadAn=       5 diagonalized for initial guess.
 HarFok:  IExCor=  205 AccDes= 0.00D+00 IRadAn=         5 IDoV= 1 UseB2=F ITyADJ=14
 ICtDFT=  3500011 ScaDFX=  1.000000  1.000000  1.000000  1.000000
 FoFCou: FMM=F IPFlag=           0 FMFlag=      100000 FMFlg1=           0
         NFxFlg=           0 DoJE=T BraDBF=F KetDBF=T FulRan=T
         wScrn=  0.000000 ICntrl=       500 IOpCl=  0 I1Cent=   200000004 NGrid=           0
         NMat0=    1 NMatS0=      1 NMatT0=    0 NMatD0=    1 NMtDS0=    0 NMtDT0=    0
 Symmetry not used in FoFCou.
 Keep R1 ints in memory in canonical form, NReq=397720213.
 Requested convergence on RMS density matrix=1.00D-08 within 128 cycles.
 Requested convergence on MAX density matrix=1.00D-06.
 Requested convergence on             energy=1.00D-06.
 No special actions if energy rises.
 SCF Done:  E(RHF) =  -661.268707021     A.U. after   16 cycles
            NFock= 16  Conv=0.60D-08     -V/T= 2.0036
 ExpMin= 1.61D-01 ExpMax= 5.48D+03 ExpMxC= 8.25D+02 IAcc=3 IRadAn=         5 AccDes= 0.00D+00
 HarFok:  IExCor=  205 AccDes= 0.00D+00 IRadAn=         5 IDoV=-2 UseB2=F ITyADJ=14
 ICtDFT= 12500011 ScaDFX=  1.000000  1.000000  1.000000  1.000000
 Range of M.O.s used for correlation:    15   236
 NBasis=   236 NAE=    52 NBE=    52 NFC=    14 NFV=     0
 NROrb=    222 NOA=    38 NOB=    38 NVA=   184 NVB=   184
 Fully direct method using O(ONN) memory.
 JobTyp=1 Pass  1:  I=  15 to  52 NPSUse=  4 ParTrn=T ParDer=T DoDerP=T.
 Spin components of T(2) and E(2):
     alpha-alpha T2 =       0.9164860201D-01 E2=     -0.2711418966D+00
     alpha-beta  T2 =       0.5004801711D+00 E2=     -0.1493623803D+01
     beta-beta   T2 =       0.9164860201D-01 E2=     -0.2711418966D+00
 ANorm=    0.1297604476D+01
 E2 =    -0.2035907596D+01 EUMP2 =    -0.66330461461704D+03
          IDoAtm=111111111111111111111111111
          Differentiating once with respect to electric field.
                with respect to dipole field.
          Differentiating once with respect to nuclear coordinates.
 Keep R1 ints in memory in canonical form, NReq=397723379.
          There are     1 degrees of freedom in the 1st order CPHF.  IDoFFX=0 NUNeed=     1.
 LinEq1:  Iter=  0 NonCon=     1 RMS=4.54D-03 Max=1.02D-01 NDo=     1
 AX will form     1 AO Fock derivatives at one time.
 LinEq1:  Iter=  1 NonCon=     1 RMS=1.52D-03 Max=2.93D-02 NDo=     1
 LinEq1:  Iter=  2 NonCon=     1 RMS=6.36D-04 Max=1.63D-02 NDo=     1
 LinEq1:  Iter=  3 NonCon=     1 RMS=3.00D-04 Max=9.40D-03 NDo=     1
 LinEq1:  Iter=  4 NonCon=     1 RMS=9.31D-05 Max=2.07D-03 NDo=     1
 LinEq1:  Iter=  5 NonCon=     1 RMS=4.05D-05 Max=2.17D-03 NDo=     1
 LinEq1:  Iter=  6 NonCon=     1 RMS=1.67D-05 Max=6.07D-04 NDo=     1
 LinEq1:  Iter=  7 NonCon=     1 RMS=6.66D-06 Max=1.27D-04 NDo=     1
 LinEq1:  Iter=  8 NonCon=     1 RMS=2.73D-06 Max=7.36D-05 NDo=     1
 LinEq1:  Iter=  9 NonCon=     1 RMS=1.08D-06 Max=3.04D-05 NDo=     1
 LinEq1:  Iter= 10 NonCon=     1 RMS=5.06D-07 Max=1.37D-05 NDo=     1
 LinEq1:  Iter= 11 NonCon=     1 RMS=1.67D-07 Max=5.84D-06 NDo=     1
 LinEq1:  Iter= 12 NonCon=     1 RMS=5.69D-08 Max=8.51D-07 NDo=     1
 LinEq1:  Iter= 13 NonCon=     1 RMS=1.81D-08 Max=3.11D-07 NDo=     1
 LinEq1:  Iter= 14 NonCon=     1 RMS=6.21D-09 Max=1.20D-07 NDo=     1
 LinEq1:  Iter= 15 NonCon=     1 RMS=2.56D-09 Max=5.46D-08 NDo=     1
 LinEq1:  Iter= 16 NonCon=     1 RMS=9.34D-10 Max=1.98D-08 NDo=     1
 LinEq1:  Iter= 17 NonCon=     1 RMS=2.70D-10 Max=3.68D-09 NDo=     1
 LinEq1:  Iter= 18 NonCon=     1 RMS=8.96D-11 Max=1.50D-09 NDo=     1
 LinEq1:  Iter= 19 NonCon=     0 RMS=2.72D-11 Max=4.46D-10 NDo=     1
 Linear equations converged to 1.000D-10 1.000D-09 after    19 iterations.
 End of Minotr F.D. properties file   721 does not exist.
 End of Minotr F.D. properties file   722 does not exist.
 End of Minotr F.D. properties file   788 does not exist.

 **********************************************************************

            Population analysis using the SCF Density.

 **********************************************************************

 Alpha  occ. eigenvalues --  -20.60252 -20.59737 -15.85527 -15.61183 -15.57778
 Alpha  occ. eigenvalues --  -11.35125 -11.30750 -11.30574 -11.30071 -11.28047
 Alpha  occ. eigenvalues --  -11.24526 -11.23797 -11.23660 -11.22993  -1.58844
 Alpha  occ. eigenvalues --   -1.38375  -1.28034  -1.22357  -1.13268  -1.08482
 Alpha  occ. eigenvalues --   -1.01943  -1.00667  -0.93172  -0.89104  -0.84922
 Alpha  occ. eigenvalues --   -0.81623  -0.78418  -0.76606  -0.73789  -0.70969
 Alpha  occ. eigenvalues --   -0.70376  -0.69999  -0.67037  -0.64649  -0.64111
 Alpha  occ. eigenvalues --   -0.62026  -0.60949  -0.57726  -0.55821  -0.54982
 Alpha  occ. eigenvalues --   -0.53015  -0.50591  -0.49138  -0.48619  -0.47617
 Alpha  occ. eigenvalues --   -0.47229  -0.46157  -0.45411  -0.44208  -0.41656
 Alpha  occ. eigenvalues --   -0.40317  -0.34343
 Alpha virt. eigenvalues --    0.06078   0.11573   0.19426   0.20979   0.22931
 Alpha virt. eigenvalues --    0.23830   0.26282   0.27697   0.28395   0.29561
 Alpha virt. eigenvalues --    0.29972   0.30433   0.31274   0.32367   0.32892
 Alpha virt. eigenvalues --    0.33062   0.34571   0.36408   0.38163   0.39010
 Alpha virt. eigenvalues --    0.40044   0.42456   0.43846   0.45228   0.45798
 Alpha virt. eigenvalues --    0.46934   0.48724   0.52355   0.57686   0.58741
 Alpha virt. eigenvalues --    0.63174   0.68427   0.71326   0.72008   0.73491
 Alpha virt. eigenvalues --    0.74703   0.75617   0.76062   0.76275   0.79498
 Alpha virt. eigenvalues --    0.80241   0.82406   0.83391   0.85363   0.87917
 Alpha virt. eigenvalues --    0.89170   0.90828   0.91927   0.93423   0.93864
 Alpha virt. eigenvalues --    0.96885   0.97305   0.98834   0.99493   1.00614
 Alpha virt. eigenvalues --    1.02274   1.03779   1.05059   1.06643   1.07860
 Alpha virt. eigenvalues --    1.08929   1.09848   1.10723   1.11319   1.12496
 Alpha virt. eigenvalues --    1.13803   1.14008   1.14714   1.15858   1.17111
 Alpha virt. eigenvalues --    1.18436   1.19336   1.20682   1.21462   1.21732
 Alpha virt. eigenvalues --    1.23159   1.24407   1.25156   1.25984   1.27139
 Alpha virt. eigenvalues --    1.27813   1.31276   1.35943   1.38421   1.42084
 Alpha virt. eigenvalues --    1.43411   1.44375   1.44822   1.47174   1.49857
 Alpha virt. eigenvalues --    1.52605   1.55896   1.60048   1.62759   1.65535
 Alpha virt. eigenvalues --    1.67026   1.68311   1.72424   1.72572   1.75703
 Alpha virt. eigenvalues --    1.78657   1.82380   1.83767   1.87572   1.91869
 Alpha virt. eigenvalues --    1.93590   1.94447   1.96220   2.00084   2.02353
 Alpha virt. eigenvalues --    2.03196   2.05055   2.05697   2.08457   2.11116
 Alpha virt. eigenvalues --    2.11671   2.15632   2.16683   2.18363   2.19319
 Alpha virt. eigenvalues --    2.20226   2.22854   2.23985   2.25155   2.28465
 Alpha virt. eigenvalues --    2.30155   2.31185   2.33083   2.34366   2.35910
 Alpha virt. eigenvalues --    2.38265   2.38844   2.41295   2.42851   2.45081
 Alpha virt. eigenvalues --    2.48010   2.51171   2.54528   2.55299   2.58808
 Alpha virt. eigenvalues --    2.61399   2.62279   2.68289   2.68649   2.69334
 Alpha virt. eigenvalues --    2.71046   2.72541   2.75913   2.77728   2.79622
 Alpha virt. eigenvalues --    2.81629   2.84299   2.91672   2.92139   2.93315
 Alpha virt. eigenvalues --    2.96988   2.99068   3.02041   3.02560   3.06835
 Alpha virt. eigenvalues --    3.08903   3.12099   3.20061   3.21970   3.23629
 Alpha virt. eigenvalues --    3.27551   3.35123   3.35642   3.42680   3.57245
 Alpha virt. eigenvalues --    4.08428   4.22969   4.32818   4.37691   4.38802
 Alpha virt. eigenvalues --    4.53022   4.56870   4.60911   4.69333   4.76870
 Alpha virt. eigenvalues --    4.92466   4.98237   5.02640   5.10631
          Condensed to atoms (all electrons):
               1          2          3          4          5          6
     1  O    8.295918   0.312815  -0.088224  -0.079714   0.003125  -0.000022
     2  N    0.312815   5.704100   0.307474   0.250005  -0.042470   0.001149
     3  O   -0.088224   0.307474   8.323768  -0.083963   0.007111   0.000381
     4  C   -0.079714   0.250005  -0.083963   5.214226   0.594712  -0.063656
     5  C    0.003125  -0.042470   0.007111   0.594712   4.664037   0.301823
     6  N   -0.000022   0.001149   0.000381  -0.063656   0.301823   7.231696
     7  C    0.000003  -0.000081   0.000002   0.000200  -0.030486   0.214141
     8  H   -0.000000   0.000006  -0.000000   0.000544  -0.001259  -0.050485
     9  C   -0.000000  -0.000001   0.000000  -0.000041   0.003957  -0.069345
    10  C   -0.000000   0.000000  -0.000000   0.000002  -0.000085   0.003530
    11  C    0.000000  -0.000000  -0.000000  -0.000018   0.000013  -0.000221
    12  C   -0.000000   0.000003  -0.000000   0.000121  -0.000058   0.002849
    13  C   -0.000016  -0.000087  -0.000003  -0.015614   0.001886  -0.042210
    14  H   -0.000012  -0.000035  -0.000002   0.003700   0.006358  -0.004356
    15  N    0.000009   0.001713  -0.000015  -0.056107  -0.007398   0.004462
    16  C    0.005938  -0.030406   0.001846   0.321408  -0.041317  -0.003126
    17  H    0.000056  -0.002189   0.008451  -0.036529   0.383666  -0.037902
    18  H    0.000000  -0.000037   0.000007   0.001275  -0.023064   0.327289
    19  H    0.000000   0.000000   0.000000  -0.000077  -0.000329   0.001259
    20  H    0.000000   0.000000  -0.000000  -0.000009   0.000010  -0.003783
    21  H   -0.000000  -0.000000   0.000000  -0.000000   0.000001  -0.000064
    22  H   -0.000000   0.000000   0.000000   0.000000  -0.000002  -0.000080
    23  H    0.000000  -0.000000   0.000000   0.000010   0.000000  -0.000032
    24  H    0.000000   0.000000   0.000000   0.000000  -0.000000   0.000004
    25  H    0.000000  -0.000000   0.000000   0.000018  -0.000001  -0.000051
    26  H   -0.000000  -0.000000   0.000000   0.000009  -0.000001  -0.000038
    27  H    0.003826   0.000451  -0.000021  -0.065938   0.001837   0.000202
               7          8          9         10         11         12
     1  O    0.000003  -0.000000  -0.000000  -0.000000   0.000000  -0.000000
     2  N   -0.000081   0.000006  -0.000001   0.000000  -0.000000   0.000003
     3  O    0.000002  -0.000000   0.000000  -0.000000  -0.000000  -0.000000
     4  C    0.000200   0.000544  -0.000041   0.000002  -0.000018   0.000121
     5  C   -0.030486  -0.001259   0.003957  -0.000085   0.000013  -0.000058
     6  N    0.214141  -0.050485  -0.069345   0.003530  -0.000221   0.002849
     7  C    4.935894   0.408430   0.346056  -0.043511  -0.007401  -0.053213
     8  H    0.408430   0.557508  -0.055568   0.002395   0.000053   0.000779
     9  C    0.346056  -0.055568   5.191880   0.322692  -0.054865  -0.008108
    10  C   -0.043511   0.002395   0.322692   5.116548   0.333861  -0.060449
    11  C   -0.007401   0.000053  -0.054865   0.333861   5.122259   0.326784
    12  C   -0.053213   0.000779  -0.008108  -0.060449   0.326784   5.133889
    13  C    0.335022  -0.043477  -0.046609  -0.003942  -0.049287   0.359123
    14  H   -0.043444  -0.002365   0.004817  -0.000440   0.004445  -0.047395
    15  N   -0.054706   0.003545  -0.005197   0.000700  -0.001620  -0.063030
    16  C   -0.002072  -0.000068   0.000243  -0.000029   0.000000   0.002116
    17  H    0.001677   0.000111  -0.000083   0.000001   0.000000   0.000002
    18  H   -0.026940  -0.000208  -0.001510  -0.000097   0.000010  -0.000091
    19  H   -0.037332   0.004319   0.386905  -0.036497  -0.002396   0.000657
    20  H   -0.039647  -0.002982   0.395847  -0.036104   0.004225  -0.000308
    21  H    0.003562  -0.000124  -0.035553   0.402210  -0.037424   0.004416
    22  H   -0.002661   0.002664  -0.046521   0.394240  -0.044715  -0.002181
    23  H    0.000818   0.000023  -0.002798  -0.041800   0.397593  -0.040569
    24  H   -0.000132  -0.000028   0.004335  -0.038098   0.401461  -0.037045
    25  H    0.004124  -0.000145  -0.000292   0.004260  -0.034418   0.396983
    26  H   -0.001718   0.001672   0.000390  -0.003010  -0.044268   0.393883
    27  H   -0.000370   0.000008  -0.000016   0.000001   0.000001  -0.000004
              13         14         15         16         17         18
     1  O   -0.000016  -0.000012   0.000009   0.005938   0.000056   0.000000
     2  N   -0.000087  -0.000035   0.001713  -0.030406  -0.002189  -0.000037
     3  O   -0.000003  -0.000002  -0.000015   0.001846   0.008451   0.000007
     4  C   -0.015614   0.003700  -0.056107   0.321408  -0.036529   0.001275
     5  C    0.001886   0.006358  -0.007398  -0.041317   0.383666  -0.023064
     6  N   -0.042210  -0.004356   0.004462  -0.003126  -0.037902   0.327289
     7  C    0.335022  -0.043444  -0.054706  -0.002072   0.001677  -0.026940
     8  H   -0.043477  -0.002365   0.003545  -0.000068   0.000111  -0.000208
     9  C   -0.046609   0.004817  -0.005197   0.000243  -0.000083  -0.001510
    10  C   -0.003942  -0.000440   0.000700  -0.000029   0.000001  -0.000097
    11  C   -0.049287   0.004445  -0.001620   0.000000   0.000000   0.000010
    12  C    0.359123  -0.047395  -0.063030   0.002116   0.000002  -0.000091
    13  C    5.043332   0.401337   0.234990  -0.065411  -0.000151   0.003212
    14  H    0.401337   0.549391  -0.042947  -0.005962   0.000137  -0.000079
    15  N    0.234990  -0.042947   6.905605   0.585338  -0.000093  -0.000028
    16  C   -0.065411  -0.005962   0.585338   4.694662   0.001610  -0.000179
    17  H   -0.000151   0.000137  -0.000093   0.001610   0.405207  -0.001450
    18  H    0.003212  -0.000079  -0.000028  -0.000179  -0.001450   0.321273
    19  H   -0.006509   0.000049   0.005211   0.001126   0.000006   0.000101
    20  H    0.004120  -0.000075  -0.000060  -0.000022   0.000000   0.004449
    21  H   -0.000300   0.000011  -0.000013   0.000000  -0.000000  -0.000005
    22  H    0.000329  -0.000065   0.000008  -0.000000  -0.000000   0.000003
    23  H   -0.005523   0.000000   0.005115   0.000039   0.000000   0.000000
    24  H    0.004059  -0.000073  -0.000058   0.000002   0.000000  -0.000000
    25  H   -0.033367  -0.002378   0.000425   0.000048  -0.000000   0.000002
    26  H   -0.044582  -0.002301   0.003822  -0.000059  -0.000000   0.000000
    27  H    0.004488  -0.000171  -0.038417   0.402552  -0.000052   0.000007
              19         20         21         22         23         24
     1  O    0.000000   0.000000  -0.000000  -0.000000   0.000000   0.000000
     2  N    0.000000   0.000000  -0.000000   0.000000  -0.000000   0.000000
     3  O    0.000000  -0.000000   0.000000   0.000000   0.000000   0.000000
     4  C   -0.000077  -0.000009  -0.000000   0.000000   0.000010   0.000000
     5  C   -0.000329   0.000010   0.000001  -0.000002   0.000000  -0.000000
     6  N    0.001259  -0.003783  -0.000064  -0.000080  -0.000032   0.000004
     7  C   -0.037332  -0.039647   0.003562  -0.002661   0.000818  -0.000132
     8  H    0.004319  -0.002982  -0.000124   0.002664   0.000023  -0.000028
     9  C    0.386905   0.395847  -0.035553  -0.046521  -0.002798   0.004335
    10  C   -0.036497  -0.036104   0.402210   0.394240  -0.041800  -0.038098
    11  C   -0.002396   0.004225  -0.037424  -0.044715   0.397593   0.401461
    12  C    0.000657  -0.000308   0.004416  -0.002181  -0.040569  -0.037045
    13  C   -0.006509   0.004120  -0.000300   0.000329  -0.005523   0.004059
    14  H    0.000049  -0.000075   0.000011  -0.000065   0.000000  -0.000073
    15  N    0.005211  -0.000060  -0.000013   0.000008   0.005115  -0.000058
    16  C    0.001126  -0.000022   0.000000  -0.000000   0.000039   0.000002
    17  H    0.000006   0.000000  -0.000000  -0.000000   0.000000   0.000000
    18  H    0.000101   0.004449  -0.000005   0.000003   0.000000  -0.000000
    19  H    0.517908  -0.025296  -0.003016   0.004153   0.002247  -0.000057
    20  H   -0.025296   0.552627  -0.002716  -0.003018  -0.000062  -0.000087
    21  H   -0.003016  -0.002716   0.527644  -0.025007  -0.002924  -0.002023
    22  H    0.004153  -0.003018  -0.025007   0.570111   0.004233  -0.003263
    23  H    0.002247  -0.000062  -0.002924   0.004233   0.524907  -0.024357
    24  H   -0.000057  -0.000087  -0.002023  -0.003263  -0.024357   0.535133
    25  H   -0.000050   0.000010  -0.000085  -0.000100  -0.002414  -0.002265
    26  H    0.000059  -0.000041  -0.000086   0.003008   0.004277  -0.002906
    27  H    0.000019  -0.000000  -0.000000   0.000000  -0.000008  -0.000000
              25         26         27
     1  O    0.000000  -0.000000   0.003826
     2  N   -0.000000  -0.000000   0.000451
     3  O    0.000000   0.000000  -0.000021
     4  C    0.000018   0.000009  -0.065938
     5  C   -0.000001  -0.000001   0.001837
     6  N   -0.000051  -0.000038   0.000202
     7  C    0.004124  -0.001718  -0.000370
     8  H   -0.000145   0.001672   0.000008
     9  C   -0.000292   0.000390  -0.000016
    10  C    0.004260  -0.003010   0.000001
    11  C   -0.034418  -0.044268   0.000001
    12  C    0.396983   0.393883  -0.000004
    13  C   -0.033367  -0.044582   0.004488
    14  H   -0.002378  -0.002301  -0.000171
    15  N    0.000425   0.003822  -0.038417
    16  C    0.000048  -0.000059   0.402552
    17  H   -0.000000  -0.000000  -0.000052
    18  H    0.000002   0.000000   0.000007
    19  H   -0.000050   0.000059   0.000019
    20  H    0.000010  -0.000041  -0.000000
    21  H   -0.000085  -0.000086  -0.000000
    22  H   -0.000100   0.003008   0.000000
    23  H   -0.002414   0.004277  -0.000008
    24  H   -0.002265  -0.002906  -0.000000
    25  H    0.504831  -0.023338  -0.000015
    26  H   -0.023338   0.561596   0.000001
    27  H   -0.000015   0.000001   0.457256
 Mulliken charges:
               1
     1  O   -0.453705
     2  N    0.497588
     3  O   -0.476813
     4  C    0.015435
     5  C    0.177933
     6  N   -0.813414
     7  C    0.093786
     8  H    0.174653
     9  C   -0.330613
    10  C   -0.316379
    11  C   -0.314072
    12  C   -0.309152
    13  C   -0.034812
    14  H    0.181855
    15  N   -0.481255
    16  C    0.131723
    17  H    0.277522
    18  H    0.396059
    19  H    0.187540
    20  H    0.152922
    21  H    0.171497
    22  H    0.148864
    23  H    0.181224
    24  H    0.165399
    25  H    0.188219
    26  H    0.153632
    27  H    0.234362
 Sum of Mulliken charges =  -0.00000
 Mulliken charges with hydrogens summed into heavy atoms:
               1
     1  O   -0.453705
     2  N    0.497588
     3  O   -0.476813
     4  C    0.015435
     5  C    0.455455
     6  N   -0.417356
     7  C    0.268439
     9  C    0.009850
    10  C    0.003981
    11  C    0.032551
    12  C    0.032699
    13  C    0.147044
    15  N   -0.481255
    16  C    0.366085
 Electronic spatial extent (au):  <R**2>=           3183.7781
 Charge=             -0.0000 electrons
 Dipole moment (field-independent basis, Debye):
    X=              5.1338    Y=              4.1249    Z=             -0.2866  Tot=              6.5919
 Quadrupole moment (field-independent basis, Debye-Ang):
   XX=           -103.9443   YY=            -81.3024   ZZ=            -82.5783
   XY=             -2.2924   XZ=              5.1301   YZ=             -0.9077
 Traceless Quadrupole moment (field-independent basis, Debye-Ang):
   XX=            -14.6693   YY=              7.9726   ZZ=              6.6967
   XY=             -2.2924   XZ=              5.1301   YZ=             -0.9077
 Octapole moment (field-independent basis, Debye-Ang**2):
  XXX=            100.1111  YYY=             33.7888  ZZZ=            -10.2399  XYY=             -0.3238
  XXY=             10.5572  XXZ=            -22.6421  XZZ=             -5.4037  YZZ=              0.4753
  YYZ=             -7.0625  XYZ=             -4.9904
 Hexadecapole moment (field-independent basis, Debye-Ang**3):
 XXXX=          -3617.6615 YYYY=           -651.7345 ZZZZ=           -281.3263 XXXY=            -70.0081
 XXXZ=            189.3965 YYYX=            -48.9776 YYYZ=             20.6301 ZZZX=            104.8571
 ZZZY=             35.2417 XXYY=           -675.0755 XXZZ=           -564.5718 YYZZ=           -159.3503
 XXYZ=             15.1757 YYXZ=             45.3793 ZZXY=             -2.9476
 N-N= 9.141837753925D+02 E-N=-3.374359849434D+03  KE= 6.588663006587D+02
 Calling FoFJK, ICntrl=  10002127 FMM=F ISym2X=0 I1Cent= 0 IOpClX= 0 NMat=1 NMatS=1 NMatT=0.
 -------------------------------------------------------------------
 Center     Atomic                   Forces (Hartrees/Bohr)
 Number     Number              X              Y              Z
 -------------------------------------------------------------------
      1        8           0.001322028   -0.020469292   -0.004112108
      2        7           0.035736911    0.013893226   -0.005093761
      3        8          -0.005016227    0.014559733    0.002881604
      4        6          -0.002001433    0.015721389    0.013646290
      5        6          -0.012301012   -0.023383573   -0.003857715
      6        7           0.025657399   -0.010500694    0.004977232
      7        6           0.004689752   -0.004536356   -0.019695349
      8        1          -0.003389435   -0.004226543   -0.004264891
      9        6           0.000826775   -0.003663753   -0.006809418
     10        6           0.004255236    0.002594655    0.005111665
     11        6          -0.003846200   -0.005092239   -0.006430904
     12        6           0.003288613   -0.003488949   -0.002602297
     13        6          -0.012156585    0.004226040    0.020789707
     14        1           0.001334790    0.003508891   -0.009223760
     15        7           0.002029942    0.005466891   -0.006242940
     16        6          -0.011539477    0.006354619    0.008629083
     17        1           0.000767893   -0.005759471   -0.011845248
     18        1          -0.014519154    0.000322447    0.012014380
     19        1           0.000794074    0.007220276    0.009625382
     20        1          -0.003744462   -0.007405524    0.001351335
     21        1          -0.006111492    0.001980652    0.009166529
     22        1          -0.001992763   -0.003941843   -0.008183724
     23        1           0.004683202    0.004751163    0.008989732
     24        1          -0.009456056    0.002791380   -0.003257952
     25        1          -0.001872274    0.011536227   -0.001444842
     26        1          -0.005309073   -0.004364534   -0.005653063
     27        1           0.007869028    0.001905183    0.001535031
 -------------------------------------------------------------------
 Cartesian Forces:  Max     0.035736911 RMS     0.009505265

 GradGradGradGradGradGradGradGradGradGradGradGradGradGradGradGradGradGrad
 Berny optimization.
 FormGI is forming the generalized inverse of G from B-inverse, IUseBI=4.
 Internal  Forces:  Max     0.037439843 RMS     0.006538114
 Search for a local minimum.
 Step number   1 out of a maximum of  100
 All quantities printed in internal units (Hartrees-Bohrs-Radians)
 Mixed Optimization -- RFO/linear search
 Second derivative matrix not updated -- first step.
 ITU=  0
     Eigenvalues ---    0.00230   0.00770   0.01046   0.01156   0.01231
     Eigenvalues ---    0.01491   0.01543   0.01964   0.02075   0.02139
     Eigenvalues ---    0.02223   0.02662   0.03662   0.04661   0.04763
     Eigenvalues ---    0.04838   0.04994   0.05167   0.05293   0.05693
     Eigenvalues ---    0.06543   0.07077   0.07915   0.08000   0.08024
     Eigenvalues ---    0.08290   0.08326   0.08713   0.10577   0.11879
     Eigenvalues ---    0.12561   0.14238   0.15430   0.15995   0.16000
     Eigenvalues ---    0.16039   0.19794   0.20413   0.23042   0.24993
     Eigenvalues ---    0.25000   0.25000   0.25415   0.26145   0.26833
     Eigenvalues ---    0.28315   0.28430   0.28593   0.30339   0.31189
     Eigenvalues ---    0.31630   0.32122   0.32130   0.32183   0.32247
     Eigenvalues ---    0.32355   0.32356   0.32377   0.32416   0.32446
     Eigenvalues ---    0.32811   0.33384   0.33621   0.34351   0.43933
     Eigenvalues ---    0.44437   0.48832   0.64900   0.90542   0.91294
     Eigenvalues --- 1000.000001000.000001000.000001000.000001000.00000
     Eigenvalues --- 1000.000001000.000001000.000001000.000001000.00000
     Eigenvalues --- 1000.000001000.000001000.000001000.000001000.00000
     Eigenvalues --- 1000.000001000.000001000.000001000.000001000.00000
     Eigenvalues --- 1000.000001000.000001000.000001000.000001000.00000
     Eigenvalues --- 1000.000001000.000001000.000001000.000001000.00000
     Eigenvalues --- 1000.000001000.000001000.000001000.000001000.00000
     Eigenvalues --- 1000.000001000.000001000.000001000.000001000.00000
     Eigenvalues --- 1000.000001000.000001000.000001000.000001000.00000
     Eigenvalues --- 1000.000001000.000001000.000001000.000001000.00000
     Eigenvalues --- 1000.000001000.000001000.000001000.000001000.00000
     Eigenvalues --- 1000.000001000.000001000.000001000.000001000.00000
     Eigenvalues --- 1000.000001000.000001000.000001000.000001000.00000
     Eigenvalues --- 1000.000001000.000001000.000001000.000001000.00000
     Eigenvalues --- 1000.000001000.000001000.000001000.000001000.00000
     Eigenvalues --- 1000.000001000.000001000.000001000.000001000.00000
     Eigenvalues --- 1000.000001000.000001000.000001000.000001000.00000
     Eigenvalues --- 1000.000001000.000001000.000001000.000001000.00000
     Eigenvalues --- 1000.00000
 RFO step:  Lambda=-2.26732400D-02 EMin= 2.30131493D-03
 Linear search not attempted -- first point.
 Iteration  1 RMS(Cart)=  0.04567504 RMS(Int)=  0.00115804
 Iteration  2 RMS(Cart)=  0.00128874 RMS(Int)=  0.00028008
 Iteration  3 RMS(Cart)=  0.00000100 RMS(Int)=  0.00028008
 Iteration  4 RMS(Cart)=  0.00000000 RMS(Int)=  0.00028008
 Iteration  1 RMS(Cart)=  0.00002653 RMS(Int)=  0.00001576
 Iteration  2 RMS(Cart)=  0.00001501 RMS(Int)=  0.00001749
 Iteration  3 RMS(Cart)=  0.00000869 RMS(Int)=  0.00001976
 Iteration  4 RMS(Cart)=  0.00000516 RMS(Int)=  0.00002141
 Iteration  5 RMS(Cart)=  0.00000319 RMS(Int)=  0.00002251
 Iteration  6 RMS(Cart)=  0.00000210 RMS(Int)=  0.00002325
 Iteration  7 RMS(Cart)=  0.00000149 RMS(Int)=  0.00002376
 Iteration  8 RMS(Cart)=  0.00000115 RMS(Int)=  0.00002413
 Iteration  9 RMS(Cart)=  0.00000094 RMS(Int)=  0.00002441
 Variable       Old X    -DE/DX   Delta X   Delta X   Delta X     New X
                                 (Linear)    (Quad)   (Total)
    R1        2.32342   0.01931   0.00000   0.02064   0.02064   2.34406
    R2        2.32684   0.01479   0.00000   0.01593   0.01593   2.34278
    R3        2.87293  -0.03356   0.00000  -0.10292  -0.10292   2.77001
    R4        2.63803  -0.03744   0.00000  -0.08173  -0.08158   2.55645
    R5        2.81088  -0.01682   0.00000  -0.05432  -0.05408   2.75680
    R6        2.58211  -0.00563   0.00000  -0.00983  -0.00991   2.57221
    R7        2.08383  -0.00877   0.00000  -0.02460  -0.02460   2.05923
    R8        2.81801  -0.01751   0.00000  -0.04490  -0.04495   2.77305
    R9        1.93235  -0.00803   0.00000  -0.01737  -0.01737   1.91497
   R10        2.10510  -0.00668   0.00000  -0.01940  -0.01940   2.08570
   R11        2.92769  -0.01079   0.00000  -0.03702  -0.03706   2.89064
   R12        2.92626  -0.01306   0.00000  -0.03424  -0.03434   2.89192
   R13        2.90696  -0.00625   0.00000  -0.01794  -0.01798   2.88898
   R14        2.10606  -0.01138   0.00000  -0.03307  -0.03307   2.07299
   R15        2.10036  -0.00794   0.00000  -0.02286  -0.02286   2.07750
   R16        2.89686  -0.00228   0.00000  -0.00926  -0.00924   2.88762
   R17        2.10197  -0.01085   0.00000  -0.03133  -0.03133   2.07064
   R18        2.10395  -0.00897   0.00000  -0.02598  -0.02598   2.07797
   R19        2.90330  -0.00601   0.00000  -0.01837  -0.01833   2.88497
   R20        2.10621  -0.01108   0.00000  -0.03221  -0.03221   2.07400
   R21        2.10089  -0.01032   0.00000  -0.02976  -0.02976   2.07112
   R22        2.92765  -0.01201   0.00000  -0.04251  -0.04247   2.88518
   R23        2.10199  -0.01129   0.00000  -0.03261  -0.03261   2.06939
   R24        2.10159  -0.00853   0.00000  -0.02463  -0.02463   2.07696
   R25        2.11526  -0.00874   0.00000  -0.02577  -0.02577   2.08949
   R26        2.78531  -0.01020   0.00000  -0.02249  -0.02271   2.76260
   R27        2.45163  -0.01304   0.00000  -0.02004  -0.01999   2.43164
   R28        2.07974  -0.00614   0.00000  -0.01710  -0.01710   2.06264
    A1        2.16535   0.01011   0.00000   0.03707   0.03703   2.20238
    A2        2.05112  -0.00819   0.00000  -0.03007  -0.03011   2.02101
    A3        2.06670  -0.00193   0.00000  -0.00709  -0.00713   2.05957
    A4        2.05222  -0.00190   0.00000  -0.00392  -0.00416   2.04806
    A5        2.05152  -0.00399   0.00000  -0.01156  -0.01180   2.03972
    A6        2.17921   0.00585   0.00000   0.01456   0.01413   2.19334
    A7        2.12274   0.00133   0.00000   0.01094   0.01039   2.13313
    A8        2.09404  -0.00330   0.00000  -0.01990  -0.01989   2.07415
    A9        2.06640   0.00196   0.00000   0.00887   0.00889   2.07530
   A10        2.21191   0.00024   0.00000   0.01460   0.01404   2.22595
   A11        2.14835  -0.01300   0.00000  -0.08374  -0.08359   2.06476
   A12        1.90891   0.01260   0.00000   0.06134   0.06079   1.96971
   A13        1.89867   0.00091   0.00000   0.00603   0.00597   1.90465
   A14        1.87518   0.00140   0.00000  -0.00774  -0.00767   1.86751
   A15        2.00158  -0.00543   0.00000  -0.01128  -0.01143   1.99015
   A16        1.88841   0.00081   0.00000   0.01940   0.01947   1.90788
   A17        1.88174  -0.00227   0.00000  -0.01372  -0.01401   1.86773
   A18        1.91553   0.00487   0.00000   0.00944   0.00962   1.92515
   A19        1.97261  -0.00172   0.00000   0.00050   0.00042   1.97304
   A20        1.89572  -0.00153   0.00000  -0.01967  -0.01970   1.87603
   A21        1.92487  -0.00084   0.00000  -0.01103  -0.01108   1.91379
   A22        1.88545   0.00239   0.00000   0.02224   0.02227   1.90772
   A23        1.89732   0.00273   0.00000   0.01808   0.01809   1.91541
   A24        1.88560  -0.00097   0.00000  -0.01012  -0.01063   1.87497
   A25        1.94147  -0.00273   0.00000  -0.00762  -0.00765   1.93382
   A26        1.92000  -0.00097   0.00000  -0.00643  -0.00638   1.91363
   A27        1.90214   0.00198   0.00000   0.00631   0.00633   1.90847
   A28        1.91610   0.00219   0.00000   0.01489   0.01488   1.93098
   A29        1.89909   0.00122   0.00000   0.00812   0.00813   1.90722
   A30        1.88394  -0.00165   0.00000  -0.01544  -0.01549   1.86846
   A31        1.93273  -0.00095   0.00000  -0.00223  -0.00235   1.93038
   A32        1.90167   0.00147   0.00000   0.00610   0.00617   1.90784
   A33        1.92559   0.00004   0.00000   0.00511   0.00512   1.93071
   A34        1.89427   0.00085   0.00000   0.00007   0.00010   1.89437
   A35        1.92475  -0.00050   0.00000  -0.00019  -0.00015   1.92460
   A36        1.88372  -0.00087   0.00000  -0.00903  -0.00906   1.87466
   A37        1.97483   0.00040   0.00000   0.00444   0.00450   1.97933
   A38        1.91245   0.00287   0.00000   0.02061   0.02067   1.93312
   A39        1.89303   0.00053   0.00000   0.01200   0.01195   1.90498
   A40        1.90833  -0.00301   0.00000  -0.01976  -0.01990   1.88843
   A41        1.89498  -0.00057   0.00000  -0.01342  -0.01348   1.88151
   A42        1.87765  -0.00024   0.00000  -0.00437  -0.00479   1.87287
   A43        1.91081  -0.00021   0.00000   0.00475   0.00462   1.91543
   A44        1.88007  -0.00047   0.00000  -0.01905  -0.01920   1.86087
   A45        2.02389   0.00190   0.00000   0.01246   0.01266   2.03655
   A46        1.83319   0.00276   0.00000   0.03395   0.03410   1.86729
   A47        1.94181  -0.00491   0.00000  -0.02456  -0.02452   1.91729
   A48        1.86260   0.00128   0.00000  -0.00514  -0.00503   1.85757
   A49        2.08400  -0.00620   0.00000  -0.00668  -0.00705   2.07695
   A50        2.22168  -0.00070   0.00000  -0.00824  -0.00807   2.21360
   A51        1.98634   0.00592   0.00000   0.03463   0.03450   2.02084
   A52        2.07491  -0.00520   0.00000  -0.02606  -0.02620   2.04871
    D1       -3.01964  -0.00255   0.00000  -0.04303  -0.04281  -3.06245
    D2        0.14417  -0.00097   0.00000   0.00000  -0.00000   0.14417
    D3        0.12795  -0.00094   0.00000  -0.02764  -0.02753   0.10041
    D4       -2.99143   0.00063   0.00000   0.01538   0.01528  -2.97616
    D5       -3.11802  -0.00122   0.00000  -0.01959  -0.01955  -3.13757
    D6        0.02056  -0.00328   0.00000  -0.05454  -0.05445  -0.03389
    D7       -0.00043  -0.00307   0.00000  -0.06647  -0.06695  -0.06739
    D8        3.13815  -0.00513   0.00000  -0.10143  -0.10186   3.03629
    D9       -2.52948  -0.00060   0.00000  -0.01702  -0.01725  -2.54673
   D10        0.58729   0.00040   0.00000  -0.00097  -0.00089   0.58640
   D11        0.63611   0.00122   0.00000   0.02975   0.02986   0.66597
   D12       -2.53031   0.00222   0.00000   0.04581   0.04622  -2.48409
   D13       -0.87345   0.00248   0.00000   0.06011   0.06048  -0.81298
   D14        2.46667   0.00235   0.00000   0.10887   0.10714   2.57381
   D15        2.27111   0.00453   0.00000   0.09458   0.09545   2.36656
   D16       -0.67196   0.00439   0.00000   0.14333   0.14212  -0.52984
   D17       -1.70122   0.00096   0.00000  -0.00773  -0.00723  -1.70845
   D18        2.54146  -0.00123   0.00000  -0.02960  -0.02919   2.51227
   D19        0.40709  -0.00492   0.00000  -0.02851  -0.02841   0.37868
   D20        1.26431  -0.00121   0.00000  -0.06439  -0.06524   1.19907
   D21       -0.77619  -0.00340   0.00000  -0.08626  -0.08720  -0.86339
   D22       -2.91057  -0.00710   0.00000  -0.08517  -0.08642  -2.99699
   D23        3.11260   0.00253   0.00000   0.01618   0.01619   3.12879
   D24       -1.07851   0.00340   0.00000   0.03101   0.03093  -1.04758
   D25        0.98481   0.00082   0.00000   0.00051   0.00064   0.98545
   D26        1.06539   0.00030   0.00000   0.00305   0.00304   1.06844
   D27       -3.12572   0.00117   0.00000   0.01789   0.01778  -3.10794
   D28       -1.06240  -0.00142   0.00000  -0.01261  -0.01250  -1.07490
   D29       -0.98368  -0.00016   0.00000   0.00310   0.00306  -0.98062
   D30        1.10839   0.00071   0.00000   0.01793   0.01780   1.12619
   D31       -3.11147  -0.00187   0.00000  -0.01257  -0.01249  -3.12396
   D32        3.08694   0.00059   0.00000  -0.01955  -0.01950   3.06744
   D33       -1.21188   0.00348   0.00000   0.01269   0.01264  -1.19924
   D34        0.87269   0.00599   0.00000   0.00000  -0.00001   0.87268
   D35       -1.07864  -0.00347   0.00000  -0.02928  -0.02927  -1.10791
   D36        0.90572  -0.00058   0.00000   0.00295   0.00288   0.90860
   D37        2.99029   0.00193   0.00000  -0.00973  -0.00977   2.98052
   D38        0.97458  -0.00112   0.00000  -0.00873  -0.00878   0.96581
   D39        2.95895   0.00177   0.00000   0.02350   0.02337   2.98231
   D40       -1.23967   0.00428   0.00000   0.01082   0.01072  -1.22895
   D41        0.95662   0.00010   0.00000   0.00000  -0.00001   0.95660
   D42        3.08364   0.00038   0.00000   0.00933   0.00933   3.09297
   D43       -1.13722  -0.00100   0.00000  -0.00942  -0.00941  -1.14664
   D44       -1.14134   0.00146   0.00000   0.00918   0.00925  -1.13209
   D45        0.98568   0.00175   0.00000   0.01851   0.01859   1.00427
   D46        3.04801   0.00036   0.00000  -0.00023  -0.00015   3.04785
   D47        3.09980  -0.00016   0.00000  -0.00069  -0.00076   3.09904
   D48       -1.05636   0.00013   0.00000   0.00864   0.00858  -1.04778
   D49        1.00596  -0.00126   0.00000  -0.01011  -0.01016   0.99580
   D50       -0.92189  -0.00236   0.00000   0.00000  -0.00001  -0.92190
   D51        1.16035  -0.00097   0.00000   0.00256   0.00256   1.16290
   D52       -3.05779  -0.00111   0.00000  -0.00173  -0.00172  -3.05950
   D53       -3.05118  -0.00082   0.00000   0.00304   0.00306  -3.04812
   D54       -0.96894   0.00057   0.00000   0.00560   0.00562  -0.96332
   D55        1.09611   0.00043   0.00000   0.00131   0.00135   1.09746
   D56        1.17376  -0.00080   0.00000   0.00835   0.00833   1.18209
   D57       -3.02719   0.00059   0.00000   0.01092   0.01089  -3.01630
   D58       -0.96214   0.00045   0.00000   0.00662   0.00662  -0.95552
   D59        0.96752   0.00184   0.00000  -0.00183  -0.00179   0.96574
   D60        3.10198   0.00033   0.00000  -0.00917  -0.00915   3.09283
   D61       -1.13611   0.00195   0.00000   0.00395   0.00403  -1.13208
   D62       -1.11916   0.00008   0.00000  -0.00802  -0.00800  -1.12716
   D63        1.01530  -0.00143   0.00000  -0.01536  -0.01536   0.99994
   D64        3.06039   0.00018   0.00000  -0.00224  -0.00219   3.05821
   D65        3.10391   0.00091   0.00000   0.00300   0.00300   3.10691
   D66       -1.04481  -0.00060   0.00000  -0.00434  -0.00437  -1.04918
   D67        1.00028   0.00101   0.00000   0.00877   0.00881   1.00909
   D68       -0.99667   0.00186   0.00000   0.01037   0.01040  -0.98627
   D69       -3.01118   0.00106   0.00000   0.01260   0.01248  -2.99870
   D70        1.26323   0.00038   0.00000   0.01154   0.01177   1.27501
   D71       -3.13343   0.00010   0.00000  -0.00478  -0.00467  -3.13810
   D72        1.13524  -0.00070   0.00000  -0.00256  -0.00259   1.13265
   D73       -0.87353  -0.00138   0.00000  -0.00361  -0.00330  -0.87683
   D74        1.10585   0.00238   0.00000   0.01906   0.01897   1.12482
   D75       -0.90866   0.00159   0.00000   0.02129   0.02106  -0.88761
   D76       -2.91743   0.00091   0.00000   0.02023   0.02034  -2.89709
   D77       -1.17216  -0.00471   0.00000   0.00000  -0.00001  -1.17217
   D78        2.91237  -0.00166   0.00000   0.00472   0.00482   2.91719
   D79        0.92189  -0.00318   0.00000  -0.02028  -0.02036   0.90153
   D80        0.13176   0.00123   0.00000  -0.00306  -0.00277   0.12899
   D81       -2.98390   0.00004   0.00000  -0.02061  -0.02013  -3.00402
         Item               Value     Threshold  Converged?
 Maximum Force            0.038083     0.000450     NO 
 RMS     Force            0.006558     0.000300     NO 
 Maximum Displacement     0.228851     0.001800     NO 
 RMS     Displacement     0.046143     0.001200     NO 
 Predicted change in Energy=-1.316015D-02
 GradGradGradGradGradGradGradGradGradGradGradGradGradGradGradGradGradGrad

                          Input orientation:                          
 ---------------------------------------------------------------------
 Center     Atomic      Atomic             Coordinates (Angstroms)
 Number     Number       Type             X           Y           Z
 ---------------------------------------------------------------------
      1          8           0       -3.507907   -1.493345    0.324568
      2          7           0       -3.182220   -0.297018    0.361686
      3          8           0       -3.927069    0.656311    0.632474
      4          6           0       -1.786276   -0.005155    0.022861
      5          6           0       -1.372365    1.277047    0.144254
      6          7           0       -0.099156    1.659405   -0.148119
      7          6           0        1.147945    1.006605    0.266563
      8          1           0        1.551727    1.527412    1.151936
      9          6           0        2.133252    1.145577   -0.895209
     10          6           0        3.497684    0.522109   -0.600608
     11          6           0        3.347541   -0.940724   -0.185220
     12          6           0        2.348401   -1.073743    0.961388
     13          6           0        0.983016   -0.465786    0.649709
     14          1           0        0.399028   -0.484803    1.588426
     15          7           0        0.266551   -1.315109   -0.300286
     16          6           0       -0.988743   -1.110974   -0.496086
     17          1           0       -2.092030    2.034681    0.453299
     18          1           0        0.049110    2.588817   -0.523764
     19          1           0        1.688089    0.649023   -1.766199
     20          1           0        2.257448    2.207865   -1.149608
     21          1           0        4.140647    0.608782   -1.483627
     22          1           0        3.986344    1.081401    0.210289
     23          1           0        2.979156   -1.524360   -1.038567
     24          1           0        4.317168   -1.360940    0.105362
     25          1           0        2.201567   -2.125610    1.228218
     26          1           0        2.748472   -0.563993    1.849121
     27          1           0       -1.526381   -1.838485   -1.106862
 ---------------------------------------------------------------------
                    Distance matrix (angstroms):
                    1          2          3          4          5
     1  O    0.000000
     2  N    1.240422   0.000000
     3  O    2.211679   1.239744   0.000000
     4  C    2.295593   1.465825   2.322102   0.000000
     5  C    3.502588   2.408430   2.673983   1.352813   0.000000
     6  N    4.667210   3.686838   4.033416   2.376209   1.361154
     7  C    5.284892   4.523142   5.100232   3.113311   2.537727
     8  H    5.950581   5.134520   5.571882   3.842635   3.102969
     9  C    6.346215   5.649346   6.269026   4.186853   3.658841
    10  C    7.348218   6.798389   7.527646   5.346677   4.984187
    11  C    6.896553   6.584165   7.492602   5.222515   5.225377
    12  C    5.905756   5.617001   6.517882   4.372444   4.476384
    13  C    4.618440   4.178592   5.036699   2.876474   2.973343
    14  H    4.228314   3.790184   4.575053   2.730680   2.885755
    15  N    3.829980   3.656328   4.726837   2.456523   3.098860
    16  C    2.676915   2.491914   3.609807   1.458835   2.501968
    17  H    3.803714   2.575602   2.302037   2.107058   1.089695
    18  H    5.480519   4.421941   4.569624   3.224304   2.046358
    19  H    5.996618   5.398407   6.106037   3.962310   3.662052
    20  H    7.007958   6.176442   6.620528   4.756454   3.964346
    21  H    8.135655   7.605921   8.340754   6.146124   5.787043
    22  H    7.925034   7.301456   7.936060   5.876978   5.362685
    23  H    6.628808   6.436585   7.432607   5.113117   5.308736
    24  H    7.829265   7.578815   8.503799   6.252758   6.271464
    25  H    5.815019   5.751503   6.756788   4.674624   5.052330
    26  H    6.506170   6.120200   6.894362   4.920515   4.824655
    27  H    2.468716   2.697138   3.874609   2.169082   3.360886
                    6          7          8          9         10
     6  N    0.000000
     7  C    1.467436   0.000000
     8  H    2.105464   1.103705   0.000000
     9  C    2.409524   1.529658   2.162122   0.000000
    10  C    3.799400   2.551077   2.805136   1.528782   0.000000
    11  C    4.317611   2.972275   3.332360   2.516194   1.528061
    12  C    3.832967   2.500345   2.727087   2.901486   2.511459
    13  C    2.514769   1.530340   2.132722   2.511236   2.977043
    14  H    2.803820   2.128967   2.359714   3.440075   3.925227
    15  N    3.000772   2.547260   3.441011   3.145390   3.729046
    16  C    2.930434   3.103419   4.016347   3.872747   4.775553
    17  H    2.115203   3.404299   3.744647   4.523493   5.885873
    18  H    1.013360   2.082175   2.488456   2.562141   4.021175
    19  H    2.614058   2.133481   3.050520   1.096978   2.156234
    20  H    2.618658   2.163229   2.501632   1.099364   2.163645
    21  H    4.567638   3.489655   3.806912   2.159634   1.095736
    22  H    4.141721   2.839941   2.648203   2.158748   1.099613
    23  H    4.517218   3.385629   4.018603   2.804401   2.156088
    24  H    5.356365   3.959195   4.133468   3.471779   2.171594
    25  H    4.638315   3.441754   3.711157   3.900547   3.469141
    26  H    4.128130   2.744623   2.508434   3.291272   2.782465
    27  H    3.897614   4.139186   5.089812   4.726768   5.574041
                   11         12         13         14         15
    11  C    0.000000
    12  C    1.526658   0.000000
    13  C    2.552185   1.526771   0.000000
    14  H    3.470938   2.130746   1.105709   0.000000
    15  N    3.105785   2.446257   1.461904   2.067412   0.000000
    16  C    4.350744   3.641722   2.370010   2.581315   1.286768
    17  H    6.232950   5.444068   3.968227   3.720441   4.165560
    18  H    4.842718   4.572391   3.402914   3.745789   3.916359
    19  H    2.789367   3.292972   2.752551   3.768388   2.833282
    20  H    3.468712   3.903015   3.465564   4.266265   4.134775
    21  H    2.171600   3.467151   3.959350   4.963179   4.484447
    22  H    2.157194   2.809208   3.406883   4.149830   4.454301
    23  H    1.097515   2.144931   2.820537   3.826073   2.819055
    24  H    1.095991   2.165943   3.494879   4.280060   4.071135
    25  H    2.171408   1.095072   2.138821   2.463969   2.595674
    26  H    2.153916   1.099078   2.136602   2.365189   3.368094
    27  H    5.040884   4.458298   3.356623   3.578301   2.034477
                   16         17         18         19         20
    16  C    0.000000
    17  H    3.466081   0.000000
    18  H    3.842702   2.417892   0.000000
    19  H    3.446187   4.597338   2.827136   0.000000
    20  H    4.688234   4.638671   2.326706   1.770408   0.000000
    21  H    5.499403   6.680654   4.645703   2.469110   2.493005
    22  H    5.482422   6.157469   4.279363   3.061932   2.471300
    23  H    4.026089   6.372548   5.076260   2.630569   3.802985
    24  H    5.345737   7.261482   5.849162   3.801940   4.307408
    25  H    3.765738   6.028557   5.470680   4.114460   4.943297
    26  H    4.445892   5.668500   4.780937   3.958076   4.112989
    27  H    1.091502   4.213724   4.735312   4.117674   5.540049
                   21         22         23         24         25
    21  H    0.000000
    22  H    1.765370   0.000000
    23  H    2.469298   3.060074   0.000000
    24  H    2.536897   2.466877   1.767924   0.000000
    25  H    4.311732   3.808743   2.470721   2.514218   0.000000
    26  H    3.797468   2.631619   3.051928   2.477222   1.767279
    27  H    6.184357   6.375794   4.516991   5.987036   4.408247
                   26         27
    26  H    0.000000
    27  H    5.351312   0.000000
 Symmetry turned off by external request.
 Stoichiometry    C9H13N3O2
 Framework group  C1[X(C9H13N3O2)]
 Deg. of freedom    75
 Full point group                 C1      NOp   1
 Rotational constants (GHZ):           1.7583136           0.4081298           0.3566098
 Standard basis: 6-31G(d) (6D, 7F)
   236 basis functions,   444 primitive gaussians,   236 cartesian basis functions
    52 alpha electrons       52 beta electrons
       nuclear repulsion energy       926.7016864384 Hartrees.
 NAtoms=   27 NActive=   27 NUniq=   27 SFac= 1.00D+00 NAtFMM=   60 NAOKFM=F Big=F
 Integral buffers will be    131072 words long.
 Raffenetti 1 integral format.
 Two-electron integral symmetry is turned off.
 One-electron integrals computed using PRISM.
 NBasis=   236 RedAO= T EigKep=  1.13D-03  NBF=   236
 NBsUse=   236 1.00D-06 EigRej= -1.00D+00 NBFU=   236
 Initial guess from the checkpoint file:  "/home/alexey/tmp/Gau-1185240.chk"
 B after Tr=     0.041313    0.001510    0.001247
         Rot=    1.000000    0.000890    0.000096    0.000373 Ang=   0.11 deg.
 ExpMin= 1.61D-01 ExpMax= 5.48D+03 ExpMxC= 8.25D+02 IAcc=3 IRadAn=         5 AccDes= 0.00D+00
 Harris functional with IExCor=  205 and IRadAn=       5 diagonalized for initial guess.
 HarFok:  IExCor=  205 AccDes= 0.00D+00 IRadAn=         5 IDoV= 1 UseB2=F ITyADJ=14
 ICtDFT=  3500011 ScaDFX=  1.000000  1.000000  1.000000  1.000000
 FoFCou: FMM=F IPFlag=           0 FMFlag=      100000 FMFlg1=           0
         NFxFlg=           0 DoJE=T BraDBF=F KetDBF=T FulRan=T
         wScrn=  0.000000 ICntrl=       500 IOpCl=  0 I1Cent=   200000004 NGrid=           0
         NMat0=    1 NMatS0=      1 NMatT0=    0 NMatD0=    1 NMtDS0=    0 NMtDT0=    0
 Symmetry not used in FoFCou.
 Keep R1 ints in memory in canonical form, NReq=397720213.
 Requested convergence on RMS density matrix=1.00D-08 within 128 cycles.
 Requested convergence on MAX density matrix=1.00D-06.
 Requested convergence on             energy=1.00D-06.
 No special actions if energy rises.
 SCF Done:  E(RHF) =  -661.286757427     A.U. after   15 cycles
            NFock= 15  Conv=0.46D-08     -V/T= 2.0025
 ExpMin= 1.61D-01 ExpMax= 5.48D+03 ExpMxC= 8.25D+02 IAcc=3 IRadAn=         5 AccDes= 0.00D+00
 HarFok:  IExCor=  205 AccDes= 0.00D+00 IRadAn=         5 IDoV=-2 UseB2=F ITyADJ=14
 ICtDFT= 12500011 ScaDFX=  1.000000  1.000000  1.000000  1.000000
 Range of M.O.s used for correlation:    15   236
 NBasis=   236 NAE=    52 NBE=    52 NFC=    14 NFV=     0
 NROrb=    222 NOA=    38 NOB=    38 NVA=   184 NVB=   184
 Fully direct method using O(ONN) memory.
 JobTyp=1 Pass  1:  I=  15 to  52 NPSUse=  4 ParTrn=T ParDer=T DoDerP=T.
 Spin components of T(2) and E(2):
     alpha-alpha T2 =       0.9090476103D-01 E2=     -0.2715559541D+00
     alpha-beta  T2 =       0.4922682408D+00 E2=     -0.1488047522D+01
     beta-beta   T2 =       0.9090476103D-01 E2=     -0.2715559541D+00
 ANorm=    0.1293861570D+01
 E2 =    -0.2031159430D+01 EUMP2 =    -0.66331791685707D+03
          IDoAtm=111111111111111111111111111
          Differentiating once with respect to electric field.
                with respect to dipole field.
          Differentiating once with respect to nuclear coordinates.
 Keep R1 ints in memory in canonical form, NReq=397723379.
          There are     1 degrees of freedom in the 1st order CPHF.  IDoFFX=0 NUNeed=     1.
 LinEq1:  Iter=  0 NonCon=     1 RMS=4.51D-03 Max=1.07D-01 NDo=     1
 AX will form     1 AO Fock derivatives at one time.
 LinEq1:  Iter=  1 NonCon=     1 RMS=1.50D-03 Max=2.43D-02 NDo=     1
 LinEq1:  Iter=  2 NonCon=     1 RMS=6.38D-04 Max=1.73D-02 NDo=     1
 LinEq1:  Iter=  3 NonCon=     1 RMS=2.85D-04 Max=8.04D-03 NDo=     1
 LinEq1:  Iter=  4 NonCon=     1 RMS=8.72D-05 Max=1.73D-03 NDo=     1
 LinEq1:  Iter=  5 NonCon=     1 RMS=3.71D-05 Max=1.96D-03 NDo=     1
 LinEq1:  Iter=  6 NonCon=     1 RMS=1.45D-05 Max=5.30D-04 NDo=     1
 LinEq1:  Iter=  7 NonCon=     1 RMS=5.79D-06 Max=1.15D-04 NDo=     1
 LinEq1:  Iter=  8 NonCon=     1 RMS=2.37D-06 Max=7.21D-05 NDo=     1
 LinEq1:  Iter=  9 NonCon=     1 RMS=9.39D-07 Max=2.93D-05 NDo=     1
[...]
                   16         17         18         19         20
    16  C    0.000000
    17  H    3.430127   0.000000
    18  H    3.998528   2.217368   0.000000
    19  H    3.460494   4.399787   3.109946   0.000000
    20  H    4.721141   4.522483   2.531744   1.762942   0.000000
    21  H    5.513752   6.587265   4.837090   2.477197   2.494121
    22  H    5.509915   6.196438   4.327567   3.064648   2.479827
    23  H    4.019906   6.306854   5.252027   2.640434   3.807211
    24  H    5.342680   7.283626   5.933809   3.806734   4.311946
    25  H    3.746438   6.126352   5.466703   4.106068   4.941916
    26  H    4.469039   5.852204   4.722333   3.968906   4.134583
    27  H    1.090374   4.161933   4.953744   4.138223   5.578030
                   21         22         23         24         25
    21  H    0.000000
    22  H    1.759503   0.000000
    23  H    2.473469   3.060885   0.000000
    24  H    2.540371   2.466567   1.764657   0.000000
    25  H    4.312259   3.814115   2.464765   2.515985   0.000000
    26  H    3.806701   2.647392   3.053411   2.471552   1.764504
    27  H    6.184605   6.386356   4.482905   5.950690   4.352893
                   26         27
    26  H    0.000000
    27  H    5.345775   0.000000
 Symmetry turned off by external request.
 Stoichiometry    C9H13N3O2
 Framework group  C1[X(C9H13N3O2)]
 Deg. of freedom    75
 Full point group                 C1      NOp   1
 Rotational constants (GHZ):           1.7653389           0.4011454           0.3509046

 **********************************************************************

            Population analysis using the SCF Density.

 **********************************************************************

 Alpha  occ. eigenvalues --  -20.59378 -20.59055 -15.84820 -15.63794 -15.56255
 Alpha  occ. eigenvalues --  -11.35087 -11.30016 -11.29630 -11.28605 -11.27426
 Alpha  occ. eigenvalues --  -11.23866 -11.23265 -11.22879 -11.22420  -1.57229
 Alpha  occ. eigenvalues --   -1.36852  -1.30639  -1.22967  -1.14929  -1.10108
 Alpha  occ. eigenvalues --   -1.02992  -1.01734  -0.94259  -0.89878  -0.85732
 Alpha  occ. eigenvalues --   -0.82524  -0.78145  -0.77659  -0.75251  -0.71704
 Alpha  occ. eigenvalues --   -0.69882  -0.69526  -0.67337  -0.65299  -0.63998
 Alpha  occ. eigenvalues --   -0.62855  -0.60600  -0.57994  -0.56526  -0.55437
 Alpha  occ. eigenvalues --   -0.54255  -0.51417  -0.49927  -0.48692  -0.48108
 Alpha  occ. eigenvalues --   -0.47553  -0.46472  -0.46281  -0.43758  -0.41605
 Alpha  occ. eigenvalues --   -0.39771  -0.33992
 Alpha virt. eigenvalues --    0.07074   0.11912   0.17558   0.21206   0.23691
 Alpha virt. eigenvalues --    0.24768   0.26982   0.28582   0.28968   0.29893
 Alpha virt. eigenvalues --    0.30753   0.31108   0.31959   0.32808   0.33385
 Alpha virt. eigenvalues --    0.33674   0.35872   0.37239   0.39382   0.39631
 Alpha virt. eigenvalues --    0.40915   0.42817   0.44616   0.46105   0.46645
 Alpha virt. eigenvalues --    0.47136   0.48546   0.53777   0.56879   0.59245
 Alpha virt. eigenvalues --    0.63881   0.68071   0.70859   0.72460   0.73325
 Alpha virt. eigenvalues --    0.74911   0.76005   0.76810   0.77294   0.79757
 Alpha virt. eigenvalues --    0.80028   0.84279   0.85080   0.87154   0.88379
 Alpha virt. eigenvalues --    0.89470   0.91786   0.92504   0.93716   0.94858
 Alpha virt. eigenvalues --    0.95653   0.98478   0.99469   0.99929   1.02044
 Alpha virt. eigenvalues --    1.02853   1.04495   1.06621   1.07018   1.08949
 Alpha virt. eigenvalues --    1.09936   1.10353   1.11691   1.12259   1.13506
 Alpha virt. eigenvalues --    1.14637   1.14726   1.15603   1.16833   1.18423
 Alpha virt. eigenvalues --    1.19319   1.20250   1.21310   1.22878   1.23636
 Alpha virt. eigenvalues --    1.24736   1.25405   1.26960   1.27636   1.28769
 Alpha virt. eigenvalues --    1.30152   1.31643   1.36068   1.37730   1.40287
 Alpha virt. eigenvalues --    1.41573   1.42229   1.46574   1.48507   1.53429
 Alpha virt. eigenvalues --    1.56225   1.58994   1.61472   1.63413   1.64980
 Alpha virt. eigenvalues --    1.68006   1.68957   1.72824   1.74449   1.75279
 Alpha virt. eigenvalues --    1.81461   1.85105   1.87496   1.88435   1.92527
 Alpha virt. eigenvalues --    1.94842   1.98684   1.99754   2.00912   2.02358
 Alpha virt. eigenvalues --    2.02966   2.05337   2.08144   2.09551   2.11926
 Alpha virt. eigenvalues --    2.13138   2.15906   2.17250   2.19643   2.20931
 Alpha virt. eigenvalues --    2.21974   2.23895   2.26460   2.27008   2.28817
 Alpha virt. eigenvalues --    2.32113   2.32854   2.35254   2.35597   2.36814
 Alpha virt. eigenvalues --    2.38578   2.42573   2.43573   2.44564   2.46664
 Alpha virt. eigenvalues --    2.50999   2.52792   2.54069   2.56097   2.59483
 Alpha virt. eigenvalues --    2.63219   2.65059   2.69697   2.70499   2.71660
 Alpha virt. eigenvalues --    2.72568   2.74333   2.76987   2.78607   2.82680
 Alpha virt. eigenvalues --    2.84239   2.87380   2.92380   2.94547   2.95750
 Alpha virt. eigenvalues --    2.98835   3.01052   3.03362   3.05557   3.08338
 Alpha virt. eigenvalues --    3.10903   3.13391   3.21421   3.25472   3.25624
 Alpha virt. eigenvalues --    3.30854   3.37901   3.41616   3.52086   3.64050
 Alpha virt. eigenvalues --    4.12416   4.28489   4.32916   4.38963   4.42679
 Alpha virt. eigenvalues --    4.56835   4.60155   4.61938   4.71436   4.78320
 Alpha virt. eigenvalues --    4.96964   4.99486   5.04263   5.11830
          Condensed to atoms (all electrons):
               1          2          3          4          5          6
     1  O    8.311897   0.307722  -0.080644  -0.085997   0.004488  -0.000017
     2  N    0.307722   5.738361   0.298739   0.253228  -0.050290   0.001153
     3  O   -0.080644   0.298739   8.348918  -0.091582   0.004433   0.000693
     4  C   -0.085997   0.253228  -0.091582   5.233936   0.565793  -0.051310
     5  C    0.004488  -0.050290   0.004433   0.565793   4.700063   0.321102
     6  N   -0.000017   0.001153   0.000693  -0.051310   0.321102   7.182897
     7  C    0.000003  -0.000106   0.000003   0.002373  -0.027175   0.184157
     8  H   -0.000000   0.000003  -0.000000   0.000210   0.000482  -0.049160
     9  C   -0.000000  -0.000001   0.000000   0.000303   0.002803  -0.083823
    10  C    0.000000   0.000000   0.000000  -0.000009  -0.000055   0.003993
    11  C   -0.000000  -0.000000  -0.000000  -0.000019   0.000027  -0.000304
    12  C   -0.000000   0.000003  -0.000000  -0.000011  -0.000186   0.003250
    13  C   -0.000020  -0.000059  -0.000004  -0.013109  -0.000403  -0.035767
    14  H   -0.000007  -0.000159   0.000001   0.002533   0.006344  -0.005307
    15  N    0.000356   0.002520  -0.000018  -0.060576  -0.009104   0.003835
    16  C    0.002317  -0.028679   0.002630   0.326583  -0.053277  -0.003404
    17  H    0.000189  -0.007188   0.016096  -0.027707   0.377401  -0.036633
    18  H    0.000001  -0.000049   0.000010   0.001908  -0.033180   0.334891
    19  H    0.000000  -0.000000   0.000000  -0.000402   0.000017   0.000539
    20  H    0.000000   0.000000   0.000000  -0.000029   0.000040  -0.002152
    21  H   -0.000000   0.000000   0.000000   0.000000   0.000001  -0.000087
    22  H   -0.000000   0.000000  -0.000000   0.000000  -0.000003  -0.000099
    23  H    0.000000  -0.000000   0.000000   0.000013   0.000001  -0.000037
    24  H    0.000000   0.000000   0.000000   0.000000  -0.000000   0.000006
    25  H    0.000000  -0.000000   0.000000   0.000026   0.000002  -0.000067
    26  H    0.000000  -0.000000   0.000000   0.000007   0.000001  -0.000052
    27  H    0.005885  -0.000341   0.000017  -0.065720   0.001878   0.000134
               7          8          9         10         11         12
     1  O    0.000003  -0.000000  -0.000000   0.000000  -0.000000  -0.000000
     2  N   -0.000106   0.000003  -0.000001   0.000000  -0.000000   0.000003
     3  O    0.000003  -0.000000   0.000000   0.000000  -0.000000  -0.000000
     4  C    0.002373   0.000210   0.000303  -0.000009  -0.000019  -0.000011
     5  C   -0.027175   0.000482   0.002803  -0.000055   0.000027  -0.000186
     6  N    0.184157  -0.049160  -0.083823   0.003993  -0.000304   0.003250
     7  C    4.990358   0.409999   0.352011  -0.046267  -0.008592  -0.056953
     8  H    0.409999   0.541623  -0.055006   0.002490  -0.000052  -0.000114
     9  C    0.352011  -0.055006   5.179729   0.324780  -0.054864  -0.007480
    10  C   -0.046267   0.002490   0.324780   5.112801   0.336692  -0.062061
    11  C   -0.008592  -0.000052  -0.054864   0.336692   5.111474   0.331566
    12  C   -0.056953  -0.000114  -0.007480  -0.062061   0.331566   5.129410
    13  C    0.334921  -0.036255  -0.055794  -0.002907  -0.049217   0.371393
    14  H   -0.048751  -0.002855   0.005325  -0.000482   0.004542  -0.044421
    15  N   -0.055826   0.003603  -0.005921   0.000729  -0.002557  -0.075066
    16  C   -0.000642  -0.000048   0.000105  -0.000041   0.000025   0.001566
    17  H    0.001663  -0.000007  -0.000105   0.000001   0.000000   0.000001
    18  H   -0.022018  -0.002366  -0.000751  -0.000096   0.000004  -0.000098
    19  H   -0.039239   0.004659   0.389611  -0.034840  -0.002398   0.000489
    20  H   -0.040588  -0.002831   0.398558  -0.035208   0.004296  -0.000320
    21  H    0.003968  -0.000132  -0.036177   0.404132  -0.035630   0.004531
    22  H   -0.003079   0.002574  -0.046287   0.396435  -0.044361  -0.002068
    23  H    0.000935   0.000025  -0.002924  -0.040897   0.399841  -0.040744
    24  H   -0.000135  -0.000032   0.004491  -0.037929   0.404120  -0.037876
    25  H    0.004956  -0.000152  -0.000372   0.004369  -0.032621   0.399197
    26  H   -0.001638   0.001599   0.000369  -0.003010  -0.043541   0.395139
    27  H   -0.000387   0.000009  -0.000024   0.000002   0.000002  -0.000003
              13         14         15         16         17         18
     1  O   -0.000020  -0.000007   0.000356   0.002317   0.000189   0.000001
     2  N   -0.000059  -0.000159   0.002520  -0.028679  -0.007188  -0.000049
     3  O   -0.000004   0.000001  -0.000018   0.002630   0.016096   0.000010
     4  C   -0.013109   0.002533  -0.060576   0.326583  -0.027707   0.001908
     5  C   -0.000403   0.006344  -0.009104  -0.053277   0.377401  -0.033180
     6  N   -0.035767  -0.005307   0.003835  -0.003404  -0.036633   0.334891
     7  C    0.334921  -0.048751  -0.055826  -0.000642   0.001663  -0.022018
     8  H   -0.036255  -0.002855   0.003603  -0.000048  -0.000007  -0.002366
     9  C   -0.055794   0.005325  -0.005921   0.000105  -0.000105  -0.000751
    10  C   -0.002907  -0.000482   0.000729  -0.000041   0.000001  -0.000096
    11  C   -0.049217   0.004542  -0.002557   0.000025   0.000000   0.000004
    12  C    0.371393  -0.044421  -0.075066   0.001566   0.000001  -0.000098
    13  C    5.019055   0.404484   0.243783  -0.069788  -0.000046   0.002972
    14  H    0.404484   0.551682  -0.045451  -0.003767   0.000120  -0.000196
    15  N    0.243783  -0.045451   6.946109   0.589873  -0.000100  -0.000065
    16  C   -0.069788  -0.003767   0.589873   4.704842   0.002623  -0.000164
    17  H   -0.000046   0.000120  -0.000100   0.002623   0.388008  -0.003468
    18  H    0.002972  -0.000196  -0.000065  -0.000164  -0.003468   0.324386
    19  H   -0.006687   0.000071   0.005805   0.001359   0.000014  -0.000038
    20  H    0.004381  -0.000096  -0.000059  -0.000022   0.000004   0.002109
    21  H   -0.000336   0.000012  -0.000020   0.000000  -0.000000  -0.000000
    22  H    0.000280  -0.000071   0.000011  -0.000000  -0.000000   0.000003
    23  H   -0.006070   0.000004   0.006120   0.000082   0.000000   0.000000
    24  H    0.004377  -0.000070  -0.000059   0.000003   0.000000  -0.000000
    25  H   -0.036139  -0.002558   0.000508   0.000135  -0.000000   0.000002
    26  H   -0.047622  -0.002498   0.004743  -0.000039   0.000000   0.000001
    27  H    0.004744  -0.000158  -0.040356   0.404970  -0.000079   0.000002
              19         20         21         22         23         24
     1  O    0.000000   0.000000  -0.000000  -0.000000   0.000000   0.000000
     2  N   -0.000000   0.000000   0.000000   0.000000  -0.000000   0.000000
     3  O    0.000000   0.000000   0.000000  -0.000000   0.000000   0.000000
     4  C   -0.000402  -0.000029   0.000000   0.000000   0.000013   0.000000
     5  C    0.000017   0.000040   0.000001  -0.000003   0.000001  -0.000000
     6  N    0.000539  -0.002152  -0.000087  -0.000099  -0.000037   0.000006
     7  C   -0.039239  -0.040588   0.003968  -0.003079   0.000935  -0.000135
     8  H    0.004659  -0.002831  -0.000132   0.002574   0.000025  -0.000032
     9  C    0.389611   0.398558  -0.036177  -0.046287  -0.002924   0.004491
    10  C   -0.034840  -0.035208   0.404132   0.396435  -0.040897  -0.037929
    11  C   -0.002398   0.004296  -0.035630  -0.044361   0.399841   0.404120
    12  C    0.000489  -0.000320   0.004531  -0.002068  -0.040744  -0.037876
    13  C   -0.006687   0.004381  -0.000336   0.000280  -0.006070   0.004377
    14  H    0.000071  -0.000096   0.000012  -0.000071   0.000004  -0.000070
    15  N    0.005805  -0.000059  -0.000020   0.000011   0.006120  -0.000059
    16  C    0.001359  -0.000022   0.000000  -0.000000   0.000082   0.000003
    17  H    0.000014   0.000004  -0.000000  -0.000000   0.000000   0.000000
    18  H   -0.000038   0.002109  -0.000000   0.000003   0.000000  -0.000000
    19  H    0.515522  -0.026074  -0.003289   0.004197   0.002109  -0.000050
    20  H   -0.026074   0.548589  -0.002867  -0.002908  -0.000062  -0.000086
    21  H   -0.003289  -0.002867   0.524340  -0.027618  -0.002982  -0.002005
    22  H    0.004197  -0.002908  -0.027618   0.569056   0.004299  -0.003388
    23  H    0.002109  -0.000062  -0.002982   0.004299   0.516740  -0.025659
    24  H   -0.000050  -0.000086  -0.002005  -0.003388  -0.025659   0.531860
    25  H   -0.000057   0.000012  -0.000083  -0.000099  -0.002478  -0.002357
    26  H    0.000061  -0.000040  -0.000088   0.002883   0.004455  -0.003265
    27  H    0.000027  -0.000000  -0.000000   0.000000  -0.000013  -0.000000
              25         26         27
     1  O    0.000000   0.000000   0.005885
     2  N   -0.000000  -0.000000  -0.000341
     3  O    0.000000   0.000000   0.000017
     4  C    0.000026   0.000007  -0.065720
     5  C    0.000002   0.000001   0.001878
     6  N   -0.000067  -0.000052   0.000134
     7  C    0.004956  -0.001638  -0.000387
     8  H   -0.000152   0.001599   0.000009
     9  C   -0.000372   0.000369  -0.000024
    10  C    0.004369  -0.003010   0.000002
    11  C   -0.032621  -0.043541   0.000002
    12  C    0.399197   0.395139  -0.000003
    13  C   -0.036139  -0.047622   0.004744
    14  H   -0.002558  -0.002498  -0.000158
    15  N    0.000508   0.004743  -0.040356
    16  C    0.000135  -0.000039   0.404970
    17  H   -0.000000   0.000000  -0.000079
    18  H    0.000002   0.000001   0.000002
    19  H   -0.000057   0.000061   0.000027
    20  H    0.000012  -0.000040  -0.000000
    21  H   -0.000083  -0.000088  -0.000000
    22  H   -0.000099   0.002883   0.000000
    23  H   -0.002478   0.004455  -0.000013
    24  H   -0.002357  -0.003265  -0.000000
    25  H    0.498927  -0.023947  -0.000025
    26  H   -0.023947   0.564980   0.000001
    27  H   -0.000025   0.000001   0.443131
 Mulliken charges:
               1
     1  O   -0.466173
     2  N    0.485144
     3  O   -0.499290
     4  C    0.009558
     5  C    0.188798
     6  N   -0.768428
     7  C    0.066051
     8  H    0.181735
     9  C   -0.308558
    10  C   -0.322623
    11  C   -0.318432
    12  C   -0.309143
    13  C   -0.030164
    14  H    0.181729
    15  N   -0.512819
    16  C    0.122759
    17  H    0.289211
    18  H    0.396202
    19  H    0.188593
    20  H    0.155353
    21  H    0.174330
    22  H    0.150243
    23  H    0.187242
    24  H    0.168055
    25  H    0.192822
    26  H    0.151501
    27  H    0.246303
 Sum of Mulliken charges =  -0.00000
 Mulliken charges with hydrogens summed into heavy atoms:
               1
     1  O   -0.466173
     2  N    0.485144
     3  O   -0.499290
     4  C    0.009558
     5  C    0.478010
     6  N   -0.372226
     7  C    0.247786
     9  C    0.035388
    10  C    0.001950
    11  C    0.036865
    12  C    0.035180
    13  C    0.151565
    15  N   -0.512819
    16  C    0.369062
 Electronic spatial extent (au):  <R**2>=           3125.2987
 Charge=             -0.0000 electrons
 Dipole moment (field-independent basis, Debye):
    X=              5.5739    Y=              4.6842    Z=              0.3699  Tot=              7.2902
 Quadrupole moment (field-independent basis, Debye-Ang):
   XX=           -106.0466   YY=            -79.3641   ZZ=            -82.5815
   XY=             -2.2138   XZ=              3.5799   YZ=              0.0299
 Traceless Quadrupole moment (field-independent basis, Debye-Ang):
   XX=            -16.7159   YY=              9.9666   ZZ=              6.7492
   XY=             -2.2138   XZ=              3.5799   YZ=              0.0299
 Octapole moment (field-independent basis, Debye-Ang**2):
  XXX=            106.9770  YYY=             37.1777  ZZZ=             -7.5055  XYY=             -2.3446
  XXY=              9.6235  XXZ=            -13.1472  XZZ=             -6.9705  YZZ=             -0.9971
  YYZ=             -1.0875  XYZ=             -0.3938
 Hexadecapole moment (field-independent basis, Debye-Ang**3):
 XXXX=          -3598.1017 YYYY=           -621.8912 ZZZZ=           -259.2918 XXXY=            -52.4852
 XXXZ=            112.1037 YYYX=            -33.0431 YYYZ=             29.5550 ZZZX=             68.2023
 ZZZY=             30.5785 XXYY=           -663.8833 XXZZ=           -546.9498 YYZZ=           -158.6289
 XXYZ=              3.5442 YYXZ=             32.3857 ZZXY=              1.0877
 N-N= 9.238100775581D+02 E-N=-3.394220914103D+03  KE= 6.596191570488D+02
 Unable to Open any file for archive entry.
 1\1\GINC-LOTUS\FOpt\RMP2-FC\6-31G(d)\C9H13N3O2\ALEXEY\30-Jun-2023\0\\#
 MP2/6-31G* SCF=Tight Opt=(ModRedun, MaxCycle=100 ) NoSymm\\MolName:\\0
 ,1\O,-3.650136611,-1.4106467182,0.0480963044\N,-3.2273456822,-0.246365
 7764,0.1884407259\O,-3.9596609486,0.7350468276,0.4200632284\C,-1.79466
 99923,-0.0529682341,0.0942588225\C,-1.3578111589,1.2408386926,0.108085
 0866\N,-0.0883902728,1.671076629,-0.0412136801\C,1.172330968,1.0106080
 792,0.3169549828\H,1.6070962505,1.5510756534,1.1727807855\C,2.10228513
 45,1.1353184337,-0.8969577905\C,3.4787369772,0.5149399851,-0.668964590
 5\C,3.3536067828,-0.9430518631,-0.2322225575\C,2.4182264938,-1.0668635
 516,0.9659581112\C,1.0348834498,-0.466484855,0.7201552022\H,0.49652475
 26,-0.4661784519,1.6858930155\N,0.2791551623,-1.3371318037,-0.17477298
 22\C,-0.9913015817,-1.1809838286,-0.3336447153\H,-2.1124833376,2.02133
 90399,0.1701926294\H,-0.0064157852,2.68305604,-0.0379712884\H,1.602869
 8099,0.6317904357,-1.7333392099\H,2.2017765414,2.1931757566,-1.1753509
 424\H,4.0753530254,0.5984546061,-1.5842714615\H,4.0123048991,1.0839728
 693,0.1057421494\H,2.9465371704,-1.5386451315,-1.058314658\H,4.3371228
 339,-1.3593614778,0.013200036\H,2.2763637305,-2.1164302721,1.242141797
 3\H,2.8677080827,-0.5628529094,1.8339048034\H,-1.5136666946,-1.9577381
 749,-0.8928438043\\Version=ES64L-G16RevC.02\HF=-661.2946357\MP2=-663.3
 261068\RMSD=9.303e-09\RMSF=4.447e-03\Dipole=2.0255837,1.6394027,0.1554
 388\PG=C01 [X(C9H13N3O2)]\\@
 The archive entry for this job was punched.


 THE ... SCIENTISTS WERE WRONG ... THE MOST PERSISTENT PRINCIPLES 
 OF THE UNIVERSE WERE ACCIDENT AND ERROR.

                          -- FRANK HERBERT IN DUNE
 Job cpu time:       0 days  1 hours 25 minutes 17.7 seconds.
 Elapsed time:       0 days  0 hours 25 minutes 27.2 seconds.
 File lengths (MBytes):  RWF=     36 Int=      0 D2E=      0 Chk=      7 Scr=      1
 Normal termination of Gaussian 16 at Fri Jun 30 18:26:41 2023.
