 Entering Gaussian System, Link 0=g16
 Initial command:
 /home/alexey/programs//g16/l1.exe "/home/alexey/tmp/Gau-1188429.inp" -scrdir="/home/alexey/tmp/"
 Entering Link 1 = /home/alexey/programs//g16/l1.exe PID=   1188431.
  
 Copyright (c) 1988-2021, Gaussian, Inc.  All Rights Reserved.
  
 This is part of the Gaussian(R) 16 program.  It is based on
 the Gaussian(R) 09 system (copyright 2009, Gaussian, Inc.),
 the Gaussian(R) 03 system (copyright 2003, Gaussian, Inc.),
 the Gaussian(R) 98 system (copyright 1998, Gaussian, Inc.),
 the Gaussian(R) 94 system (copyright 1995, Gaussian, Inc.),
 the Gaussian 92(TM) system (copyright 1992, Gaussian, Inc.),
 the Gaussian 90(TM) system (copyright 1990, Gaussian, Inc.),
 the Gaussian 88(TM) system (copyright 1988, Gaussian, Inc.),
 the Gaussian 86(TM) system (copyright 1986, Carnegie Mellon
 University), and the Gaussian 82(TM) system (copyright 1983,
 Carnegie Mellon University). Gaussian is a federally registered
 trademark of Gaussian, Inc.
  
 This software contains proprietary and confidential information,
 including trade secrets, belonging to Gaussian, Inc.
  
 This software is provided under written license and may be
 used, copied, transmitted, or stored only in accord with that
 written license.
  
 The following legend is applicable only to US Government
 contracts under FAR:
  
                    RESTRICTED RIGHTS LEGEND
  
 Use, reproduction and disclosure by the US Government is
 subject to restrictions as set forth in subparagraphs (a)
 and (c) of the Commercial Computer Software - Restricted
 Rights clause in FAR 52.227-19.
  
 Gaussian, Inc.
 340 Quinnipiac St., Bldg. 40, Wallingford CT 06492
  
  
 ---------------------------------------------------------------
 Warning -- This program may not be used in any manner that
 competes with the business of Gaussian, Inc. or will provide
 assistance to any competitor of Gaussian, Inc.  The licensee
 of this program is prohibited from giving any competitor of
 Gaussian, Inc. access to this program.  By using this program,
 the user acknowledges that Gaussian, Inc. is engaged in the
 business of creating and licensing software in the field of
 computational chemistry and represents and warrants to the
 licensee that it is not a competitor of Gaussian, Inc. and that
 it will not use this program in any manner prohibited above.
 ---------------------------------------------------------------
  

 Cite this work as:
 Gaussian 16, Revision C.02,
 M. J. Frisch, G. W. Trucks, H. B. Schlegel, G. E. Scuseria, 
 M. A. Robb, J. R. Cheeseman, G. Scalmani, V. Barone, 
 G. A. Petersson, H. Nakatsuji, X. Li, M. Caricato, A. V. Marenich, 
 J. Bloino, B. G. Janesko, R. Gomperts, B. Mennucci, H. P. Hratchian, 
 J. V. Ortiz, A. F. Izmaylov, J. L. Sonnenberg, D. Williams-Young, 
 F. Ding, F. Lipparini, F. Egidi, J. Goings, B. Peng, A. Petrone, 
 T. Henderson, D. Ranasinghe, V. G. Zakrzewski, J. Gao, N. Rega, 
 G. Zheng, W. Liang, M. Hada, M. Ehara, K. Toyota, R. Fukuda, 
 J. Hasegawa, M. Ishida, T. Nakajima, Y. Honda, O. Kitao, H. Nakai, 
 T. Vreven, K. Throssell, J. A. Montgomery, Jr., J. E. Peralta, 
 F. Ogliaro, M. J. Bearpark, J. J. Heyd, E. N. Brothers, K. N. Kudin, 
 V. N. Staroverov, T. A. Keith, R. Kobayashi, J. Normand, 
 K. Raghavachari, A. P. Rendell, J. C. Burant, S. S. Iyengar, 
 J. Tomasi, M. Cossi, J. M. Millam, M. Klene, C. Adamo, R. Cammi, 
 J. W. Ochterski, R. L. Martin, K. Morokuma, O. Farkas, 
 J. B. Foresman, and D. J. Fox, Gaussian, Inc., Wallingford CT, 2019.
 
 ******************************************
 Gaussian 16:  ES64L-G16RevC.02  7-Dec-2021
                30-Jun-2023 
 ******************************************
 %mem=8GB
 %NPROCS=4
 Will use up to    4 processors via shared memory.
 %NoSave
 ----------------------------------------------------------
 #MP2/6-31G* SCF=Tight Opt=(ModRedun, MaxCycle=100 ) NoSymm
 ----------------------------------------------------------
 1/6=100,18=120,19=15,38=1/1,3;
 2/9=110,12=2,15=1,17=6,18=5,40=1/2;
 3/5=1,6=6,7=1,11=9,25=1,30=1,71=1/1,2,3;
 4//1;
 5/5=2,32=2,38=5/2;
 8/6=4,10=2/1;
 9/15=2,16=-3/6;
 10/5=1,31=1/2;
 6/7=2,8=2,9=2,10=2/1;
 7/12=2,30=1/1,2,3,16;
 1/6=100,18=20,19=15/3(2);
 2/9=110,15=1/2;
 99//99;
 2/9=110,15=1/2;
 3/5=1,6=6,7=1,11=9,25=1,30=1,71=1/1,2,3;
 4/5=5,16=3,69=1/1;
 5/5=2,32=2,38=5/2;
 8/6=4,10=2/1;
 9/15=2,16=-3/6;
 10/5=1,31=1/2;
 7/12=2,30=1/1,2,3,16;
 1/6=100,18=20,19=15/3(-8);
 2/9=110,15=1/2;
 6/7=2,8=2,9=2,10=2/1;
 99/9=10/99;
 --------
 MolName:
 --------
 Symbolic Z-matrix:
 Charge =  0 Multiplicity = 1
 8                    0    -3.5187   -1.35632  -0.48937 
 7                    0    -3.15969  -0.2196   -0.18764 
 8                    0    -3.9394    0.71983  -0.02498 
 6                    0    -1.65883   0.03717  -0.04667 
 6                    0    -1.30265   1.31669   0.44717 
 7                    0    -0.01989   1.7515    0.6933 
 6                    0     1.15506   0.93495   0.29636 
 1                    0     1.9566    1.41023   0.9391 
 6                    0     1.82276   0.93676  -1.10159 
 6                    0     3.2665    0.43535  -0.8755 
 6                    0     3.27287  -0.92935  -0.1546 
 6                    0     2.43263  -0.91297   1.15731 
 6                    0     0.96069  -0.45619   0.89598 
 1                    0     0.40513  -0.49565   1.86034 
 7                    0     0.45772  -1.38108  -0.09942 
 6                    0    -0.75403  -1.09624  -0.48513 
 1                    0    -2.10727   2.03088   0.68916 
 1                    0     0.23526   2.74187   0.65849 
 1                    0     1.28345   0.2985   -1.82775 
 1                    0     1.85297   1.96977  -1.50753 
 1                    0     3.78936   0.34368  -1.85239 
 1                    0     3.82775   1.17144  -0.25911 
 1                    0     2.87504  -1.70467  -0.8457 
 1                    0     4.31953  -1.21542   0.08704 
 1                    0     2.42287  -1.93904   1.5856 
 1                    0     2.91255  -0.24866   1.90387 
 1                    0    -1.23125  -1.78243  -1.20136 
 
 The following ModRedundant input section has been read:
 D       6       7      13      15 F                                           
 D       1       2       4      16 F                                           
 D       7      13      15      16 F                                           
 D       7       9      10      11 F                                           
 D       9      10      11      12 F                                           
 

 GradGradGradGradGradGradGradGradGradGradGradGradGradGradGradGradGradGrad
 Berny optimization.
 Initialization pass.
                           ----------------------------
                           !    Initial Parameters    !
                           ! (Angstroms and Degrees)  !
 --------------------------                            --------------------------
 ! Name  Definition              Value          Derivative Info.                !
 --------------------------------------------------------------------------------
 ! R1    R(1,2)                  1.2297         estimate D2E/DX2                !
 ! R2    R(2,3)                  1.2316         estimate D2E/DX2                !
 ! R3    R(2,4)                  1.5292         estimate D2E/DX2                !
 ! R4    R(4,5)                  1.417          estimate D2E/DX2                !
 ! R5    R(4,16)                 1.5151         estimate D2E/DX2                !
 ! R6    R(5,6)                  1.3766         estimate D2E/DX2                !
 ! R7    R(5,17)                 1.1027         estimate D2E/DX2                !
 ! R8    R(6,7)                  1.4849         estimate D2E/DX2                !
 ! R9    R(6,18)                 1.0233         estimate D2E/DX2                !
 ! R10   R(7,8)                  1.132          estimate D2E/DX2                !
 ! R11   R(7,9)                  1.5492         estimate D2E/DX2                !
 ! R12   R(7,13)                 1.5273         estimate D2E/DX2                !
 ! R13   R(9,10)                 1.545          estimate D2E/DX2                !
 ! R14   R(9,19)                 1.107          estimate D2E/DX2                !
 ! R15   R(9,20)                 1.1103         estimate D2E/DX2                !
 ! R16   R(10,11)                1.5434         estimate D2E/DX2                !
 ! R17   R(10,21)                1.1118         estimate D2E/DX2                !
 ! R18   R(10,22)                1.1121         estimate D2E/DX2                !
 ! R19   R(11,12)                1.558          estimate D2E/DX2                !
 ! R20   R(11,23)                1.1122         estimate D2E/DX2                !
 ! R21   R(11,24)                1.1116         estimate D2E/DX2                !
 ! R22   R(12,13)                1.5632         estimate D2E/DX2                !
 ! R23   R(12,25)                1.1119         estimate D2E/DX2                !
 ! R24   R(12,26)                1.1086         estimate D2E/DX2                !
 ! R25   R(13,14)                1.1136         estimate D2E/DX2                !
 ! R26   R(13,15)                1.4489         estimate D2E/DX2                !
 ! R27   R(15,16)                1.3032         estimate D2E/DX2                !
 ! R28   R(16,27)                1.1007         estimate D2E/DX2                !
 ! A1    A(1,2,3)              123.5507         estimate D2E/DX2                !
 ! A2    A(1,2,4)              117.6711         estimate D2E/DX2                !
 ! A3    A(3,2,4)              118.7568         estimate D2E/DX2                !
 ! A4    A(2,4,5)              115.4965         estimate D2E/DX2                !
 ! A5    A(2,4,16)             115.7114         estimate D2E/DX2                !
 ! A6    A(5,4,16)             128.7732         estimate D2E/DX2                !
 ! A7    A(4,5,6)              125.5727         estimate D2E/DX2                !
 ! A8    A(4,5,17)             118.5471         estimate D2E/DX2                !
 ! A9    A(6,5,17)             115.8556         estimate D2E/DX2                !
 ! A10   A(5,6,7)              121.0537         estimate D2E/DX2                !
 ! A11   A(5,6,18)             122.1368         estimate D2E/DX2                !
 ! A12   A(7,6,18)             109.0156         estimate D2E/DX2                !
 ! A13   A(6,7,8)              100.2308         estimate D2E/DX2                !
 ! A14   A(6,7,9)              125.5642         estimate D2E/DX2                !
 ! A15   A(6,7,13)             107.1719         estimate D2E/DX2                !
 ! A16   A(8,7,9)              101.928          estimate D2E/DX2                !
 ! A17   A(8,7,13)             104.4552         estimate D2E/DX2                !
 ! A18   A(9,7,13)             114.2164         estimate D2E/DX2                !
 ! A19   A(7,9,10)             105.6835         estimate D2E/DX2                !
 ! A20   A(7,9,19)             112.4118         estimate D2E/DX2                !
 ! A21   A(7,9,20)             110.0427         estimate D2E/DX2                !
 ! A22   A(10,9,19)            111.3535         estimate D2E/DX2                !
 ! A23   A(10,9,20)            109.2703         estimate D2E/DX2                !
 ! A24   A(19,9,20)            108.0495         estimate D2E/DX2                !
 ! A25   A(9,10,11)            111.0494         estimate D2E/DX2                !
 ! A26   A(9,10,21)            109.7336         estimate D2E/DX2                !
 ! A27   A(9,10,22)            109.7494         estimate D2E/DX2                !
 ! A28   A(11,10,21)           109.6064         estimate D2E/DX2                !
 ! A29   A(11,10,22)           108.9221         estimate D2E/DX2                !
 ! A30   A(21,10,22)           107.7122         estimate D2E/DX2                !
 ! A31   A(10,11,12)           112.444          estimate D2E/DX2                !
 ! A32   A(10,11,23)           108.9456         estimate D2E/DX2                !
 ! A33   A(10,11,24)           109.4486         estimate D2E/DX2                !
 ! A34   A(12,11,23)           109.7337         estimate D2E/DX2                !
 ! A35   A(12,11,24)           109.1142         estimate D2E/DX2                !
 ! A36   A(23,11,24)           107.0056         estimate D2E/DX2                !
 ! A37   A(11,12,13)           111.7234         estimate D2E/DX2                !
 ! A38   A(11,12,25)           108.6251         estimate D2E/DX2                !
 ! A39   A(11,12,26)           109.87           estimate D2E/DX2                !
 ! A40   A(13,12,25)           109.0129         estimate D2E/DX2                !
 ! A41   A(13,12,26)           110.189          estimate D2E/DX2                !
 ! A42   A(25,12,26)           107.3003         estimate D2E/DX2                !
 ! A43   A(7,13,12)            102.2373         estimate D2E/DX2                !
 ! A44   A(7,13,14)            115.8325         estimate D2E/DX2                !
 ! A45   A(7,13,15)            110.8487         estimate D2E/DX2                !
 ! A46   A(12,13,14)           108.3383         estimate D2E/DX2                !
 ! A47   A(12,13,15)           104.7857         estimate D2E/DX2                !
 ! A48   A(14,13,15)           113.5236         estimate D2E/DX2                !
 ! A49   A(13,15,16)           112.7437         estimate D2E/DX2                !
 ! A50   A(4,16,15)            129.2831         estimate D2E/DX2                !
 ! A51   A(4,16,27)            113.3125         estimate D2E/DX2                !
 ! A52   A(15,16,27)           117.353          estimate D2E/DX2                !
 ! D1    D(1,2,4,5)           -173.1826         estimate D2E/DX2                !
 ! D2    D(1,2,4,16)             8.2602         Frozen                          !
 ! D3    D(3,2,4,5)              8.4374         estimate D2E/DX2                !
 ! D4    D(3,2,4,16)          -170.1199         estimate D2E/DX2                !
 ! D5    D(2,4,5,6)            177.8805         estimate D2E/DX2                !
 ! D6    D(2,4,5,17)            -0.2359         estimate D2E/DX2                !
 ! D7    D(16,4,5,6)            -3.7869         estimate D2E/DX2                !
 ! D8    D(16,4,5,17)          178.0966         estimate D2E/DX2                !
 ! D9    D(2,4,16,15)         -154.3237         estimate D2E/DX2                !
 ! D10   D(2,4,16,27)           22.9609         estimate D2E/DX2                !
 ! D11   D(5,4,16,15)           27.3467         estimate D2E/DX2                !
 ! D12   D(5,4,16,27)         -155.3687         estimate D2E/DX2                !
 ! D13   D(4,5,6,7)              7.4609         estimate D2E/DX2                !
 ! D14   D(4,5,6,18)           153.2946         estimate D2E/DX2                !
 ! D15   D(17,5,6,7)          -174.3776         estimate D2E/DX2                !
 ! D16   D(17,5,6,18)          -28.544          estimate D2E/DX2                !
 ! D17   D(5,6,7,8)           -162.1064         estimate D2E/DX2                !
 ! D18   D(5,6,7,9)             85.1117         estimate D2E/DX2                !
 ! D19   D(5,6,7,13)           -53.3671         estimate D2E/DX2                !
 ! D20   D(18,6,7,8)            48.0922         estimate D2E/DX2                !
 ! D21   D(18,6,7,9)           -64.6897         estimate D2E/DX2                !
 ! D22   D(18,6,7,13)          156.8315         estimate D2E/DX2                !
 ! D23   D(6,7,9,10)           157.1218         estimate D2E/DX2                !
 ! D24   D(6,7,9,19)           -81.2169         estimate D2E/DX2                !
 ! D25   D(6,7,9,20)            39.2616         estimate D2E/DX2                !
 ! D26   D(8,7,9,10)            45.1471         estimate D2E/DX2                !
 ! D27   D(8,7,9,19)           166.8085         estimate D2E/DX2                !
 ! D28   D(8,7,9,20)           -72.7131         estimate D2E/DX2                !
 ! D29   D(13,7,9,10)          -66.8622         estimate D2E/DX2                !
 ! D30   D(13,7,9,19)           54.7991         estimate D2E/DX2                !
 ! D31   D(13,7,9,20)          175.2776         estimate D2E/DX2                !
 ! D32   D(6,7,13,12)         -148.7824         estimate D2E/DX2                !
 ! D33   D(6,7,13,14)          -31.2219         estimate D2E/DX2                !
 ! D34   D(6,7,13,15)           99.9925         Frozen                          !
 ! D35   D(8,7,13,12)          -43.0207         estimate D2E/DX2                !
 ! D36   D(8,7,13,14)           74.5398         estimate D2E/DX2                !
 ! D37   D(8,7,13,15)         -154.2459         estimate D2E/DX2                !
 ! D38   D(9,7,13,12)           67.465          estimate D2E/DX2                !
 ! D39   D(9,7,13,14)         -174.9745         estimate D2E/DX2                !
 ! D40   D(9,7,13,15)          -43.7601         estimate D2E/DX2                !
 ! D41   D(7,9,10,11)           54.8093         Frozen                          !
 ! D42   D(7,9,10,21)          176.1439         estimate D2E/DX2                !
 ! D43   D(7,9,10,22)          -65.6786         estimate D2E/DX2                !
 ! D44   D(19,9,10,11)         -67.5322         estimate D2E/DX2                !
 ! D45   D(19,9,10,21)          53.8023         estimate D2E/DX2                !
 ! D46   D(19,9,10,22)         171.9798         estimate D2E/DX2                !
 ! D47   D(20,9,10,11)         173.1859         estimate D2E/DX2                !
 ! D48   D(20,9,10,21)         -65.4795         estimate D2E/DX2                !
 ! D49   D(20,9,10,22)          52.698          estimate D2E/DX2                !
 ! D50   D(9,10,11,12)         -52.8193         Frozen                          !
 ! D51   D(9,10,11,23)          69.0537         estimate D2E/DX2                !
 ! D52   D(9,10,11,24)        -174.2579         estimate D2E/DX2                !
 ! D53   D(21,10,11,12)       -174.2284         estimate D2E/DX2                !
 ! D54   D(21,10,11,23)        -52.3554         estimate D2E/DX2                !
 ! D55   D(21,10,11,24)         64.333          estimate D2E/DX2                !
 ! D56   D(22,10,11,12)         68.157          estimate D2E/DX2                !
 ! D57   D(22,10,11,23)       -169.9701         estimate D2E/DX2                !
 ! D58   D(22,10,11,24)        -53.2816         estimate D2E/DX2                !
 ! D59   D(10,11,12,13)         55.8774         estimate D2E/DX2                !
 ! D60   D(10,11,12,25)        176.1652         estimate D2E/DX2                !
 ! D61   D(10,11,12,26)        -66.7388         estimate D2E/DX2                !
 ! D62   D(23,11,12,13)        -65.5468         estimate D2E/DX2                !
 ! D63   D(23,11,12,25)         54.741          estimate D2E/DX2                !
 ! D64   D(23,11,12,26)        171.837          estimate D2E/DX2                !
 ! D65   D(24,11,12,13)        177.5067         estimate D2E/DX2                !
 ! D66   D(24,11,12,25)        -62.2055         estimate D2E/DX2                !
 ! D67   D(24,11,12,26)         54.8904         estimate D2E/DX2                !
 ! D68   D(11,12,13,7)         -58.9622         estimate D2E/DX2                !
 ! D69   D(11,12,13,14)        178.244          estimate D2E/DX2                !
 ! D70   D(11,12,13,15)         56.7528         estimate D2E/DX2                !
 ! D71   D(25,12,13,7)        -179.0227         estimate D2E/DX2                !
 ! D72   D(25,12,13,14)         58.1835         estimate D2E/DX2                !
 ! D73   D(25,12,13,15)        -63.3077         estimate D2E/DX2                !
 ! D74   D(26,12,13,7)          63.4717         estimate D2E/DX2                !
 ! D75   D(26,12,13,14)        -59.3222         estimate D2E/DX2                !
 ! D76   D(26,12,13,15)        179.1867         estimate D2E/DX2                !
 ! D77   D(7,13,15,16)         -67.159          Frozen                          !
 ! D78   D(12,13,15,16)       -176.7376         estimate D2E/DX2                !
 ! D79   D(14,13,15,16)         65.2417         estimate D2E/DX2                !
 ! D80   D(13,15,16,4)           0.3838         estimate D2E/DX2                !
 ! D81   D(13,15,16,27)       -176.8085         estimate D2E/DX2                !
 --------------------------------------------------------------------------------
 Trust Radius=3.00D-01 FncErr=1.00D-07 GrdErr=1.00D-07 EigMax=2.50D+02 EigMin=1.00D-04
 Number of steps in this run=    100 maximum allowed number of steps=    162.
 GradGradGradGradGradGradGradGradGradGradGradGradGradGradGradGradGradGrad

                          Input orientation:                          
 ---------------------------------------------------------------------
 Center     Atomic      Atomic             Coordinates (Angstroms)
 Number     Number       Type             X           Y           Z
 ---------------------------------------------------------------------
      1          8           0       -3.518700   -1.356320   -0.489370
      2          7           0       -3.159690   -0.219600   -0.187640
      3          8           0       -3.939400    0.719830   -0.024980
      4          6           0       -1.658830    0.037170   -0.046670
      5          6           0       -1.302650    1.316690    0.447170
      6          7           0       -0.019890    1.751500    0.693300
      7          6           0        1.155060    0.934950    0.296360
      8          1           0        1.956600    1.410230    0.939100
      9          6           0        1.822760    0.936760   -1.101590
     10          6           0        3.266500    0.435350   -0.875500
     11          6           0        3.272870   -0.929350   -0.154600
     12          6           0        2.432630   -0.912970    1.157310
     13          6           0        0.960690   -0.456190    0.895980
     14          1           0        0.405130   -0.495650    1.860340
     15          7           0        0.457720   -1.381080   -0.099420
     16          6           0       -0.754030   -1.096240   -0.485130
     17          1           0       -2.107270    2.030880    0.689160
     18          1           0        0.235260    2.741870    0.658490
     19          1           0        1.283450    0.298500   -1.827750
     20          1           0        1.852970    1.969770   -1.507530
     21          1           0        3.789360    0.343680   -1.852390
     22          1           0        3.827750    1.171440   -0.259110
     23          1           0        2.875040   -1.704670   -0.845700
     24          1           0        4.319530   -1.215420    0.087040
     25          1           0        2.422870   -1.939040    1.585600
     26          1           0        2.912550   -0.248660    1.903870
     27          1           0       -1.231250   -1.782430   -1.201360
 ---------------------------------------------------------------------
                    Distance matrix (angstroms):
                    1          2          3          4          5
     1  O    0.000000
     2  N    1.229659   0.000000
     3  O    2.168651   1.231639   0.000000
     4  C    2.365780   1.529178   2.380650   0.000000
     5  C    3.596243   2.492342   2.744379   1.417009   0.000000
     6  N    4.826896   3.810464   4.116167   2.484473   1.376631
     7  C    5.264154   4.492695   5.109115   2.973492   2.491748
     8  H    6.298669   5.486557   6.014060   3.991036   3.297492
     9  C    5.845017   5.195891   5.865887   3.747477   3.508731
    10  C    7.028379   6.496001   7.261495   5.010427   4.837701
    11  C    6.813208   6.471682   7.399556   5.026676   5.132466
    12  C    6.190835   5.793418   6.683308   4.369483   4.407720
    13  C    4.774344   4.267053   5.122702   2.827345   2.909853
    14  H    4.653851   4.120481   4.889454   2.860160   2.863239
    15  N    3.995571   3.800325   4.873810   2.548333   3.267358
    16  C    2.776880   2.577634   3.695461   1.515100   2.644314
    17  H    3.854114   2.634583   2.363376   2.171963   1.102742
    18  H    5.674941   4.583877   4.688663   3.376423   2.107359
    19  H    5.252650   4.764439   5.541269   3.449283   3.591641
    20  H    6.399560   5.626918   6.108343   4.266356   3.768992
    21  H    7.625980   7.167843   7.950764   5.747812   5.671269
    22  H    7.772575   7.124915   7.783790   5.606626   5.180824
    23  H    6.413129   6.249515   7.279311   4.922239   5.315376
    24  H    7.860658   7.550221   8.483376   6.109636   6.176583
    25  H    6.320389   6.104575   7.081104   4.819750   5.076938
    26  H    6.950934   6.422411   7.183847   4.978335   4.726543
    27  H    2.433296   2.681221   3.870304   2.197061   3.511025
                    6          7          8          9         10
     6  N    0.000000
     7  C    1.484865   0.000000
     8  H    2.020741   1.132021   0.000000
     9  C    2.698294   1.549223   2.099167   0.000000
    10  C    3.872176   2.465975   2.441107   1.544964   0.000000
    11  C    4.329914   2.857289   2.898686   2.545972   1.543419
    12  C    3.650967   2.405874   2.381487   2.982628   2.577910
    13  C    2.424152   1.527283   2.115944   2.583362   3.041339
    14  H    2.567549   2.248343   2.624523   3.582527   4.066819
    15  N    3.266431   2.450902   3.334153   2.870551   3.433797
    16  C    3.168167   2.895010   3.957062   3.339605   4.320048
    17  H    2.105998   3.463835   4.118582   4.455224   5.819904
    18  H    1.023302   2.059643   2.194315   2.979339   4.106285
    19  H    3.188353   2.221125   3.056883   1.107041   2.204086
    20  H    2.898085   2.193616   2.511936   1.110320   2.179902
    21  H    4.793003   3.450545   3.505561   2.186998   1.111800
    22  H    4.005982   2.740027   2.234710   2.187426   1.112100
    23  H    4.763848   3.351153   3.705623   2.854807   2.175733
    24  H    5.291572   3.831681   3.633660   3.504081   2.181833
    25  H    4.514794   3.395482   3.442816   3.981375   3.522279
    26  H    3.750377   2.659660   2.143954   3.409641   2.884103
    27  H    4.188770   3.914306   4.993699   4.090345   5.025384
                   11         12         13         14         15
    11  C    0.000000
    12  C    1.558005   0.000000
    13  C    2.583365   1.563185   0.000000
    14  H    3.531574   2.186130   1.113640   0.000000
    15  N    2.851697   2.387209   1.448869   2.151142   0.000000
    16  C    4.043887   3.589707   2.292901   2.684323   1.303167
    17  H    6.198451   5.431032   3.954829   3.750623   4.340795
    18  H    4.833844   4.293613   3.287893   3.457576   4.197932
    19  H    2.874863   3.420359   2.844721   3.873516   2.547537
    20  H    3.500205   3.968321   3.529633   4.417814   3.893288
    21  H    2.184001   3.532447   4.024264   5.093314   4.140957
    22  H    2.175347   2.880516   3.493343   4.357245   4.230598
    23  H    1.112209   2.198764   2.873480   3.858087   2.550506
    24  H    1.111631   2.190284   3.537318   4.357200   3.869856
    25  H    2.184095   1.111912   2.193716   2.496023   2.648099
    26  H    2.197833   1.108595   2.206506   2.519931   3.364779
    27  H    4.702186   4.443344   3.310944   3.702371   2.056204
                   16         17         18         19         20
    16  C    0.000000
    17  H    3.604039   0.000000
    18  H    4.125245   2.448243   0.000000
    19  H    2.810561   4.564314   3.640075   0.000000
    20  H    4.152369   4.529093   2.811542   1.794446   0.000000
    21  H    4.958343   6.639003   4.968648   2.506438   2.552000
    22  H    5.117242   6.071434   4.026689   3.113859   2.468935
    23  H    3.697343   6.413544   5.385420   2.740487   3.870937
    24  H    5.107112   7.225287   5.715589   3.895659   4.332667
    25  H    3.884704   6.089831   5.249389   4.237431   5.017074
    26  H    4.457524   5.645389   4.202633   4.108326   4.204972
    27  H    1.100718   4.345436   5.106759   3.323605   4.866740
                   21         22         23         24         25
    21  H    0.000000
    22  H    1.795885   0.000000
    23  H    2.458687   3.086058   0.000000
    24  H    2.544261   2.461456   1.787714   0.000000
    25  H    4.347169   3.879656   2.484071   2.523218   0.000000
    26  H    3.902455   2.744587   3.111512   2.493008   1.788426
    27  H    5.490966   5.933520   4.122397   5.726485   4.598289
                   26         27
    26  H    0.000000
    27  H    5.400554   0.000000
 Symmetry turned off by external request.
 Stoichiometry    C9H13N3O2
 Framework group  C1[X(C9H13N3O2)]
 Deg. of freedom    75
 Full point group                 C1      NOp   1
 Rotational constants (GHZ):           1.6289492           0.4157413           0.3747343
 Standard basis: 6-31G(d) (6D, 7F)
   236 basis functions,   444 primitive gaussians,   236 cartesian basis functions
    52 alpha electrons       52 beta electrons
       nuclear repulsion energy       924.8076124131 Hartrees.
 NAtoms=   27 NActive=   27 NUniq=   27 SFac= 1.00D+00 NAtFMM=   60 NAOKFM=F Big=F
 Integral buffers will be    131072 words long.
 Raffenetti 1 integral format.
 Two-electron integral symmetry is turned off.
 One-electron integrals computed using PRISM.
 NBasis=   236 RedAO= T EigKep=  1.34D-03  NBF=   236
 NBsUse=   236 1.00D-06 EigRej= -1.00D+00 NBFU=   236
 ExpMin= 1.61D-01 ExpMax= 5.48D+03 ExpMxC= 8.25D+02 IAcc=3 IRadAn=         5 AccDes= 0.00D+00
 Harris functional with IExCor=  205 and IRadAn=       5 diagonalized for initial guess.
 HarFok:  IExCor=  205 AccDes= 0.00D+00 IRadAn=         5 IDoV= 1 UseB2=F ITyADJ=14
 ICtDFT=  3500011 ScaDFX=  1.000000  1.000000  1.000000  1.000000
 FoFCou: FMM=F IPFlag=           0 FMFlag=      100000 FMFlg1=           0
         NFxFlg=           0 DoJE=T BraDBF=F KetDBF=T FulRan=T
         wScrn=  0.000000 ICntrl=       500 IOpCl=  0 I1Cent=   200000004 NGrid=           0
         NMat0=    1 NMatS0=      1 NMatT0=    0 NMatD0=    1 NMtDS0=    0 NMtDT0=    0
 Symmetry not used in FoFCou.
 Keep R1 ints in memory in canonical form, NReq=397720213.
 Requested convergence on RMS density matrix=1.00D-08 within 128 cycles.
 Requested convergence on MAX density matrix=1.00D-06.
 Requested convergence on             energy=1.00D-06.
 No special actions if energy rises.
 SCF Done:  E(RHF) =  -661.255600301     A.U. after   16 cycles
            NFock= 16  Conv=0.77D-08     -V/T= 2.0036
 ExpMin= 1.61D-01 ExpMax= 5.48D+03 ExpMxC= 8.25D+02 IAcc=3 IRadAn=         5 AccDes= 0.00D+00
 HarFok:  IExCor=  205 AccDes= 0.00D+00 IRadAn=         5 IDoV=-2 UseB2=F ITyADJ=14
 ICtDFT= 12500011 ScaDFX=  1.000000  1.000000  1.000000  1.000000
 Range of M.O.s used for correlation:    15   236
 NBasis=   236 NAE=    52 NBE=    52 NFC=    14 NFV=     0
 NROrb=    222 NOA=    38 NOB=    38 NVA=   184 NVB=   184
 Fully direct method using O(ONN) memory.
 JobTyp=1 Pass  1:  I=  15 to  52 NPSUse=  4 ParTrn=T ParDer=T DoDerP=T.
 Spin components of T(2) and E(2):
     alpha-alpha T2 =       0.9272551344D-01 E2=     -0.2730087752D+00
     alpha-beta  T2 =       0.5033830264D+00 E2=     -0.1498753762D+01
     beta-beta   T2 =       0.9272551344D-01 E2=     -0.2730087752D+00
 ANorm=    0.1299551482D+01
 E2 =    -0.2044771313D+01 EUMP2 =    -0.66330037161378D+03
          IDoAtm=111111111111111111111111111
          Differentiating once with respect to electric field.
                with respect to dipole field.
          Differentiating once with respect to nuclear coordinates.
 Keep R1 ints in memory in canonical form, NReq=397723379.
          There are     1 degrees of freedom in the 1st order CPHF.  IDoFFX=0 NUNeed=     1.
 LinEq1:  Iter=  0 NonCon=     1 RMS=4.65D-03 Max=1.13D-01 NDo=     1
 AX will form     1 AO Fock derivatives at one time.
 LinEq1:  Iter=  1 NonCon=     1 RMS=1.59D-03 Max=3.49D-02 NDo=     1
 LinEq1:  Iter=  2 NonCon=     1 RMS=6.52D-04 Max=1.79D-02 NDo=     1
 LinEq1:  Iter=  3 NonCon=     1 RMS=3.03D-04 Max=1.02D-02 NDo=     1
 LinEq1:  Iter=  4 NonCon=     1 RMS=9.65D-05 Max=2.62D-03 NDo=     1
 LinEq1:  Iter=  5 NonCon=     1 RMS=4.05D-05 Max=1.99D-03 NDo=     1
 LinEq1:  Iter=  6 NonCon=     1 RMS=1.69D-05 Max=6.09D-04 NDo=     1
 LinEq1:  Iter=  7 NonCon=     1 RMS=6.39D-06 Max=8.45D-05 NDo=     1
 LinEq1:  Iter=  8 NonCon=     1 RMS=2.57D-06 Max=6.09D-05 NDo=     1
 LinEq1:  Iter=  9 NonCon=     1 RMS=9.57D-07 Max=2.80D-05 NDo=     1
 LinEq1:  Iter= 10 NonCon=     1 RMS=4.64D-07 Max=1.50D-05 NDo=     1
 LinEq1:  Iter= 11 NonCon=     1 RMS=1.70D-07 Max=5.91D-06 NDo=     1
 LinEq1:  Iter= 12 NonCon=     1 RMS=6.07D-08 Max=9.59D-07 NDo=     1
 LinEq1:  Iter= 13 NonCon=     1 RMS=1.89D-08 Max=3.95D-07 NDo=     1
 LinEq1:  Iter= 14 NonCon=     1 RMS=6.29D-09 Max=1.84D-07 NDo=     1
 LinEq1:  Iter= 15 NonCon=     1 RMS=2.39D-09 Max=6.65D-08 NDo=     1
 LinEq1:  Iter= 16 NonCon=     1 RMS=8.57D-10 Max=1.68D-08 NDo=     1
 LinEq1:  Iter= 17 NonCon=     1 RMS=2.82D-10 Max=4.71D-09 NDo=     1
 LinEq1:  Iter= 18 NonCon=     1 RMS=1.00D-10 Max=1.47D-09 NDo=     1
 LinEq1:  Iter= 19 NonCon=     0 RMS=3.55D-11 Max=5.86D-10 NDo=     1
 Linear equations converged to 1.000D-10 1.000D-09 after    19 iterations.
 End of Minotr F.D. properties file   721 does not exist.
 End of Minotr F.D. properties file   722 does not exist.
 End of Minotr F.D. properties file   788 does not exist.

 **********************************************************************

            Population analysis using the SCF Density.

 **********************************************************************

 Alpha  occ. eigenvalues --  -20.59950 -20.59529 -15.85451 -15.63485 -15.57097
 Alpha  occ. eigenvalues --  -11.36083 -11.30918 -11.30760 -11.29478 -11.26948
 Alpha  occ. eigenvalues --  -11.24902 -11.24007 -11.22960 -11.22812  -1.58631
 Alpha  occ. eigenvalues --   -1.38108  -1.29133  -1.23400  -1.12750  -1.08184
 Alpha  occ. eigenvalues --   -1.01445  -1.00126  -0.93600  -0.88708  -0.84967
 Alpha  occ. eigenvalues --   -0.81322  -0.78093  -0.76897  -0.73899  -0.71243
 Alpha  occ. eigenvalues --   -0.70473  -0.69971  -0.67763  -0.64378  -0.63308
 Alpha  occ. eigenvalues --   -0.61207  -0.59407  -0.57247  -0.56237  -0.54400
 Alpha  occ. eigenvalues --   -0.53782  -0.50443  -0.48916  -0.48464  -0.47881
 Alpha  occ. eigenvalues --   -0.47600  -0.45886  -0.44681  -0.44074  -0.42369
 Alpha  occ. eigenvalues --   -0.40690  -0.34157
 Alpha virt. eigenvalues --    0.06975   0.11362   0.17830   0.21806   0.23147
 Alpha virt. eigenvalues --    0.24448   0.26310   0.27234   0.28466   0.28975
 Alpha virt. eigenvalues --    0.29672   0.31474   0.31581   0.32508   0.33489
 Alpha virt. eigenvalues --    0.33848   0.34803   0.35079   0.36857   0.38336
 Alpha virt. eigenvalues --    0.40997   0.42039   0.44470   0.45101   0.45499
 Alpha virt. eigenvalues --    0.46346   0.50270   0.53509   0.57477   0.58996
 Alpha virt. eigenvalues --    0.62841   0.68354   0.70965   0.73218   0.74627
 Alpha virt. eigenvalues --    0.74916   0.76341   0.76965   0.79008   0.79778
 Alpha virt. eigenvalues --    0.81021   0.81488   0.84910   0.87563   0.88223
 Alpha virt. eigenvalues --    0.89166   0.89741   0.90627   0.91748   0.94227
 Alpha virt. eigenvalues --    0.95431   0.96256   0.98307   1.00847   1.02255
 Alpha virt. eigenvalues --    1.03563   1.05096   1.06563   1.07351   1.07826
 Alpha virt. eigenvalues --    1.09579   1.10949   1.11078   1.12085   1.13430
 Alpha virt. eigenvalues --    1.14238   1.14749   1.15371   1.16287   1.17333
 Alpha virt. eigenvalues --    1.19016   1.19336   1.20281   1.20839   1.22386
 Alpha virt. eigenvalues --    1.22828   1.24013   1.24968   1.26457   1.27570
 Alpha virt. eigenvalues --    1.29524   1.29933   1.32053   1.35881   1.38877
 Alpha virt. eigenvalues --    1.43287   1.47707   1.47899   1.48490   1.53107
 Alpha virt. eigenvalues --    1.56181   1.58605   1.59583   1.62296   1.63777
 Alpha virt. eigenvalues --    1.67834   1.69180   1.72524   1.75196   1.78098
 Alpha virt. eigenvalues --    1.80401   1.83478   1.86831   1.88292   1.91886
 Alpha virt. eigenvalues --    1.93184   1.95473   1.96012   1.97923   2.01686
 Alpha virt. eigenvalues --    2.03635   2.05114   2.06785   2.09685   2.11565
 Alpha virt. eigenvalues --    2.12032   2.13880   2.17539   2.18212   2.19249
 Alpha virt. eigenvalues --    2.20688   2.21727   2.25144   2.26384   2.27943
 Alpha virt. eigenvalues --    2.30329   2.31789   2.33045   2.35005   2.36288
 Alpha virt. eigenvalues --    2.39235   2.42285   2.42842   2.44999   2.46984
 Alpha virt. eigenvalues --    2.48102   2.49894   2.54745   2.56502   2.58759
 Alpha virt. eigenvalues --    2.62293   2.64226   2.65724   2.68216   2.68803
 Alpha virt. eigenvalues --    2.70033   2.72486   2.75633   2.76454   2.80666
 Alpha virt. eigenvalues --    2.83604   2.87311   2.89095   2.91857   2.94984
 Alpha virt. eigenvalues --    2.97878   2.98654   3.01696   3.02826   3.05176
 Alpha virt. eigenvalues --    3.06513   3.13549   3.18657   3.22248   3.25729
 Alpha virt. eigenvalues --    3.29324   3.33059   3.35863   3.42275   3.55927
 Alpha virt. eigenvalues --    4.10376   4.22656   4.35079   4.36262   4.44753
 Alpha virt. eigenvalues --    4.51994   4.59409   4.59988   4.71625   4.78510
 Alpha virt. eigenvalues --    4.94222   5.00497   5.03952   5.12410
          Condensed to atoms (all electrons):
               1          2          3          4          5          6
     1  O    8.299102   0.312997  -0.090097  -0.078562   0.003394  -0.000012
     2  N    0.312997   5.674334   0.310416   0.270576  -0.046520   0.000859
     3  O   -0.090097   0.310416   8.329616  -0.086775   0.007521   0.000453
     4  C   -0.078562   0.270576  -0.086775   5.232876   0.563899  -0.048336
     5  C    0.003394  -0.046520   0.007521   0.563899   4.706344   0.301527
     6  N   -0.000012   0.000859   0.000453  -0.048336   0.301527   7.167335
     7  C    0.000004  -0.000153   0.000001   0.006378  -0.042678   0.202788
     8  H   -0.000000   0.000002  -0.000000  -0.000443   0.005035  -0.062441
     9  C   -0.000000  -0.000009  -0.000000   0.001267   0.000517  -0.033129
    10  C   -0.000000   0.000000  -0.000000  -0.000024  -0.000070   0.002806
    11  C   -0.000000  -0.000000  -0.000000  -0.000019   0.000003   0.000034
    12  C   -0.000000   0.000001  -0.000000  -0.000085  -0.000109   0.005751
    13  C   -0.000034  -0.000039  -0.000003  -0.011777  -0.003494  -0.066008
    14  H   -0.000002  -0.000041   0.000000   0.003311   0.004789  -0.006956
    15  N    0.000195   0.001337  -0.000011  -0.060593  -0.001494   0.001035
    16  C    0.002616  -0.026498   0.001844   0.319678  -0.035291   0.000096
    17  H    0.000132  -0.004004   0.011586  -0.024690   0.376048  -0.031698
    18  H    0.000000  -0.000036   0.000008   0.001267  -0.022957   0.327438
    19  H    0.000001  -0.000002   0.000000  -0.001133   0.000795   0.000422
    20  H    0.000000  -0.000000   0.000000  -0.000052  -0.000009  -0.001252
    21  H   -0.000000  -0.000000  -0.000000   0.000000   0.000002  -0.000044
    22  H   -0.000000   0.000000  -0.000000  -0.000001  -0.000004  -0.000125
    23  H    0.000000  -0.000000   0.000000   0.000025  -0.000000  -0.000027
    24  H    0.000000   0.000000   0.000000   0.000000  -0.000000   0.000005
    25  H   -0.000000  -0.000000   0.000000   0.000019  -0.000002  -0.000140
    26  H    0.000000  -0.000000   0.000000   0.000003  -0.000010  -0.000100
    27  H    0.005254  -0.000549   0.000008  -0.059422   0.001887   0.000004
               7          8          9         10         11         12
     1  O    0.000004  -0.000000  -0.000000  -0.000000  -0.000000  -0.000000
     2  N   -0.000153   0.000002  -0.000009   0.000000  -0.000000   0.000001
     3  O    0.000001  -0.000000  -0.000000  -0.000000  -0.000000  -0.000000
     4  C    0.006378  -0.000443   0.001267  -0.000024  -0.000019  -0.000085
     5  C   -0.042678   0.005035   0.000517  -0.000070   0.000003  -0.000109
     6  N    0.202788  -0.062441  -0.033129   0.002806   0.000034   0.005751
     7  C    5.109790   0.434679   0.322012  -0.052059  -0.007337  -0.071847
     8  H    0.434679   0.566070  -0.064919  -0.002449  -0.001666  -0.009098
     9  C    0.322012  -0.064919   5.166707   0.318817  -0.053236  -0.005327
    10  C   -0.052059  -0.002449   0.318817   5.132076   0.330993  -0.057654
    11  C   -0.007337  -0.001666  -0.053236   0.330993   5.123545   0.335630
    12  C   -0.071847  -0.009098  -0.005327  -0.057654   0.335630   5.142662
    13  C    0.312696  -0.047961  -0.044705  -0.000978  -0.044838   0.371169
    14  H   -0.037423   0.000926   0.002342  -0.000336   0.003412  -0.036064
    15  N   -0.065919   0.004694  -0.016401   0.001479  -0.012840  -0.086558
    16  C   -0.009046   0.000284  -0.003323   0.000023  -0.000053   0.004968
    17  H    0.001821  -0.000063  -0.000045   0.000001   0.000000   0.000001
    18  H   -0.030929  -0.004309   0.000968  -0.000118   0.000018  -0.000249
    19  H   -0.036279   0.004228   0.388434  -0.030714  -0.002260   0.000477
    20  H   -0.043319  -0.000851   0.397444  -0.038002   0.004038  -0.000382
    21  H    0.004857   0.000189  -0.037875   0.399886  -0.034615   0.003873
    22  H   -0.006883   0.003844  -0.042614   0.397141  -0.045109  -0.000499
    23  H   -0.000403   0.000080  -0.001059  -0.039317   0.396270  -0.034443
    24  H   -0.000214  -0.000278   0.004559  -0.038551   0.399124  -0.037657
    25  H    0.006055   0.000367  -0.000448   0.003919  -0.034184   0.393736
    26  H   -0.007834   0.000747   0.001612  -0.001562  -0.040623   0.395910
    27  H   -0.000501   0.000012  -0.000088   0.000007   0.000009  -0.000074
              13         14         15         16         17         18
     1  O   -0.000034  -0.000002   0.000195   0.002616   0.000132   0.000000
     2  N   -0.000039  -0.000041   0.001337  -0.026498  -0.004004  -0.000036
     3  O   -0.000003   0.000000  -0.000011   0.001844   0.011586   0.000008
     4  C   -0.011777   0.003311  -0.060593   0.319678  -0.024690   0.001267
     5  C   -0.003494   0.004789  -0.001494  -0.035291   0.376048  -0.022957
     6  N   -0.066008  -0.006956   0.001035   0.000096  -0.031698   0.327438
     7  C    0.312696  -0.037423  -0.065919  -0.009046   0.001821  -0.030929
     8  H   -0.047961   0.000926   0.004694   0.000284  -0.000063  -0.004309
     9  C   -0.044705   0.002342  -0.016401  -0.003323  -0.000045   0.000968
    10  C   -0.000978  -0.000336   0.001479   0.000023   0.000001  -0.000118
    11  C   -0.044838   0.003412  -0.012840  -0.000053   0.000000   0.000018
    12  C    0.371169  -0.036064  -0.086558   0.004968   0.000001  -0.000249
    13  C    5.084310   0.403933   0.239134  -0.083120  -0.000060   0.005190
    14  H    0.403933   0.491061  -0.030102  -0.006402   0.000060   0.000149
    15  N    0.239134  -0.030102   6.941782   0.574689  -0.000052  -0.000150
    16  C   -0.083120  -0.006402   0.574689   4.743670   0.001277  -0.000252
    17  H   -0.000060   0.000060  -0.000052   0.001277   0.381024  -0.001969
    18  H    0.005190   0.000149  -0.000150  -0.000252  -0.001969   0.326547
    19  H   -0.004538   0.000070   0.006027   0.003388   0.000003  -0.000102
    20  H    0.003515  -0.000023   0.000270  -0.000017  -0.000004   0.001757
    21  H   -0.000444   0.000006  -0.000023   0.000006  -0.000000   0.000000
    22  H    0.000569  -0.000028  -0.000028  -0.000005  -0.000000   0.000008
    23  H   -0.004536   0.000000   0.005921  -0.000038   0.000000   0.000000
    24  H    0.004003  -0.000047   0.000172   0.000009   0.000000  -0.000000
    25  H   -0.036523  -0.002425   0.000514  -0.000171  -0.000000   0.000004
    26  H   -0.044396  -0.000370   0.004630  -0.000117   0.000000   0.000001
    27  H    0.005918  -0.000149  -0.038860   0.399137  -0.000059   0.000001
              19         20         21         22         23         24
     1  O    0.000001   0.000000  -0.000000  -0.000000   0.000000   0.000000
     2  N   -0.000002  -0.000000  -0.000000   0.000000  -0.000000   0.000000
     3  O    0.000000   0.000000  -0.000000  -0.000000   0.000000   0.000000
     4  C   -0.001133  -0.000052   0.000000  -0.000001   0.000025   0.000000
     5  C    0.000795  -0.000009   0.000002  -0.000004  -0.000000  -0.000000
     6  N    0.000422  -0.001252  -0.000044  -0.000125  -0.000027   0.000005
     7  C   -0.036279  -0.043319   0.004857  -0.006883  -0.000403  -0.000214
     8  H    0.004228  -0.000851   0.000189   0.003844   0.000080  -0.000278
     9  C    0.388434   0.397444  -0.037875  -0.042614  -0.001059   0.004559
    10  C   -0.030714  -0.038002   0.399886   0.397141  -0.039317  -0.038551
    11  C   -0.002260   0.004038  -0.034615  -0.045109   0.396270   0.399124
    12  C    0.000477  -0.000382   0.003873  -0.000499  -0.034443  -0.037657
    13  C   -0.004538   0.003515  -0.000444   0.000569  -0.004536   0.004003
    14  H    0.000070  -0.000023   0.000006  -0.000028   0.000000  -0.000047
    15  N    0.006027   0.000270  -0.000023  -0.000028   0.005921   0.000172
    16  C    0.003388  -0.000017   0.000006  -0.000005  -0.000038   0.000009
    17  H    0.000003  -0.000004  -0.000000  -0.000000   0.000000   0.000000
    18  H   -0.000102   0.001757   0.000000   0.000008   0.000000  -0.000000
    19  H    0.496970  -0.022945  -0.002061   0.003342   0.001315  -0.000079
    20  H   -0.022945   0.544129  -0.002318  -0.002860  -0.000043  -0.000090
    21  H   -0.002061  -0.002318   0.524515  -0.024722  -0.002798  -0.001995
    22  H    0.003342  -0.002860  -0.024722   0.563083   0.003936  -0.003835
    23  H    0.001315  -0.000043  -0.002798   0.003936   0.505342  -0.026149
    24  H   -0.000079  -0.000090  -0.001995  -0.003835  -0.026149   0.545063
    25  H   -0.000004   0.000011  -0.000081  -0.000069  -0.002091  -0.002299
    26  H   -0.000004  -0.000028  -0.000069   0.001837   0.003512  -0.002867
    27  H    0.000155   0.000000  -0.000000   0.000000  -0.000015  -0.000000
              25         26         27
     1  O   -0.000000   0.000000   0.005254
     2  N   -0.000000  -0.000000  -0.000549
     3  O    0.000000   0.000000   0.000008
     4  C    0.000019   0.000003  -0.059422
     5  C   -0.000002  -0.000010   0.001887
     6  N   -0.000140  -0.000100   0.000004
     7  C    0.006055  -0.007834  -0.000501
     8  H    0.000367   0.000747   0.000012
     9  C   -0.000448   0.001612  -0.000088
    10  C    0.003919  -0.001562   0.000007
    11  C   -0.034184  -0.040623   0.000009
    12  C    0.393736   0.395910  -0.000074
    13  C   -0.036523  -0.044396   0.005918
    14  H   -0.002425  -0.000370  -0.000149
    15  N    0.000514   0.004630  -0.038860
    16  C   -0.000171  -0.000117   0.399137
    17  H   -0.000000   0.000000  -0.000059
    18  H    0.000004   0.000001   0.000001
    19  H   -0.000004  -0.000004   0.000155
    20  H    0.000011  -0.000028   0.000000
    21  H   -0.000081  -0.000069  -0.000000
    22  H   -0.000069   0.001837   0.000000
    23  H   -0.002091   0.003512  -0.000015
    24  H   -0.002299  -0.002867  -0.000000
    25  H    0.523057  -0.024123  -0.000004
    26  H   -0.024123   0.563727   0.000001
    27  H   -0.000004   0.000001   0.444567
 Mulliken charges:
               1
     1  O   -0.454986
     2  N    0.507328
     3  O   -0.484568
     4  C   -0.027389
     5  C    0.180877
     6  N   -0.760286
     7  C    0.011745
     8  H    0.173322
     9  C   -0.301499
    10  C   -0.325313
    11  C   -0.316298
    12  C   -0.314130
    13  C   -0.036982
    14  H    0.210308
    15  N   -0.468846
    16  C    0.112648
    17  H    0.290689
    18  H    0.397714
    19  H    0.194495
    20  H    0.161032
    21  H    0.173710
    22  H    0.153020
    23  H    0.194517
    24  H    0.161126
    25  H    0.174885
    26  H    0.150122
    27  H    0.242762
 Sum of Mulliken charges =  -0.00000
 Mulliken charges with hydrogens summed into heavy atoms:
               1
     1  O   -0.454986
     2  N    0.507328
     3  O   -0.484568
     4  C   -0.027389
     5  C    0.471566
     6  N   -0.362572
     7  C    0.185067
     9  C    0.054027
    10  C    0.001416
    11  C    0.039345
    12  C    0.010877
    13  C    0.173326
    15  N   -0.468846
    16  C    0.355410
 Electronic spatial extent (au):  <R**2>=           3016.7119
 Charge=             -0.0000 electrons
 Dipole moment (field-independent basis, Debye):
    X=              5.0461    Y=              4.5213    Z=              0.8424  Tot=              6.8275
 Quadrupole moment (field-independent basis, Debye-Ang):
   XX=           -105.0815   YY=            -80.3872   ZZ=            -82.1594
   XY=             -0.8817   XZ=             -1.7571   YZ=              0.9252
 Traceless Quadrupole moment (field-independent basis, Debye-Ang):
   XX=            -15.8722   YY=              8.8222   ZZ=              7.0500
   XY=             -0.8817   XZ=             -1.7571   YZ=              0.9252
 Octapole moment (field-independent basis, Debye-Ang**2):
  XXX=             87.8644  YYY=             36.4626  ZZZ=             -3.4405  XYY=             -3.5343
  XXY=             10.0058  XXZ=              8.2482  XZZ=             -9.9213  YZZ=             -2.8851
  YYZ=              6.0729  XYZ=             -0.1947
 Hexadecapole moment (field-independent basis, Debye-Ang**3):
 XXXX=          -3351.5909 YYYY=           -591.6874 ZZZZ=           -348.8881 XXXY=             -4.4083
 XXXZ=            -42.0941 YYYX=              7.4609 YYYZ=              7.0094 ZZZX=            -11.6391
 ZZZY=             -9.4490 XXYY=           -622.4799 XXZZ=           -529.9478 YYZZ=           -164.5723
 XXYZ=             -6.1536 YYXZ=             -6.0163 ZZXY=              6.0626
 N-N= 9.248076124131D+02 E-N=-3.395624695353D+03  KE= 6.588626112800D+02
 Calling FoFJK, ICntrl=  10002127 FMM=F ISym2X=0 I1Cent= 0 IOpClX= 0 NMat=1 NMatS=1 NMatT=0.
 -------------------------------------------------------------------
 Center     Atomic                   Forces (Hartrees/Bohr)
 Number     Number              X              Y              Z
 -------------------------------------------------------------------
      1        8           0.002289723   -0.019280369   -0.003811957
      2        7           0.037895116    0.012466255    0.001178502
      3        8          -0.004637896    0.015122160    0.005201204
      4        6           0.006901908    0.012907812    0.008977975
      5        6          -0.001430966   -0.019213613   -0.013159925
      6        7           0.001367531   -0.012570149   -0.034177371
      7        6           0.009864486    0.025918110    0.043100978
      8        1          -0.013529308   -0.005128897   -0.009627217
      9        6          -0.009550787    0.004816303    0.000189411
     10        6           0.001344680   -0.005820322   -0.002062085
     11        6          -0.001398042   -0.002230113    0.001879512
     12        6           0.003045102   -0.014150204    0.000933195
     13        6           0.052312350   -0.015752605   -0.002493654
     14        1          -0.000787859    0.007053167   -0.013342966
     15        7          -0.033161264    0.007493896   -0.002785116
     16        6          -0.024123710    0.003606169    0.003587333
     17        1           0.006660463   -0.008047046   -0.003453720
     18        1          -0.018489466   -0.001595472    0.004077748
     19        1           0.003908141    0.004952740    0.006344953
     20        1          -0.002724211   -0.007217960    0.003329134
     21        1          -0.004034619    0.002321643    0.009178750
     22        1          -0.005362026   -0.004100989   -0.006771480
     23        1           0.002327507    0.007538669    0.009283451
     24        1          -0.009123382    0.002231948   -0.001812687
     25        1           0.000291997    0.008901525   -0.003407814
     26        1          -0.003914180   -0.004493343   -0.004003176
     27        1           0.004058711    0.004270686    0.003647021
 -------------------------------------------------------------------
 Cartesian Forces:  Max     0.052312350 RMS     0.013139360

 GradGradGradGradGradGradGradGradGradGradGradGradGradGradGradGradGradGrad
 Berny optimization.
 FormGI is forming the generalized inverse of G from B-inverse, IUseBI=4.
 Internal  Forces:  Max     0.041765068 RMS     0.008199314
 Search for a local minimum.
 Step number   1 out of a maximum of  100
 All quantities printed in internal units (Hartrees-Bohrs-Radians)
 Mixed Optimization -- RFO/linear search
 Second derivative matrix not updated -- first step.
 ITU=  0
     Eigenvalues ---    0.00233   0.00764   0.00899   0.01087   0.01165
     Eigenvalues ---    0.01308   0.01588   0.01647   0.01872   0.01929
     Eigenvalues ---    0.01936   0.02718   0.03374   0.04271   0.04575
     Eigenvalues ---    0.04837   0.05137   0.05181   0.05395   0.05825
     Eigenvalues ---    0.06262   0.06878   0.07128   0.07455   0.07968
     Eigenvalues ---    0.08092   0.08219   0.08313   0.10323   0.11544
     Eigenvalues ---    0.12129   0.12603   0.14327   0.14931   0.15992
     Eigenvalues ---    0.15998   0.20220   0.22414   0.23191   0.24891
     Eigenvalues ---    0.24994   0.25000   0.25000   0.26053   0.26102
     Eigenvalues ---    0.27370   0.27648   0.28192   0.29500   0.30111
     Eigenvalues ---    0.30375   0.32218   0.32367   0.32379   0.32398
     Eigenvalues ---    0.32410   0.32428   0.32566   0.32749   0.32915
     Eigenvalues ---    0.33304   0.33381   0.33603   0.37317   0.41832
     Eigenvalues ---    0.43815   0.48434   0.64387   0.90407   0.91229
     Eigenvalues --- 1000.000001000.000001000.000001000.000001000.00000
     Eigenvalues --- 1000.000001000.000001000.000001000.000001000.00000
     Eigenvalues --- 1000.000001000.000001000.000001000.000001000.00000
     Eigenvalues --- 1000.000001000.000001000.000001000.000001000.00000
     Eigenvalues --- 1000.000001000.000001000.000001000.000001000.00000
     Eigenvalues --- 1000.000001000.000001000.000001000.000001000.00000
     Eigenvalues --- 1000.000001000.000001000.000001000.000001000.00000
     Eigenvalues --- 1000.000001000.000001000.000001000.000001000.00000
     Eigenvalues --- 1000.000001000.000001000.000001000.000001000.00000
     Eigenvalues --- 1000.000001000.000001000.000001000.000001000.00000
     Eigenvalues --- 1000.000001000.000001000.000001000.000001000.00000
     Eigenvalues --- 1000.000001000.000001000.000001000.000001000.00000
     Eigenvalues --- 1000.000001000.000001000.000001000.000001000.00000
     Eigenvalues --- 1000.000001000.000001000.000001000.000001000.00000
     Eigenvalues --- 1000.000001000.000001000.000001000.000001000.00000
     Eigenvalues --- 1000.000001000.000001000.000001000.000001000.00000
     Eigenvalues --- 1000.000001000.000001000.000001000.000001000.00000
     Eigenvalues --- 1000.000001000.000001000.000001000.000001000.00000
     Eigenvalues --- 1000.00000
 RFO step:  Lambda=-2.98650648D-02 EMin= 2.32863620D-03
 Linear search not attempted -- first point.
 Maximum step size (   0.300) exceeded in Quadratic search.
    -- Step size scaled by   0.984
 Iteration  1 RMS(Cart)=  0.06981782 RMS(Int)=  0.00127467
 Iteration  2 RMS(Cart)=  0.00151483 RMS(Int)=  0.00034134
 Iteration  3 RMS(Cart)=  0.00000102 RMS(Int)=  0.00034134
 Iteration  4 RMS(Cart)=  0.00000000 RMS(Int)=  0.00034134
 Iteration  1 RMS(Cart)=  0.00003918 RMS(Int)=  0.00004484
 Iteration  2 RMS(Cart)=  0.00002907 RMS(Int)=  0.00004787
 Iteration  3 RMS(Cart)=  0.00002337 RMS(Int)=  0.00005364
 Iteration  4 RMS(Cart)=  0.00001959 RMS(Int)=  0.00005988
 Iteration  5 RMS(Cart)=  0.00001676 RMS(Int)=  0.00006589
 Iteration  6 RMS(Cart)=  0.00001448 RMS(Int)=  0.00007145
 Iteration  7 RMS(Cart)=  0.00001257 RMS(Int)=  0.00007652
 Iteration  8 RMS(Cart)=  0.00001094 RMS(Int)=  0.00008108
 Iteration  9 RMS(Cart)=  0.00000954 RMS(Int)=  0.00008516
 Iteration 10 RMS(Cart)=  0.00000832 RMS(Int)=  0.00008881
 Iteration 11 RMS(Cart)=  0.00000727 RMS(Int)=  0.00009204
 Iteration 12 RMS(Cart)=  0.00000635 RMS(Int)=  0.00009492
 Iteration 13 RMS(Cart)=  0.00000556 RMS(Int)=  0.00009746
 Iteration 14 RMS(Cart)=  0.00000486 RMS(Int)=  0.00009971
 Iteration 15 RMS(Cart)=  0.00000425 RMS(Int)=  0.00010169
 Iteration 16 RMS(Cart)=  0.00000373 RMS(Int)=  0.00010345
 Iteration 17 RMS(Cart)=  0.00000326 RMS(Int)=  0.00010499
 Iteration 18 RMS(Cart)=  0.00000286 RMS(Int)=  0.00010636
 Iteration 19 RMS(Cart)=  0.00000251 RMS(Int)=  0.00010756
 Iteration 20 RMS(Cart)=  0.00000220 RMS(Int)=  0.00010861
 Iteration 21 RMS(Cart)=  0.00000193 RMS(Int)=  0.00010955
 Iteration 22 RMS(Cart)=  0.00000169 RMS(Int)=  0.00011037
 Iteration 23 RMS(Cart)=  0.00000149 RMS(Int)=  0.00011109
 Iteration 24 RMS(Cart)=  0.00000131 RMS(Int)=  0.00011172
 Iteration 25 RMS(Cart)=  0.00000115 RMS(Int)=  0.00011228
 Iteration 26 RMS(Cart)=  0.00000101 RMS(Int)=  0.00011277
 Iteration 27 RMS(Cart)=  0.00000089 RMS(Int)=  0.00011321
 Variable       Old X    -DE/DX   Delta X   Delta X   Delta X     New X
                                 (Linear)    (Quad)   (Total)
    R1        2.32372   0.01809   0.00000   0.01890   0.01890   2.34261
    R2        2.32746   0.01516   0.00000   0.01597   0.01597   2.34343
    R3        2.88973  -0.03652   0.00000  -0.11063  -0.11063   2.77910
    R4        2.67776  -0.04177   0.00000  -0.08787  -0.08768   2.59008
    R5        2.86312  -0.02871   0.00000  -0.07869  -0.07849   2.78463
    R6        2.60146  -0.02153   0.00000  -0.04148  -0.04145   2.56001
    R7        2.08388  -0.01083   0.00000  -0.02930  -0.02930   2.05458
    R8        2.80599  -0.01356   0.00000  -0.04072  -0.04088   2.76510
    R9        1.93376  -0.00629   0.00000  -0.01323  -0.01323   1.92053
   R10        2.13921  -0.01720   0.00000  -0.05073  -0.05073   2.08848
   R11        2.92761  -0.01580   0.00000  -0.05270  -0.05244   2.87517
   R12        2.88615   0.00146   0.00000   0.00958   0.00949   2.89564
   R13        2.91956  -0.00399   0.00000  -0.01234  -0.01252   2.90704
   R14        2.09200  -0.00892   0.00000  -0.02445  -0.02445   2.06755
   R15        2.09820  -0.00801   0.00000  -0.02216  -0.02216   2.07604
   R16        2.91664  -0.00056   0.00000  -0.00555  -0.00567   2.91097
   R17        2.10100  -0.01015   0.00000  -0.02823  -0.02823   2.07277
   R18        2.10156  -0.00917   0.00000  -0.02553  -0.02553   2.07604
   R19        2.94420  -0.01301   0.00000  -0.04094  -0.04116   2.90305
   R20        2.10177  -0.01186   0.00000  -0.03300  -0.03300   2.06877
   R21        2.10068  -0.00956   0.00000  -0.02656  -0.02656   2.07412
   R22        2.95399  -0.00818   0.00000  -0.02787  -0.02767   2.92632
   R23        2.10121  -0.00953   0.00000  -0.02650  -0.02650   2.07471
   R24        2.09494  -0.00708   0.00000  -0.01951  -0.01951   2.07544
   R25        2.10447  -0.01141   0.00000  -0.03190  -0.03190   2.07258
   R26        2.73797   0.00931   0.00000   0.01956   0.01940   2.75737
   R27        2.46263  -0.00853   0.00000  -0.01100  -0.01093   2.45170
   R28        2.08006  -0.00680   0.00000  -0.01828  -0.01828   2.06178
    A1        2.15637   0.01130   0.00000   0.04014   0.03962   2.19599
    A2        2.05375  -0.00723   0.00000  -0.02500  -0.02553   2.02822
    A3        2.07270  -0.00400   0.00000  -0.01364  -0.01416   2.05854
    A4        2.01579  -0.00889   0.00000  -0.03282  -0.03312   1.98267
    A5        2.01955  -0.00662   0.00000  -0.02461  -0.02490   1.99464
    A6        2.24752   0.01548   0.00000   0.05726   0.05784   2.30536
    A7        2.19166   0.00653   0.00000   0.01847   0.01885   2.21051
    A8        2.06904  -0.00517   0.00000  -0.01944  -0.01966   2.04938
    A9        2.02206  -0.00139   0.00000   0.00067   0.00048   2.02254
   A10        2.11279  -0.00493   0.00000  -0.04074  -0.04063   2.07215
   A11        2.13169  -0.01290   0.00000  -0.06953  -0.06899   2.06270
   A12        1.90268   0.01879   0.00000   0.10900   0.10873   2.01141
   A13        1.74936   0.00551   0.00000  -0.00151  -0.00126   1.74810
   A14        2.19151  -0.01260   0.00000  -0.02472  -0.02549   2.16601
   A15        1.87050   0.01166   0.00000   0.02013   0.01897   1.88947
   A16        1.77898   0.00352   0.00000   0.03102   0.03121   1.81019
   A17        1.82309   0.00164   0.00000   0.01820   0.01804   1.84112
   A18        1.99345  -0.00626   0.00000  -0.02824  -0.02741   1.96604
   A19        1.84452   0.00020   0.00000  -0.01636  -0.01679   1.82774
   A20        1.96196   0.00028   0.00000  -0.00344  -0.00345   1.95850
   A21        1.92061  -0.00181   0.00000  -0.00330  -0.00306   1.91755
   A22        1.94349  -0.00338   0.00000  -0.00496  -0.00512   1.93837
   A23        1.90713   0.00499   0.00000   0.02947   0.02969   1.93682
   A24        1.88582  -0.00012   0.00000  -0.00038  -0.00051   1.88531
   A25        1.93818   0.00053   0.00000   0.01862   0.01832   1.95650
   A26        1.91521  -0.00069   0.00000  -0.00744  -0.00742   1.90779
   A27        1.91549  -0.00107   0.00000  -0.01366  -0.01380   1.90169
   A28        1.91299  -0.00027   0.00000  -0.00069  -0.00056   1.91243
   A29        1.90105   0.00211   0.00000   0.01206   0.01221   1.91326
   A30        1.87993  -0.00063   0.00000  -0.00964  -0.00981   1.87012
   A31        1.96252   0.00389   0.00000   0.01857   0.01942   1.98194
   A32        1.90146  -0.00108   0.00000  -0.00067  -0.00075   1.90071
   A33        1.91024   0.00034   0.00000   0.00490   0.00457   1.91481
   A34        1.91521  -0.00253   0.00000  -0.02226  -0.02254   1.89267
   A35        1.90440  -0.00168   0.00000  -0.00403  -0.00444   1.89996
   A36        1.86760   0.00093   0.00000   0.00280   0.00283   1.87043
   A37        1.94994  -0.00833   0.00000  -0.04766  -0.04812   1.90182
   A38        1.89586   0.00302   0.00000   0.01131   0.01124   1.90710
   A39        1.91759   0.00269   0.00000   0.01860   0.01876   1.93635
   A40        1.90263   0.00394   0.00000   0.01739   0.01756   1.92019
   A41        1.92316   0.00054   0.00000   0.00231   0.00254   1.92570
   A42        1.87274  -0.00154   0.00000   0.00013  -0.00019   1.87255
   A43        1.78438   0.00933   0.00000   0.04334   0.04358   1.82796
   A44        2.02166  -0.00846   0.00000  -0.04629  -0.04743   1.97423
   A45        1.93468  -0.00275   0.00000  -0.00694  -0.00709   1.92758
   A46        1.89086   0.00198   0.00000   0.03686   0.03758   1.92844
   A47        1.82885   0.00773   0.00000  -0.02573  -0.02554   1.80332
   A48        1.98136  -0.00422   0.00000   0.00685   0.00648   1.98784
   A49        1.96775   0.00471   0.00000  -0.00895  -0.00945   1.95830
   A50        2.25642  -0.00457   0.00000  -0.02696  -0.02722   2.22920
   A51        1.97768   0.00341   0.00000   0.01938   0.01910   1.99678
   A52        2.04820   0.00135   0.00000   0.00929   0.00901   2.05721
    D1       -3.02261   0.00022   0.00000  -0.00539  -0.00496  -3.02756
    D2        0.14417   0.00123   0.00000   0.00000  -0.00000   0.14417
    D3        0.14726  -0.00248   0.00000  -0.06315  -0.06293   0.08433
    D4       -2.96915  -0.00147   0.00000  -0.05776  -0.05797  -3.02712
    D5        3.10460  -0.00209   0.00000  -0.00762  -0.00738   3.09722
    D6       -0.00412  -0.00060   0.00000   0.00348   0.00375  -0.00037
    D7       -0.06609  -0.00371   0.00000  -0.01554  -0.01530  -0.08139
    D8        3.10837  -0.00223   0.00000  -0.00444  -0.00417   3.10420
    D9       -2.69346  -0.00399   0.00000  -0.02636  -0.02619  -2.71965
   D10        0.40074   0.00126   0.00000   0.01905   0.01888   0.41962
   D11        0.47729  -0.00234   0.00000  -0.01832  -0.01813   0.45916
   D12       -2.71170   0.00292   0.00000   0.02709   0.02694  -2.68476
   D13        0.13022  -0.00332   0.00000   0.00570   0.00582   0.13604
   D14        2.67550   0.00463   0.00000   0.03803   0.03872   2.71422
   D15       -3.04346  -0.00484   0.00000  -0.00549  -0.00550  -3.04896
   D16       -0.49819   0.00311   0.00000   0.02684   0.02740  -0.47078
   D17       -2.82929  -0.00179   0.00000  -0.02445  -0.02479  -2.85408
   D18        1.48548  -0.00490   0.00000  -0.05203  -0.05209   1.43339
   D19       -0.93143   0.00557   0.00000   0.00070   0.00017  -0.93126
   D20        0.83937  -0.00012   0.00000  -0.00489  -0.00447   0.83490
   D21       -1.12905  -0.00322   0.00000  -0.03247  -0.03177  -1.16082
   D22        2.73723   0.00725   0.00000   0.02027   0.02050   2.75772
   D23        2.74229   0.00831   0.00000   0.04897   0.04857   2.79087
   D24       -1.41750   0.00445   0.00000   0.03010   0.02958  -1.38792
   D25        0.68524   0.00323   0.00000   0.02504   0.02456   0.70980
   D26        0.78797   0.00445   0.00000   0.03718   0.03741   0.82537
   D27        2.91136   0.00059   0.00000   0.01831   0.01842   2.92977
   D28       -1.26908  -0.00063   0.00000   0.01325   0.01339  -1.25569
   D29       -1.16697   0.00309   0.00000   0.00974   0.01038  -1.15659
   D30        0.95643  -0.00077   0.00000  -0.00912  -0.00861   0.94781
   D31        3.05917  -0.00199   0.00000  -0.01418  -0.01364   3.04553
   D32       -2.59674  -0.00964   0.00000  -0.01050  -0.01041  -2.60716
   D33       -0.54493  -0.00528   0.00000   0.03992   0.03890  -0.50602
   D34        1.74520  -0.02196   0.00000   0.00000   0.00000   1.74520
   D35       -0.75085   0.00124   0.00000   0.00215   0.00261  -0.74824
   D36        1.30096   0.00559   0.00000   0.05257   0.05193   1.35289
   D37       -2.69210  -0.01109   0.00000   0.01265   0.01303  -2.67907
   D38        1.17749   0.00358   0.00000   0.03681   0.03726   1.21474
   D39       -3.05388   0.00793   0.00000   0.08724   0.08657  -2.96731
   D40       -0.76376  -0.00875   0.00000   0.04731   0.04767  -0.71609
   D41        0.95660   0.00062   0.00000   0.00000   0.00001   0.95662
   D42        3.07429   0.00017   0.00000   0.00635   0.00631   3.08060
   D43       -1.14631  -0.00165   0.00000  -0.01806  -0.01790  -1.16421
   D44       -1.17866   0.00210   0.00000   0.01755   0.01756  -1.16110
   D45        0.93903   0.00165   0.00000   0.02390   0.02386   0.96289
   D46        3.00161  -0.00017   0.00000  -0.00051  -0.00035   3.00126
   D47        3.02266   0.00114   0.00000   0.00211   0.00201   3.02467
   D48       -1.14283   0.00069   0.00000   0.00846   0.00830  -1.13453
   D49        0.91975  -0.00113   0.00000  -0.01595  -0.01591   0.90385
   D50       -0.92187  -0.00029   0.00000   0.00000   0.00001  -0.92186
   D51        1.20521  -0.00169   0.00000  -0.01642  -0.01635   1.18886
   D52       -3.04137  -0.00099   0.00000  -0.01068  -0.01081  -3.05218
   D53       -3.04086   0.00041   0.00000  -0.00236  -0.00232  -3.04318
   D54       -0.91377  -0.00099   0.00000  -0.01878  -0.01869  -0.93246
   D55        1.12282  -0.00029   0.00000  -0.01304  -0.01314   1.10968
   D56        1.18956   0.00009   0.00000   0.00266   0.00274   1.19231
   D57       -2.96654  -0.00131   0.00000  -0.01376  -0.01362  -2.98016
   D58       -0.92994  -0.00061   0.00000  -0.00802  -0.00807  -0.93801
   D59        0.97524  -0.00347   0.00000  -0.02558  -0.02549   0.94975
   D60        3.07466  -0.00177   0.00000  -0.02620  -0.02635   3.04832
   D61       -1.16481  -0.00037   0.00000  -0.00902  -0.00893  -1.17374
   D62       -1.14401  -0.00293   0.00000  -0.02157  -0.02147  -1.16548
   D63        0.95541  -0.00123   0.00000  -0.02219  -0.02232   0.93309
   D64        2.99912   0.00018   0.00000  -0.00501  -0.00491   2.99422
   D65        3.09808  -0.00164   0.00000  -0.00990  -0.00978   3.08829
   D66       -1.08569   0.00006   0.00000  -0.01052  -0.01064  -1.09633
   D67        0.95802   0.00146   0.00000   0.00666   0.00678   0.96480
   D68       -1.02908  -0.00080   0.00000  -0.00702  -0.00702  -1.03611
   D69        3.11094   0.00305   0.00000   0.00588   0.00481   3.11576
   D70        0.99052   0.00273   0.00000  -0.00687  -0.00756   0.98296
   D71       -3.12454  -0.00193   0.00000  -0.00263  -0.00204  -3.12658
   D72        1.01549   0.00192   0.00000   0.01027   0.00979   1.02528
   D73       -1.10493   0.00160   0.00000  -0.00248  -0.00259  -1.10751
   D74        1.10779  -0.00271   0.00000  -0.01445  -0.01394   1.09385
   D75       -1.03537   0.00114   0.00000  -0.00155  -0.00211  -1.03747
   D76        3.12740   0.00082   0.00000  -0.01431  -0.01448   3.11291
   D77       -1.17215   0.01491   0.00000   0.00000   0.00000  -1.17215
   D78       -3.08465   0.00150   0.00000  -0.03406  -0.03429  -3.11895
   D79        1.13868  -0.00356   0.00000  -0.06610  -0.06698   1.07171
   D80        0.00670   0.00776   0.00000   0.04499   0.04414   0.05084
   D81       -3.08589   0.00229   0.00000  -0.00215  -0.00247  -3.08836
         Item               Value     Threshold  Converged?
 Maximum Force            0.038705     0.000450     NO 
 RMS     Force            0.007543     0.000300     NO 
 Maximum Displacement     0.344622     0.001800     NO 
 RMS     Displacement     0.070066     0.001200     NO 
 Predicted change in Energy=-1.701170D-02
 GradGradGradGradGradGradGradGradGradGradGradGradGradGradGradGradGradGrad

                          Input orientation:                          
 ---------------------------------------------------------------------
 Center     Atomic      Atomic             Coordinates (Angstroms)
 Number     Number       Type             X           Y           Z
 ---------------------------------------------------------------------
      1          8           0       -3.336334   -1.347232   -0.519429
      2          7           0       -2.998061   -0.195702   -0.209103
      3          8           0       -3.767013    0.750535    0.017112
      4          6           0       -1.553747    0.040013   -0.063637
      5          6           0       -1.246847    1.286592    0.416394
      6          7           0       -0.010110    1.763689    0.695803
      7          6           0        1.154607    0.962617    0.317972
      8          1           0        1.932948    1.447187    0.935052
      9          6           0        1.760554    0.943603   -1.077502
     10          6           0        3.190641    0.413936   -0.875531
     11          6           0        3.208764   -0.940737   -0.142434
     12          6           0        2.424781   -0.934441    1.178672
     13          6           0        0.982245   -0.442031    0.905529
     14          1           0        0.391481   -0.452735    1.829523
     15          7           0        0.499307   -1.365802   -0.115496
     16          6           0       -0.709104   -1.087132   -0.496661
     17          1           0       -2.074625    1.956753    0.634904
     18          1           0        0.131574    2.769902    0.677806
     19          1           0        1.197778    0.304190   -1.764152
     20          1           0        1.772920    1.960496   -1.493051
     21          1           0        3.680179    0.310150   -1.851587
     22          1           0        3.766816    1.152066   -0.300995
     23          1           0        2.777260   -1.704325   -0.797570
     24          1           0        4.245602   -1.237327    0.061704
     25          1           0        2.402876   -1.951389    1.591821
     26          1           0        2.913493   -0.290538    1.922147
     27          1           0       -1.180956   -1.751339   -1.222311
 ---------------------------------------------------------------------
                    Distance matrix (angstroms):
                    1          2          3          4          5
     1  O    0.000000
     2  N    1.239658   0.000000
     3  O    2.207711   1.240091   0.000000
     4  C    2.304303   1.470634   2.325921   0.000000
     5  C    3.489806   2.378064   2.607301   1.370611   0.000000
     6  N    4.713638   3.685908   3.949863   2.435286   1.354699
     7  C    5.119101   4.343289   4.935366   2.886521   2.425207
     8  H    6.139187   5.321938   5.815281   3.890316   3.225817
     9  C    5.615838   4.969562   5.638213   3.581757   3.375474
    10  C    6.769780   6.254264   7.022753   4.827858   4.703392
    11  C    6.568536   6.251735   7.179646   4.863084   5.012559
    12  C    6.020331   5.646137   6.521248   4.280371   4.358315
    13  C    4.636811   4.140763   4.976640   2.757336   2.862908
    14  H    4.496033   3.963718   4.693162   2.758762   2.776024
    15  N    3.856896   3.689102   4.764236   2.488781   3.219806
    16  C    2.640172   2.473188   3.604413   1.473563   2.599500
    17  H    3.720311   2.489608   2.168134   2.105509   1.087235
    18  H    5.514576   4.401821   4.439971   3.292771   2.041713
    19  H    4.983443   4.502570   5.293513   3.245371   3.419955
    20  H    6.163885   5.390730   5.868173   4.098560   3.635811
    21  H    7.331645   6.895835   7.690686   5.537484   5.511150
    22  H    7.533189   6.898440   7.551225   5.440716   5.066514
    23  H    6.130327   5.998047   7.036871   4.726415   5.158753
    24  H    7.604968   7.323180   8.255639   5.939676   6.054995
    25  H    6.144991   5.957842   6.917198   4.728751   5.018628
    26  H    6.792513   6.284718   7.024396   4.899880   4.697133
    27  H    2.302824   2.597781   3.805685   2.165743   3.452350
                    6          7          8          9         10
     6  N    0.000000
     7  C    1.463229   0.000000
     8  H    1.983151   1.105174   0.000000
     9  C    2.636741   1.521473   2.081751   0.000000
    10  C    3.812576   2.423001   2.434668   1.538340   0.000000
    11  C    4.286923   2.838007   2.913908   2.553899   1.540421
    12  C    3.666301   2.439872   2.444054   3.009746   2.573793
    13  C    2.427746   1.532308   2.115148   2.541291   2.963422
    14  H    2.521731   2.206891   2.604976   3.503557   3.987948
    15  N    3.272831   2.457406   3.327444   2.801705   3.314876
    16  C    3.168239   2.887648   3.931031   3.249688   4.195802
    17  H    2.074416   3.393626   4.050974   4.320579   5.690758
    18  H    1.016299   2.107691   2.249600   3.011652   4.161889
    19  H    3.104918   2.184177   3.022022   1.094100   2.184765
    20  H    2.830020   2.158211   2.486921   1.098592   2.187032
    21  H    4.713832   3.392818   3.480090   2.164587   1.096862
    22  H    3.953842   2.691216   2.231139   2.161367   1.098592
    23  H    4.693263   3.315119   3.694167   2.850190   2.159628
    24  H    5.245881   3.802588   3.649345   3.497101   2.172101
    25  H    4.519641   3.416474   3.493207   3.989843   3.507587
    26  H    3.777727   2.690252   2.226098   3.442422   2.898292
    27  H    4.171985   3.897804   4.957941   3.992012   4.890760
                   11         12         13         14         15
    11  C    0.000000
    12  C    1.536226   0.000000
    13  C    2.510841   1.548543   0.000000
    14  H    3.473304   2.188597   1.096760   0.000000
    15  N    2.742729   2.359745   1.459135   2.151376   0.000000
    16  C    3.936571   3.556865   2.289749   2.650449   1.297381
    17  H    6.075681   5.375811   3.895107   3.648894   4.269379
    18  H    4.889860   4.385411   3.330468   3.432112   4.227127
    19  H    2.867730   3.420520   2.780377   3.759994   2.448428
    20  H    3.507558   3.992954   3.485755   4.332615   3.818901
    21  H    2.169828   3.508205   3.930180   4.994808   3.992590
    22  H    2.171724   2.888595   3.427927   4.302020   4.129248
    23  H    1.094745   2.150000   2.777771   3.762983   2.401853
    24  H    1.097575   2.157486   3.463240   4.312194   3.752683
    25  H    2.162988   1.097887   2.183426   2.519559   2.623246
    26  H    2.184592   1.098273   2.187734   2.528918   3.337136
    27  H    4.592695   4.408331   3.304758   3.670508   2.048648
                   16         17         18         19         20
    16  C    0.000000
    17  H    3.522829   0.000000
    18  H    4.118595   2.351673   0.000000
    19  H    2.679274   4.381217   3.630385   0.000000
    20  H    4.054784   4.396795   2.839327   1.774158   0.000000
    21  H    4.801461   6.481645   5.004080   2.483948   2.547514
    22  H    5.008607   5.970416   4.097613   3.075659   2.459710
    23  H    3.553337   6.244699   5.403249   2.731881   3.863069
    24  H    4.988330   7.104645   5.776045   3.872887   4.330992
    25  H    3.846182   6.019741   5.318348   4.219295   5.021566
    26  H    4.428137   5.620377   4.318999   4.109280   4.246367
    27  H    1.091047   4.242386   5.076889   3.190167   4.751463
                   21         22         23         24         25
    21  H    0.000000
    22  H    1.766541   0.000000
    23  H    2.446288   3.063459   0.000000
    24  H    2.524890   2.463734   1.764218   0.000000
    25  H    4.313134   3.882592   2.431131   2.499356   0.000000
    26  H    3.897398   2.784175   3.068260   2.476323   1.768692
    27  H    5.317552   5.810252   3.981217   5.600038   4.561053
                   26         27
    26  H    0.000000
    27  H    5.365265   0.000000
 Symmetry turned off by external request.
 Stoichiometry    C9H13N3O2
 Framework group  C1[X(C9H13N3O2)]
 Deg. of freedom    75
 Full point group                 C1      NOp   1
 Rotational constants (GHZ):           1.6277144           0.4435198           0.3971208
 Standard basis: 6-31G(d) (6D, 7F)
   236 basis functions,   444 primitive gaussians,   236 cartesian basis functions
    52 alpha electrons       52 beta electrons
       nuclear repulsion energy       941.1339104183 Hartrees.
 NAtoms=   27 NActive=   27 NUniq=   27 SFac= 1.00D+00 NAtFMM=   60 NAOKFM=F Big=F
 Integral buffers will be    131072 words long.
 Raffenetti 1 integral format.
 Two-electron integral symmetry is turned off.
 One-electron integrals computed using PRISM.
 NBasis=   236 RedAO= T EigKep=  1.03D-03  NBF=   236
 NBsUse=   236 1.00D-06 EigRej= -1.00D+00 NBFU=   236
 Initial guess from the checkpoint file:  "/home/alexey/tmp/Gau-1188431.chk"
 B after Tr=     0.069868    0.008476    0.000415
         Rot=    0.999998   -0.001796    0.000970    0.000336 Ang=  -0.24 deg.
 ExpMin= 1.61D-01 ExpMax= 5.48D+03 ExpMxC= 8.25D+02 IAcc=3 IRadAn=         5 AccDes= 0.00D+00
 Harris functional with IExCor=  205 and IRadAn=       5 diagonalized for initial guess.
 HarFok:  IExCor=  205 AccDes= 0.00D+00 IRadAn=         5 IDoV= 1 UseB2=F ITyADJ=14
 ICtDFT=  3500011 ScaDFX=  1.000000  1.000000  1.000000  1.000000
 FoFCou: FMM=F IPFlag=           0 FMFlag=      100000 FMFlg1=           0
         NFxFlg=           0 DoJE=T BraDBF=F KetDBF=T FulRan=T
         wScrn=  0.000000 ICntrl=       500 IOpCl=  0 I1Cent=   200000004 NGrid=           0
         NMat0=    1 NMatS0=      1 NMatT0=    0 NMatD0=    1 NMtDS0=    0 NMtDT0=    0
 Symmetry not used in FoFCou.
 Keep R1 ints in memory in canonical form, NReq=397720213.
 Requested convergence on RMS density matrix=1.00D-08 within 128 cycles.
 Requested convergence on MAX density matrix=1.00D-06.
 Requested convergence on             energy=1.00D-06.
 No special actions if energy rises.
 SCF Done:  E(RHF) =  -661.275137126     A.U. after   14 cycles
            NFock= 14  Conv=0.70D-08     -V/T= 2.0024
 ExpMin= 1.61D-01 ExpMax= 5.48D+03 ExpMxC= 8.25D+02 IAcc=3 IRadAn=         5 AccDes= 0.00D+00
 HarFok:  IExCor=  205 AccDes= 0.00D+00 IRadAn=         5 IDoV=-2 UseB2=F ITyADJ=14
 ICtDFT= 12500011 ScaDFX=  1.000000  1.000000  1.000000  1.000000
 Range of M.O.s used for correlation:    15   236
 NBasis=   236 NAE=    52 NBE=    52 NFC=    14 NFV=     0
 NROrb=    222 NOA=    38 NOB=    38 NVA=   184 NVB=   184
 Fully direct method using O(ONN) memory.
 JobTyp=1 Pass  1:  I=  15 to  52 NPSUse=  4 ParTrn=T ParDer=T DoDerP=T.
 Spin components of T(2) and E(2):
     alpha-alpha T2 =       0.9204159325D-01 E2=     -0.2736615278D+00
     alpha-beta  T2 =       0.4950894956D+00 E2=     -0.1493359017D+01
     beta-beta   T2 =       0.9204159325D-01 E2=     -0.2736615278D+00
 ANorm=    0.1295828956D+01
 E2 =    -0.2040682073D+01 EUMP2 =    -0.66331581919872D+03
[...]
    19  H    2.643866   4.332624   3.789150   0.000000
    20  H    4.049518   4.395136   3.083277   1.773414   0.000000
    21  H    4.769806   6.460866   5.156702   2.511285   2.549161
    22  H    4.978642   5.936052   4.172327   3.076754   2.438052
    23  H    3.537166   6.224056   5.467144   2.782488   3.883715
    24  H    4.979952   7.078755   5.793387   3.897973   4.317688
    25  H    3.856805   5.997060   5.244470   4.252420   5.039350
    26  H    4.441014   5.603975   4.232113   4.141406   4.266116
    27  H    1.088791   4.249121   5.147167   3.142280   4.733407
                   21         22         23         24         25
    21  H    0.000000
    22  H    1.758290   0.000000
    23  H    2.449902   3.064405   0.000000
    24  H    2.493587   2.449421   1.762262   0.000000
    25  H    4.312321   3.889664   2.424173   2.525835   0.000000
    26  H    3.902659   2.798473   3.068711   2.489690   1.770128
    27  H    5.264376   5.763491   3.946717   5.573436   4.562099
                   26         27
    26  H    0.000000
    27  H    5.367959   0.000000
 Symmetry turned off by external request.
 Stoichiometry    C9H13N3O2
 Framework group  C1[X(C9H13N3O2)]
 Deg. of freedom    75
 Full point group                 C1      NOp   1
 Rotational constants (GHZ):           1.6191377           0.4434867           0.3988146

 **********************************************************************

            Population analysis using the SCF Density.

 **********************************************************************

 Alpha  occ. eigenvalues --  -20.59413 -20.59085 -15.84846 -15.63846 -15.56384
 Alpha  occ. eigenvalues --  -11.34986 -11.29647 -11.29317 -11.28942 -11.26625
 Alpha  occ. eigenvalues --  -11.23876 -11.23332 -11.22503 -11.21955  -1.57286
 Alpha  occ. eigenvalues --   -1.36879  -1.31126  -1.23389  -1.14160  -1.09538
 Alpha  occ. eigenvalues --   -1.02420  -1.00527  -0.94472  -0.89256  -0.85651
 Alpha  occ. eigenvalues --   -0.82227  -0.78838  -0.77291  -0.74562  -0.72149
 Alpha  occ. eigenvalues --   -0.69968  -0.69717  -0.68039  -0.64878  -0.64063
 Alpha  occ. eigenvalues --   -0.61578  -0.59712  -0.57551  -0.56252  -0.55414
 Alpha  occ. eigenvalues --   -0.53750  -0.50655  -0.49492  -0.48724  -0.48076
 Alpha  occ. eigenvalues --   -0.47373  -0.45865  -0.45182  -0.43773  -0.41982
 Alpha  occ. eigenvalues --   -0.40406  -0.34126
 Alpha virt. eigenvalues --    0.07155   0.11357   0.17498   0.22470   0.24313
 Alpha virt. eigenvalues --    0.25568   0.27003   0.28333   0.28786   0.30010
 Alpha virt. eigenvalues --    0.30680   0.31793   0.32293   0.33004   0.34206
 Alpha virt. eigenvalues --    0.34671   0.35517   0.37668   0.38145   0.39758
 Alpha virt. eigenvalues --    0.41786   0.43573   0.45128   0.45829   0.46309
 Alpha virt. eigenvalues --    0.46758   0.49488   0.54702   0.57693   0.60094
 Alpha virt. eigenvalues --    0.63221   0.68718   0.71113   0.74142   0.74767
 Alpha virt. eigenvalues --    0.75493   0.76815   0.77774   0.79261   0.79727
 Alpha virt. eigenvalues --    0.81456   0.83199   0.86466   0.87437   0.88606
 Alpha virt. eigenvalues --    0.89266   0.90757   0.91765   0.91991   0.95162
 Alpha virt. eigenvalues --    0.96243   0.97049   0.99316   1.01383   1.02589
 Alpha virt. eigenvalues --    1.04180   1.05862   1.07673   1.08112   1.09000
 Alpha virt. eigenvalues --    1.10616   1.11885   1.12312   1.12799   1.14367
 Alpha virt. eigenvalues --    1.14862   1.15551   1.16527   1.17130   1.19311
 Alpha virt. eigenvalues --    1.19489   1.20562   1.21996   1.22647   1.23931
 Alpha virt. eigenvalues --    1.24720   1.25697   1.27142   1.27690   1.29889
 Alpha virt. eigenvalues --    1.30403   1.32471   1.33442   1.37914   1.40387
 Alpha virt. eigenvalues --    1.42704   1.47020   1.49668   1.50462   1.55469
 Alpha virt. eigenvalues --    1.56079   1.60072   1.61297   1.63877   1.64305
 Alpha virt. eigenvalues --    1.67859   1.70467   1.73810   1.76752   1.81412
 Alpha virt. eigenvalues --    1.84349   1.85929   1.89039   1.90135   1.93249
 Alpha virt. eigenvalues --    1.94389   1.95212   1.97566   2.01719   2.03741
 Alpha virt. eigenvalues --    2.06076   2.06966   2.07786   2.10554   2.11713
 Alpha virt. eigenvalues --    2.12333   2.17114   2.19585   2.20775   2.21370
 Alpha virt. eigenvalues --    2.22256   2.24436   2.27709   2.28674   2.31799
 Alpha virt. eigenvalues --    2.32468   2.33967   2.34806   2.37242   2.39417
 Alpha virt. eigenvalues --    2.40416   2.42224   2.44203   2.45915   2.49866
 Alpha virt. eigenvalues --    2.50835   2.53336   2.55231   2.58329   2.60760
 Alpha virt. eigenvalues --    2.64473   2.65491   2.67978   2.69734   2.70972
 Alpha virt. eigenvalues --    2.72675   2.74136   2.77632   2.78348   2.82854
 Alpha virt. eigenvalues --    2.87767   2.91276   2.91877   2.94810   2.97091
 Alpha virt. eigenvalues --    2.98466   3.01794   3.03527   3.05136   3.06307
 Alpha virt. eigenvalues --    3.08697   3.16337   3.21223   3.24202   3.27508
 Alpha virt. eigenvalues --    3.32344   3.34758   3.36855   3.50483   3.62525
 Alpha virt. eigenvalues --    4.13971   4.26881   4.37114   4.41495   4.47528
 Alpha virt. eigenvalues --    4.56071   4.61560   4.63568   4.74356   4.81323
 Alpha virt. eigenvalues --    4.97696   5.02690   5.06716   5.13403
          Condensed to atoms (all electrons):
               1          2          3          4          5          6
     1  O    8.316478   0.306930  -0.083784  -0.083955   0.004400  -0.000017
     2  N    0.306930   5.710903   0.302722   0.273803  -0.054925   0.001057
     3  O   -0.083784   0.302722   8.352269  -0.091620   0.002438   0.000770
     4  C   -0.083955   0.273803  -0.091620   5.211524   0.566955  -0.050674
     5  C    0.004400  -0.054925   0.002438   0.566955   4.732411   0.313153
     6  N   -0.000017   0.001057   0.000770  -0.050674   0.313153   7.180646
     7  C    0.000006  -0.000287  -0.000000   0.006940  -0.045902   0.180470
     8  H    0.000000   0.000002   0.000000  -0.000427   0.005648  -0.057862
     9  C   -0.000000  -0.000020  -0.000000   0.001025   0.000111  -0.038874
    10  C   -0.000000   0.000000  -0.000000  -0.000020  -0.000095   0.003581
    11  C   -0.000000  -0.000000  -0.000000  -0.000058   0.000006   0.000104
    12  C    0.000000   0.000001  -0.000000  -0.000111  -0.000049   0.004783
    13  C   -0.000050  -0.000048  -0.000005  -0.013560  -0.005995  -0.065524
    14  H   -0.000003  -0.000067   0.000001   0.003360   0.006126  -0.008205
    15  N    0.000360   0.001976  -0.000015  -0.064093  -0.003690   0.001406
    16  C   -0.000578  -0.029332   0.002461   0.327844  -0.043561   0.000017
    17  H    0.000234  -0.007211   0.017049  -0.022785   0.373927  -0.031680
    18  H    0.000001  -0.000053   0.000012   0.001654  -0.028164   0.337065
    19  H    0.000003  -0.000015   0.000000  -0.001954   0.001345   0.000023
    20  H    0.000000  -0.000000   0.000000  -0.000139   0.000051  -0.000351
    21  H   -0.000000  -0.000000  -0.000000   0.000001   0.000003  -0.000068
    22  H   -0.000000   0.000000  -0.000000  -0.000002  -0.000008  -0.000140
    23  H    0.000000  -0.000000   0.000000   0.000053   0.000000  -0.000036
    24  H    0.000000   0.000000   0.000000   0.000001  -0.000000   0.000006
    25  H   -0.000000  -0.000000   0.000000   0.000025  -0.000005  -0.000137
    26  H    0.000000  -0.000000   0.000000  -0.000000  -0.000008  -0.000053
    27  H    0.005603  -0.001503   0.000014  -0.058285   0.001987  -0.000001
               7          8          9         10         11         12
     1  O    0.000006   0.000000  -0.000000  -0.000000  -0.000000   0.000000
     2  N   -0.000287   0.000002  -0.000020   0.000000  -0.000000   0.000001
     3  O   -0.000000   0.000000  -0.000000  -0.000000  -0.000000  -0.000000
     4  C    0.006940  -0.000427   0.001025  -0.000020  -0.000058  -0.000111
     5  C   -0.045902   0.005648   0.000111  -0.000095   0.000006  -0.000049
     6  N    0.180470  -0.057862  -0.038874   0.003581   0.000104   0.004783
     7  C    5.097712   0.432440   0.332846  -0.061006  -0.009440  -0.062332
     8  H    0.432440   0.546398  -0.059148  -0.003874  -0.001684  -0.005477
     9  C    0.332846  -0.059148   5.153283   0.325301  -0.047944  -0.003859
    10  C   -0.061006  -0.003874   0.325301   5.127012   0.337048  -0.057700
    11  C   -0.009440  -0.001684  -0.047944   0.337048   5.132133   0.340376
    12  C   -0.062332  -0.005477  -0.003859  -0.057700   0.340376   5.107220
    13  C    0.320246  -0.044912  -0.053425   0.000051  -0.050883   0.365908
    14  H   -0.046789   0.001047   0.002972  -0.000328   0.003722  -0.028180
    15  N   -0.065855   0.004471  -0.022059   0.001620  -0.024686  -0.087142
    16  C   -0.006574   0.000232  -0.004539   0.000029   0.000013   0.005212
    17  H    0.001907  -0.000078  -0.000028   0.000001   0.000000   0.000000
    18  H   -0.021942  -0.005294   0.001231  -0.000086   0.000010  -0.000163
    19  H   -0.036828   0.004230   0.393628  -0.030288  -0.002006   0.000676
    20  H   -0.045091  -0.001149   0.399483  -0.035521   0.003630  -0.000437
    21  H    0.005624   0.000242  -0.038031   0.401857  -0.034656   0.004029
    22  H   -0.008453   0.004002  -0.045213   0.399385  -0.045073  -0.000038
    23  H   -0.000143   0.000076  -0.001023  -0.037868   0.399309  -0.035206
    24  H   -0.000201  -0.000289   0.004468  -0.038847   0.400310  -0.039332
    25  H    0.005599   0.000221  -0.000438   0.003871  -0.034454   0.397547
    26  H   -0.006561   0.001473   0.001264  -0.001042  -0.040043   0.398943
    27  H   -0.000518   0.000012  -0.000039   0.000006   0.000023  -0.000087
              13         14         15         16         17         18
     1  O   -0.000050  -0.000003   0.000360  -0.000578   0.000234   0.000001
     2  N   -0.000048  -0.000067   0.001976  -0.029332  -0.007211  -0.000053
     3  O   -0.000005   0.000001  -0.000015   0.002461   0.017049   0.000012
     4  C   -0.013560   0.003360  -0.064093   0.327844  -0.022785   0.001654
     5  C   -0.005995   0.006126  -0.003690  -0.043561   0.373927  -0.028164
     6  N   -0.065524  -0.008205   0.001406   0.000017  -0.031680   0.337065
     7  C    0.320246  -0.046789  -0.065855  -0.006574   0.001907  -0.021942
     8  H   -0.044912   0.001047   0.004471   0.000232  -0.000078  -0.005294
     9  C   -0.053425   0.002972  -0.022059  -0.004539  -0.000028   0.001231
    10  C    0.000051  -0.000328   0.001620   0.000029   0.000001  -0.000086
    11  C   -0.050883   0.003722  -0.024686   0.000013   0.000000   0.000010
    12  C    0.365908  -0.028180  -0.087142   0.005212   0.000000  -0.000163
    13  C    5.107499   0.405756   0.247862  -0.083125  -0.000036   0.004038
    14  H    0.405756   0.496262  -0.031560  -0.007491   0.000101   0.000043
    15  N    0.247862  -0.031560   6.977453   0.572122  -0.000071  -0.000154
    16  C   -0.083125  -0.007491   0.572122   4.752041   0.001472  -0.000228
    17  H   -0.000036   0.000101  -0.000071   0.001472   0.370029  -0.002122
    18  H    0.004038   0.000043  -0.000154  -0.000228  -0.002122   0.306025
    19  H   -0.006030   0.000110   0.005746   0.003719   0.000003  -0.000107
    20  H    0.004100  -0.000036   0.000460  -0.000017  -0.000004   0.000672
    21  H   -0.000542   0.000008  -0.000039   0.000014  -0.000000   0.000001
    22  H    0.000160  -0.000041   0.000002  -0.000008   0.000000   0.000005
    23  H   -0.007097  -0.000028   0.006943  -0.000040   0.000000   0.000000
    24  H    0.004918  -0.000045   0.000464   0.000010   0.000000  -0.000000
    25  H   -0.035684  -0.002445   0.000185  -0.000144  -0.000000   0.000003
    26  H   -0.046639  -0.000492   0.004901  -0.000128   0.000000  -0.000002
    27  H    0.005944  -0.000161  -0.038779   0.401348  -0.000076   0.000000
              19         20         21         22         23         24
     1  O    0.000003   0.000000  -0.000000  -0.000000   0.000000   0.000000
     2  N   -0.000015  -0.000000  -0.000000   0.000000  -0.000000   0.000000
     3  O    0.000000   0.000000  -0.000000  -0.000000   0.000000   0.000000
     4  C   -0.001954  -0.000139   0.000001  -0.000002   0.000053   0.000001
     5  C    0.001345   0.000051   0.000003  -0.000008   0.000000  -0.000000
     6  N    0.000023  -0.000351  -0.000068  -0.000140  -0.000036   0.000006
     7  C   -0.036828  -0.045091   0.005624  -0.008453  -0.000143  -0.000201
     8  H    0.004230  -0.001149   0.000242   0.004002   0.000076  -0.000289
     9  C    0.393628   0.399483  -0.038031  -0.045213  -0.001023   0.004468
    10  C   -0.030288  -0.035521   0.401857   0.399385  -0.037868  -0.038847
    11  C   -0.002006   0.003630  -0.034656  -0.045073   0.399309   0.400310
    12  C    0.000676  -0.000437   0.004029  -0.000038  -0.035206  -0.039332
    13  C   -0.006030   0.004100  -0.000542   0.000160  -0.007097   0.004918
    14  H    0.000110  -0.000036   0.000008  -0.000041  -0.000028  -0.000045
    15  N    0.005746   0.000460  -0.000039   0.000002   0.006943   0.000464
    16  C    0.003719  -0.000017   0.000014  -0.000008  -0.000040   0.000010
    17  H    0.000003  -0.000004  -0.000000   0.000000   0.000000   0.000000
    18  H   -0.000107   0.000672   0.000001   0.000005   0.000000  -0.000000
    19  H    0.490730  -0.023626  -0.002131   0.003576   0.001127  -0.000075
    20  H   -0.023626   0.538723  -0.002396  -0.002994  -0.000040  -0.000079
    21  H   -0.002131  -0.002396   0.522782  -0.026814  -0.002870  -0.002468
    22  H    0.003576  -0.002994  -0.026814   0.567433   0.003985  -0.003927
    23  H    0.001127  -0.000040  -0.002870   0.003985   0.488951  -0.025775
    24  H   -0.000075  -0.000079  -0.002468  -0.003927  -0.025775   0.544054
    25  H   -0.000007   0.000012  -0.000083  -0.000067  -0.002376  -0.002026
    26  H   -0.000003  -0.000023  -0.000073   0.001760   0.003709  -0.003084
    27  H    0.000169   0.000001  -0.000000   0.000000  -0.000032  -0.000000
              25         26         27
     1  O   -0.000000   0.000000   0.005603
     2  N   -0.000000  -0.000000  -0.001503
     3  O    0.000000   0.000000   0.000014
     4  C    0.000025  -0.000000  -0.058285
     5  C   -0.000005  -0.000008   0.001987
     6  N   -0.000137  -0.000053  -0.000001
     7  C    0.005599  -0.006561  -0.000518
     8  H    0.000221   0.001473   0.000012
     9  C   -0.000438   0.001264  -0.000039
    10  C    0.003871  -0.001042   0.000006
    11  C   -0.034454  -0.040043   0.000023
    12  C    0.397547   0.398943  -0.000087
    13  C   -0.035684  -0.046639   0.005944
    14  H   -0.002445  -0.000492  -0.000161
    15  N    0.000185   0.004901  -0.038779
    16  C   -0.000144  -0.000128   0.401348
    17  H   -0.000000   0.000000  -0.000076
    18  H    0.000003  -0.000002   0.000000
    19  H   -0.000007  -0.000003   0.000169
    20  H    0.000012  -0.000023   0.000001
    21  H   -0.000083  -0.000073  -0.000000
    22  H   -0.000067   0.001760   0.000000
    23  H   -0.002376   0.003709  -0.000032
    24  H   -0.002026  -0.003084  -0.000000
    25  H    0.514558  -0.024764  -0.000005
    26  H   -0.024764   0.561204   0.000001
    27  H   -0.000005   0.000001   0.433995
 Mulliken charges:
               1
     1  O   -0.465628
     2  N    0.496066
     3  O   -0.502311
     4  C   -0.005501
     5  C    0.173842
     6  N   -0.769460
     7  C    0.034133
     8  H    0.179699
     9  C   -0.300973
    10  C   -0.333089
    11  C   -0.325756
    12  C   -0.304581
    13  C   -0.052926
    14  H    0.206365
    15  N   -0.487828
    16  C    0.109232
    17  H    0.299367
    18  H    0.407553
    19  H    0.197985
    20  H    0.164773
    21  H    0.175610
    22  H    0.152471
    23  H    0.208382
    24  H    0.161917
    25  H    0.180614
    26  H    0.149659
    27  H    0.250385
 Sum of Mulliken charges =  -0.00000
 Mulliken charges with hydrogens summed into heavy atoms:
               1
     1  O   -0.465628
     2  N    0.496066
     3  O   -0.502311
     4  C   -0.005501
     5  C    0.473210
     6  N   -0.361907
     7  C    0.213832
     9  C    0.061784
    10  C   -0.005008
    11  C    0.044543
    12  C    0.025693
    13  C    0.153439
    15  N   -0.487828
    16  C    0.359616
 Electronic spatial extent (au):  <R**2>=           2865.6057
 Charge=             -0.0000 electrons
 Dipole moment (field-independent basis, Debye):
    X=              5.0255    Y=              4.7583    Z=              1.5349  Tot=              7.0889
 Quadrupole moment (field-independent basis, Debye-Ang):
   XX=           -105.0033   YY=            -79.5445   ZZ=            -81.1403
   XY=             -0.8537   XZ=             -2.1538   YZ=              2.3980
 Traceless Quadrupole moment (field-independent basis, Debye-Ang):
   XX=            -16.4406   YY=              9.0182   ZZ=              7.4224
   XY=             -0.8537   XZ=             -2.1538   YZ=              2.3980
 Octapole moment (field-independent basis, Debye-Ang**2):
  XXX=             71.5860  YYY=             35.0469  ZZZ=              0.6598  XYY=             -6.9779
  XXY=              7.6137  XXZ=             11.9696  XZZ=            -12.1559  YZZ=              0.0971
  YYZ=             11.6555  XYZ=              0.3989
 Hexadecapole moment (field-independent basis, Debye-Ang**3):
 XXXX=          -3108.7885 YYYY=           -579.2274 ZZZZ=           -357.7394 XXXY=             15.4272
 XXXZ=            -67.3018 YYYX=             20.0596 YYYZ=             16.9913 ZZZX=            -30.0785
 ZZZY=             -7.6529 XXYY=           -585.3268 XXZZ=           -502.7920 YYZZ=           -157.0247
 XXYZ=             -9.1146 YYXZ=            -12.4506 ZZXY=              8.9744
 N-N= 9.411538267211D+02 E-N=-3.429058047242D+03  KE= 6.596205513950D+02
 Unable to Open any file for archive entry.
 1\1\GINC-LOTUS\FOpt\RMP2-FC\6-31G(d)\C9H13N3O2\ALEXEY\30-Jun-2023\0\\#
 MP2/6-31G* SCF=Tight Opt=(ModRedun, MaxCycle=100 ) NoSymm\\MolName:\\0
 ,1\O,-3.344872223,-1.3162269872,-0.6080347047\N,-2.9780224588,-0.17664
 51965,-0.2619018438\O,-3.7667740177,0.7701968592,-0.0795100536\C,-1.54
 36921862,0.0293691695,-0.0592878697\C,-1.2244650494,1.2786345966,0.435
 1363784\N,0.0087898643,1.754861668,0.6972080216\C,1.1682894576,0.97875
 27297,0.3123765555\H,1.967447129,1.4585768272,0.8986472453\C,1.7292647
 344,0.9336883888,-1.1017257277\C,3.160533434,0.3923647379,-0.900653938
 6\C,3.2017958982,-0.9434162008,-0.1394010607\C,2.4420023043,-0.9170378
 556,1.2009306235\C,1.0038952055,-0.4362361775,0.9207333146\H,0.3600398
 979,-0.4107250856,1.8072896886\N,0.5152820413,-1.3674746135,-0.0969990
 521\C,-0.7016916546,-1.0966534714,-0.4776095688\H,-2.0559275518,1.9436
 175892,0.6508729616\H,0.1056845164,2.7310078408,0.9476361469\H,1.14154
 16719,0.2954274154,-1.7639329191\H,1.7583318102,1.9419894096,-1.532848
 5256\H,3.6502698901,0.2679161539,-1.8738301358\H,3.7400804181,1.148888
 8244,-0.3548152206\H,2.7670108077,-1.7283000777,-0.7616275438\H,4.2499
 185602,-1.2141687225,0.0397586373\H,2.4205161111,-1.9252785891,1.62955
 5575\H,2.9368280074,-0.2584175464,1.9267910257\H,-1.155046618,-1.77371
 16862,-1.1997780091\\Version=ES64L-G16RevC.02\HF=-661.2759664\MP2=-663
 .3186421\RMSD=7.315e-09\RMSF=7.811e-03\Dipole=1.8270658,1.6621907,0.54
 64997\PG=C01 [X(C9H13N3O2)]\\@
 The archive entry for this job was punched.


      TO SUSPECT YOUR OWN MORTALITY IS TO KNOW THE BEGINNING OF TERROR.
      TO LEARN IRREFUTABLY THAT YOU ARE MORTAL IS TO KNOW THE END
      OF TERROR.

                                                  -- JESSICA
                                                     CHILDREN OF DUNE
                                                     BY FRANK HERBERT
 Job cpu time:       0 days  2 hours  0 minutes 38.1 seconds.
 Elapsed time:       0 days  0 hours 35 minutes 52.9 seconds.
 File lengths (MBytes):  RWF=     36 Int=      0 D2E=      0 Chk=      7 Scr=      1
 Normal termination of Gaussian 16 at Fri Jun 30 19:03:05 2023.
