 Entering Gaussian System, Link 0=g16
 Initial command:
 /home/alexey/programs//g16/l1.exe "/home/alexey/tmp/Gau-1192431.inp" -scrdir="/home/alexey/tmp/"
 Entering Link 1 = /home/alexey/programs//g16/l1.exe PID=   1192433.
  
 Copyright (c) 1988-2021, Gaussian, Inc.  All Rights Reserved.
  
 This is part of the Gaussian(R) 16 program.  It is based on
 the Gaussian(R) 09 system (copyright 2009, Gaussian, Inc.),
 the Gaussian(R) 03 system (copyright 2003, Gaussian, Inc.),
 the Gaussian(R) 98 system (copyright 1998, Gaussian, Inc.),
 the Gaussian(R) 94 system (copyright 1995, Gaussian, Inc.),
 the Gaussian 92(TM) system (copyright 1992, Gaussian, Inc.),
 the Gaussian 90(TM) system (copyright 1990, Gaussian, Inc.),
 the Gaussian 88(TM) system (copyright 1988, Gaussian, Inc.),
 the Gaussian 86(TM) system (copyright 1986, Carnegie Mellon
 University), and the Gaussian 82(TM) system (copyright 1983,
 Carnegie Mellon University). Gaussian is a federally registered
 trademark of Gaussian, Inc.
  
 This software contains proprietary and confidential information,
 including trade secrets, belonging to Gaussian, Inc.
  
 This software is provided under written license and may be
 used, copied, transmitted, or stored only in accord with that
 written license.
  
 The following legend is applicable only to US Government
 contracts under FAR:
  
                    RESTRICTED RIGHTS LEGEND
  
 Use, reproduction and disclosure by the US Government is
 subject to restrictions as set forth in subparagraphs (a)
 and (c) of the Commercial Computer Software - Restricted
 Rights clause in FAR 52.227-19.
  
 Gaussian, Inc.
 340 Quinnipiac St., Bldg. 40, Wallingford CT 06492
  
  
 ---------------------------------------------------------------
 Warning -- This program may not be used in any manner that
 competes with the business of Gaussian, Inc. or will provide
 assistance to any competitor of Gaussian, Inc.  The licensee
 of this program is prohibited from giving any competitor of
 Gaussian, Inc. access to this program.  By using this program,
 the user acknowledges that Gaussian, Inc. is engaged in the
 business of creating and licensing software in the field of
 computational chemistry and represents and warrants to the
 licensee that it is not a competitor of Gaussian, Inc. and that
 it will not use this program in any manner prohibited above.
 ---------------------------------------------------------------
  

 Cite this work as:
 Gaussian 16, Revision C.02,
 M. J. Frisch, G. W. Trucks, H. B. Schlegel, G. E. Scuseria, 
 M. A. Robb, J. R. Cheeseman, G. Scalmani, V. Barone, 
 G. A. Petersson, H. Nakatsuji, X. Li, M. Caricato, A. V. Marenich, 
 J. Bloino, B. G. Janesko, R. Gomperts, B. Mennucci, H. P. Hratchian, 
 J. V. Ortiz, A. F. Izmaylov, J. L. Sonnenberg, D. Williams-Young, 
 F. Ding, F. Lipparini, F. Egidi, J. Goings, B. Peng, A. Petrone, 
 T. Henderson, D. Ranasinghe, V. G. Zakrzewski, J. Gao, N. Rega, 
 G. Zheng, W. Liang, M. Hada, M. Ehara, K. Toyota, R. Fukuda, 
 J. Hasegawa, M. Ishida, T. Nakajima, Y. Honda, O. Kitao, H. Nakai, 
 T. Vreven, K. Throssell, J. A. Montgomery, Jr., J. E. Peralta, 
 F. Ogliaro, M. J. Bearpark, J. J. Heyd, E. N. Brothers, K. N. Kudin, 
 V. N. Staroverov, T. A. Keith, R. Kobayashi, J. Normand, 
 K. Raghavachari, A. P. Rendell, J. C. Burant, S. S. Iyengar, 
 J. Tomasi, M. Cossi, J. M. Millam, M. Klene, C. Adamo, R. Cammi, 
 J. W. Ochterski, R. L. Martin, K. Morokuma, O. Farkas, 
 J. B. Foresman, and D. J. Fox, Gaussian, Inc., Wallingford CT, 2019.
 
 ******************************************
 Gaussian 16:  ES64L-G16RevC.02  7-Dec-2021
                30-Jun-2023 
 ******************************************
 %mem=8GB
 %NPROCS=4
 Will use up to    4 processors via shared memory.
 %NoSave
 ----------------------------------------------------------
 #MP2/6-31G* SCF=Tight Opt=(ModRedun, MaxCycle=100 ) NoSymm
 ----------------------------------------------------------
 1/6=100,18=120,19=15,38=1/1,3;
 2/9=110,12=2,15=1,17=6,18=5,40=1/2;
 3/5=1,6=6,7=1,11=9,25=1,30=1,71=1/1,2,3;
 4//1;
 5/5=2,32=2,38=5/2;
 8/6=4,10=2/1;
 9/15=2,16=-3/6;
 10/5=1,31=1/2;
 6/7=2,8=2,9=2,10=2/1;
 7/12=2,30=1/1,2,3,16;
 1/6=100,18=20,19=15/3(2);
 2/9=110,15=1/2;
 99//99;
 2/9=110,15=1/2;
 3/5=1,6=6,7=1,11=9,25=1,30=1,71=1/1,2,3;
 4/5=5,16=3,69=1/1;
 5/5=2,32=2,38=5/2;
 8/6=4,10=2/1;
 9/15=2,16=-3/6;
 10/5=1,31=1/2;
 7/12=2,30=1/1,2,3,16;
 1/6=100,18=20,19=15/3(-8);
 2/9=110,15=1/2;
 6/7=2,8=2,9=2,10=2/1;
 99/9=10/99;
 --------
 MolName:
 --------
 Symbolic Z-matrix:
 Charge =  0 Multiplicity = 1
 8                    0    -3.65953  -1.44957   0.52028 
 7                    0    -3.29523  -0.27729   0.45146 
 8                    0    -4.01694   0.68599   0.71082 
 6                    0    -1.86294  -0.0117    0.01794 
 6                    0    -1.40265   1.3048    0.07095 
 7                    0    -0.12574   1.6226   -0.29543 
 6                    0     1.11476   1.00021   0.24553 
 1                    0     1.44536   1.54549   1.15628 
 6                    0     2.18213   1.19029  -0.8631 
 6                    0     3.55112   0.57109  -0.53489 
 6                    0     3.41999  -0.91476  -0.18631 
 6                    0     2.37416  -1.12015   0.91722 
 6                    0     0.9897   -0.50787   0.58981 
 1                    0     0.43161  -0.56214   1.56056 
 7                    0     0.21547  -1.34443  -0.34857 
 6                    0    -1.0644   -1.16716  -0.47093 
 1                    0    -2.06696   2.11      0.42627 
 1                    0     0.11469   2.48624  -0.7869 
 1                    0     1.81357   0.70041  -1.79517 
 1                    0     2.3255    2.27197  -1.07666 
 1                    0     4.24235   0.69592  -1.39749 
 1                    0     3.99049   1.10699   0.33668 
 1                    0     3.08832  -1.47129  -1.09351 
 1                    0     4.40273  -1.32767   0.12961 
 1                    0     2.25784  -2.20636   1.12681 
 1                    0     2.75596  -0.64053   1.84602 
 1                    0    -1.65937  -1.92609  -1.00128 
 
 The following ModRedundant input section has been read:
 D       6       7      13      15 F                                           
 D       1       2       4      16 F                                           
 D       7      13      15      16 F                                           
 D       7       9      10      11 F                                           
 D       9      10      11      12 F                                           
 

 GradGradGradGradGradGradGradGradGradGradGradGradGradGradGradGradGradGrad
 Berny optimization.
 Initialization pass.
                           ----------------------------
                           !    Initial Parameters    !
                           ! (Angstroms and Degrees)  !
 --------------------------                            --------------------------
 ! Name  Definition              Value          Derivative Info.                !
 --------------------------------------------------------------------------------
 ! R1    R(1,2)                  1.2295         estimate D2E/DX2                !
 ! R2    R(2,3)                  1.2313         estimate D2E/DX2                !
 ! R3    R(2,4)                  1.5198         estimate D2E/DX2                !
 ! R4    R(4,5)                  1.3957         estimate D2E/DX2                !
 ! R5    R(4,16)                 1.4872         estimate D2E/DX2                !
 ! R6    R(5,6)                  1.3659         estimate D2E/DX2                !
 ! R7    R(5,17)                 1.1027         estimate D2E/DX2                !
 ! R8    R(6,7)                  1.4896         estimate D2E/DX2                !
 ! R9    R(6,18)                 1.0224         estimate D2E/DX2                !
 ! R10   R(7,8)                  1.1118         estimate D2E/DX2                !
 ! R11   R(7,9)                  1.5506         estimate D2E/DX2                !
 ! R12   R(7,13)                 1.5519         estimate D2E/DX2                !
 ! R13   R(9,10)                 1.5379         estimate D2E/DX2                !
 ! R14   R(9,19)                 1.1156         estimate D2E/DX2                !
 ! R15   R(9,20)                 1.1118         estimate D2E/DX2                !
 ! R16   R(10,11)                1.5318         estimate D2E/DX2                !
 ! R17   R(10,21)                1.1124         estimate D2E/DX2                !
 ! R18   R(10,22)                1.1135         estimate D2E/DX2                !
 ! R19   R(11,12)                1.5342         estimate D2E/DX2                !
 ! R20   R(11,23)                1.1148         estimate D2E/DX2                !
 ! R21   R(11,24)                1.1118         estimate D2E/DX2                !
 ! R22   R(12,13)                1.5488         estimate D2E/DX2                !
 ! R23   R(12,25)                1.1123         estimate D2E/DX2                !
 ! R24   R(12,26)                1.1129         estimate D2E/DX2                !
 ! R25   R(13,14)                1.1211         estimate D2E/DX2                !
 ! R26   R(13,15)                1.4764         estimate D2E/DX2                !
 ! R27   R(15,16)                1.2979         estimate D2E/DX2                !
 ! R28   R(16,27)                1.1006         estimate D2E/DX2                !
 ! A1    A(1,2,3)              124.0879         estimate D2E/DX2                !
 ! A2    A(1,2,4)              117.5038         estimate D2E/DX2                !
 ! A3    A(3,2,4)              118.4083         estimate D2E/DX2                !
 ! A4    A(2,4,5)              117.6977         estimate D2E/DX2                !
 ! A5    A(2,4,16)             117.6459         estimate D2E/DX2                !
 ! A6    A(5,4,16)             124.6301         estimate D2E/DX2                !
 ! A7    A(4,5,6)              121.1709         estimate D2E/DX2                !
 ! A8    A(4,5,17)             120.156          estimate D2E/DX2                !
 ! A9    A(6,5,17)             118.6677         estimate D2E/DX2                !
 ! A10   A(5,6,7)              125.7249         estimate D2E/DX2                !
 ! A11   A(5,6,18)             123.0474         estimate D2E/DX2                !
 ! A12   A(7,6,18)             109.3716         estimate D2E/DX2                !
 ! A13   A(6,7,8)              109.8892         estimate D2E/DX2                !
 ! A14   A(6,7,9)              105.2113         estimate D2E/DX2                !
 ! A15   A(6,7,13)             114.8018         estimate D2E/DX2                !
 ! A16   A(8,7,9)              108.7151         estimate D2E/DX2                !
 ! A17   A(8,7,13)             108.5922         estimate D2E/DX2                !
 ! A18   A(9,7,13)             109.4627         estimate D2E/DX2                !
 ! A19   A(7,9,10)             114.2548         estimate D2E/DX2                !
 ! A20   A(7,9,19)             108.427          estimate D2E/DX2                !
 ! A21   A(7,9,20)             110.2028         estimate D2E/DX2                !
 ! A22   A(10,9,19)            107.1923         estimate D2E/DX2                !
 ! A23   A(10,9,20)            108.5361         estimate D2E/DX2                !
 ! A24   A(19,9,20)            108.0186         estimate D2E/DX2                !
 ! A25   A(9,10,11)            111.2783         estimate D2E/DX2                !
 ! A26   A(9,10,21)            110.0264         estimate D2E/DX2                !
 ! A27   A(9,10,22)            108.936          estimate D2E/DX2                !
 ! A28   A(11,10,21)           109.7854         estimate D2E/DX2                !
 ! A29   A(11,10,22)           108.8139         estimate D2E/DX2                !
 ! A30   A(21,10,22)           107.9244         estimate D2E/DX2                !
 ! A31   A(10,11,12)           110.6034         estimate D2E/DX2                !
 ! A32   A(10,11,23)           108.9371         estimate D2E/DX2                !
 ! A33   A(10,11,24)           110.441          estimate D2E/DX2                !
 ! A34   A(12,11,23)           108.4034         estimate D2E/DX2                !
 ! A35   A(12,11,24)           110.3924         estimate D2E/DX2                !
 ! A36   A(23,11,24)           107.988          estimate D2E/DX2                !
 ! A37   A(11,12,13)           113.8516         estimate D2E/DX2                !
 ! A38   A(11,12,25)           109.7274         estimate D2E/DX2                !
 ! A39   A(11,12,26)           107.9842         estimate D2E/DX2                !
 ! A40   A(13,12,25)           109.4139         estimate D2E/DX2                !
 ! A41   A(13,12,26)           108.2237         estimate D2E/DX2                !
 ! A42   A(25,12,26)           107.4258         estimate D2E/DX2                !
 ! A43   A(7,13,12)            111.0398         estimate D2E/DX2                !
 ! A44   A(7,13,14)            106.2158         estimate D2E/DX2                !
 ! A45   A(7,13,15)            116.8635         estimate D2E/DX2                !
 ! A46   A(12,13,14)           104.0524         estimate D2E/DX2                !
 ! A47   A(12,13,15)           112.2787         estimate D2E/DX2                !
 ! A48   A(14,13,15)           105.1813         estimate D2E/DX2                !
 ! A49   A(13,15,16)           119.9771         estimate D2E/DX2                !
 ! A50   A(4,16,15)            127.2019         estimate D2E/DX2                !
 ! A51   A(4,16,27)            113.822          estimate D2E/DX2                !
 ! A52   A(15,16,27)           118.9701         estimate D2E/DX2                !
 ! D1    D(1,2,4,5)           -173.5175         estimate D2E/DX2                !
 ! D2    D(1,2,4,16)             8.2604         Frozen                          !
 ! D3    D(3,2,4,5)              6.4948         estimate D2E/DX2                !
 ! D4    D(3,2,4,16)          -171.7273         estimate D2E/DX2                !
 ! D5    D(2,4,5,6)            179.6569         estimate D2E/DX2                !
 ! D6    D(2,4,5,17)             0.5201         estimate D2E/DX2                !
 ! D7    D(16,4,5,6)            -2.2572         estimate D2E/DX2                !
 ! D8    D(16,4,5,17)          178.606          estimate D2E/DX2                !
 ! D9    D(2,4,16,15)         -147.9467         estimate D2E/DX2                !
 ! D10   D(2,4,16,27)           32.9617         estimate D2E/DX2                !
 ! D11   D(5,4,16,15)           33.9665         estimate D2E/DX2                !
 ! D12   D(5,4,16,27)         -145.1251         estimate D2E/DX2                !
 ! D13   D(4,5,6,7)            -54.0395         estimate D2E/DX2                !
 ! D14   D(4,5,6,18)           143.1459         estimate D2E/DX2                !
 ! D15   D(17,5,6,7)           125.1099         estimate D2E/DX2                !
 ! D16   D(17,5,6,18)          -37.7047         estimate D2E/DX2                !
 ! D17   D(5,6,7,8)            -88.0274         estimate D2E/DX2                !
 ! D18   D(5,6,7,9)            155.1021         estimate D2E/DX2                !
 ! D19   D(5,6,7,13)            34.7028         estimate D2E/DX2                !
 ! D20   D(18,6,7,8)            76.7526         estimate D2E/DX2                !
 ! D21   D(18,6,7,9)           -40.1179         estimate D2E/DX2                !
 ! D22   D(18,6,7,13)         -160.5172         estimate D2E/DX2                !
 ! D23   D(6,7,9,10)          -177.9862         estimate D2E/DX2                !
 ! D24   D(6,7,9,19)           -58.5247         estimate D2E/DX2                !
 ! D25   D(6,7,9,20)            59.511          estimate D2E/DX2                !
 ! D26   D(8,7,9,10)            64.3456         estimate D2E/DX2                !
 ! D27   D(8,7,9,19)          -176.1929         estimate D2E/DX2                !
 ! D28   D(8,7,9,20)           -58.1572         estimate D2E/DX2                !
 ! D29   D(13,7,9,10)          -54.1277         estimate D2E/DX2                !
 ! D30   D(13,7,9,19)           65.3338         estimate D2E/DX2                !
 ! D31   D(13,7,9,20)         -176.6305         estimate D2E/DX2                !
 ! D32   D(6,7,13,12)          170.5565         estimate D2E/DX2                !
 ! D33   D(6,7,13,14)          -76.9361         estimate D2E/DX2                !
 ! D34   D(6,7,13,15)           40.0019         Frozen                          !
 ! D35   D(8,7,13,12)          -66.0183         estimate D2E/DX2                !
 ! D36   D(8,7,13,14)           46.4891         estimate D2E/DX2                !
 ! D37   D(8,7,13,15)          163.4272         estimate D2E/DX2                !
 ! D38   D(9,7,13,12)           52.5314         estimate D2E/DX2                !
 ! D39   D(9,7,13,14)          165.0388         estimate D2E/DX2                !
 ! D40   D(9,7,13,15)          -78.0231         estimate D2E/DX2                !
 ! D41   D(7,9,10,11)           54.81           Frozen                          !
 ! D42   D(7,9,10,21)          176.7204         estimate D2E/DX2                !
 ! D43   D(7,9,10,22)          -65.157          estimate D2E/DX2                !
 ! D44   D(19,9,10,11)         -65.3439         estimate D2E/DX2                !
 ! D45   D(19,9,10,21)          56.5665         estimate D2E/DX2                !
 ! D46   D(19,9,10,22)         174.6892         estimate D2E/DX2                !
 ! D47   D(20,9,10,11)         178.2167         estimate D2E/DX2                !
 ! D48   D(20,9,10,21)         -59.873          estimate D2E/DX2                !
 ! D49   D(20,9,10,22)          58.2497         estimate D2E/DX2                !
 ! D50   D(9,10,11,12)         -52.8208         Frozen                          !
 ! D51   D(9,10,11,23)          66.2286         estimate D2E/DX2                !
 ! D52   D(9,10,11,24)        -175.327          estimate D2E/DX2                !
 ! D53   D(21,10,11,12)       -174.8709         estimate D2E/DX2                !
 ! D54   D(21,10,11,23)        -55.8215         estimate D2E/DX2                !
 ! D55   D(21,10,11,24)         62.6229         estimate D2E/DX2                !
 ! D56   D(22,10,11,12)         67.2185         estimate D2E/DX2                !
 ! D57   D(22,10,11,23)       -173.7321         estimate D2E/DX2                !
 ! D58   D(22,10,11,24)        -55.2877         estimate D2E/DX2                !
 ! D59   D(10,11,12,13)         54.4833         estimate D2E/DX2                !
 ! D60   D(10,11,12,25)        177.4829         estimate D2E/DX2                !
 ! D61   D(10,11,12,26)        -65.7164         estimate D2E/DX2                !
 ! D62   D(23,11,12,13)        -64.8886         estimate D2E/DX2                !
 ! D63   D(23,11,12,25)         58.111          estimate D2E/DX2                !
 ! D64   D(23,11,12,26)        174.9117         estimate D2E/DX2                !
 ! D65   D(24,11,12,13)        177.0178         estimate D2E/DX2                !
 ! D66   D(24,11,12,25)        -59.9826         estimate D2E/DX2                !
 ! D67   D(24,11,12,26)         56.8181         estimate D2E/DX2                !
 ! D68   D(11,12,13,7)         -54.9874         estimate D2E/DX2                !
 ! D69   D(11,12,13,14)       -168.8607         estimate D2E/DX2                !
 ! D70   D(11,12,13,15)         77.9183         estimate D2E/DX2                !
 ! D71   D(25,12,13,7)        -178.1581         estimate D2E/DX2                !
 ! D72   D(25,12,13,14)         67.9687         estimate D2E/DX2                !
 ! D73   D(25,12,13,15)        -45.2523         estimate D2E/DX2                !
 ! D74   D(26,12,13,7)          65.0774         estimate D2E/DX2                !
 ! D75   D(26,12,13,14)        -48.7959         estimate D2E/DX2                !
 ! D76   D(26,12,13,15)       -162.0168         estimate D2E/DX2                !
 ! D77   D(7,13,15,16)         -67.1598         Frozen                          !
 ! D78   D(12,13,15,16)        162.8665         estimate D2E/DX2                !
 ! D79   D(14,13,15,16)         50.3435         estimate D2E/DX2                !
 ! D80   D(13,15,16,4)          13.9244         estimate D2E/DX2                !
 ! D81   D(13,15,16,27)       -167.0254         estimate D2E/DX2                !
 --------------------------------------------------------------------------------
 Trust Radius=3.00D-01 FncErr=1.00D-07 GrdErr=1.00D-07 EigMax=2.50D+02 EigMin=1.00D-04
 Number of steps in this run=    100 maximum allowed number of steps=    162.
 GradGradGradGradGradGradGradGradGradGradGradGradGradGradGradGradGradGrad

                          Input orientation:                          
 ---------------------------------------------------------------------
 Center     Atomic      Atomic             Coordinates (Angstroms)
 Number     Number       Type             X           Y           Z
 ---------------------------------------------------------------------
      1          8           0       -3.659530   -1.449570    0.520280
      2          7           0       -3.295230   -0.277290    0.451460
      3          8           0       -4.016940    0.685990    0.710820
      4          6           0       -1.862940   -0.011700    0.017940
      5          6           0       -1.402650    1.304800    0.070950
      6          7           0       -0.125740    1.622600   -0.295430
      7          6           0        1.114760    1.000210    0.245530
      8          1           0        1.445360    1.545490    1.156280
      9          6           0        2.182130    1.190290   -0.863100
     10          6           0        3.551120    0.571090   -0.534890
     11          6           0        3.419990   -0.914760   -0.186310
     12          6           0        2.374160   -1.120150    0.917220
     13          6           0        0.989700   -0.507870    0.589810
     14          1           0        0.431610   -0.562140    1.560560
     15          7           0        0.215470   -1.344430   -0.348570
     16          6           0       -1.064400   -1.167160   -0.470930
     17          1           0       -2.066960    2.110000    0.426270
     18          1           0        0.114690    2.486240   -0.786900
     19          1           0        1.813570    0.700410   -1.795170
     20          1           0        2.325500    2.271970   -1.076660
     21          1           0        4.242350    0.695920   -1.397490
     22          1           0        3.990490    1.106990    0.336680
     23          1           0        3.088320   -1.471290   -1.093510
     24          1           0        4.402730   -1.327670    0.129610
     25          1           0        2.257840   -2.206360    1.126810
     26          1           0        2.755960   -0.640530    1.846020
     27          1           0       -1.659370   -1.926090   -1.001280
 ---------------------------------------------------------------------
                    Distance matrix (angstroms):
                    1          2          3          4          5
     1  O    0.000000
     2  N    1.229508   0.000000
     3  O    2.173629   1.231276   0.000000
     4  C    2.355324   1.519846   2.367820   0.000000
     5  C    3.589145   2.495928   2.761679   1.395654   0.000000
     6  N    4.753029   3.770026   4.126889   2.405619   1.365917
     7  C    5.373151   4.595914   5.162323   3.153166   2.541772
     8  H    5.952712   5.127620   5.547422   3.829557   3.057292
     9  C    6.558017   5.820939   6.415607   4.310870   3.706239
    10  C    7.562402   6.968870   7.670758   5.473327   5.044325
    11  C    7.134767   6.775492   7.659972   5.363449   5.315119
    12  C    6.055699   5.750594   6.644615   4.471061   4.567368
    13  C    4.744151   4.293359   5.148436   2.951402   3.046035
    14  H    4.313600   3.898792   4.697817   2.819152   3.011464
    15  N    3.972604   3.755509   4.812297   2.496054   3.132528
    16  C    2.792302   2.572795   3.680787   1.487195   2.553161
    17  H    3.900725   2.684853   2.431295   2.170246   1.102682
    18  H    5.607500   4.560503   4.749151   3.286106   2.105713
    19  H    6.319695   5.665958   6.346262   4.160672   3.767196
    20  H    7.226386   6.358182   6.777681   4.894520   4.018896
    21  H    8.409559   7.821820   8.524139   6.307038   5.864561
    22  H    8.067993   7.416948   8.027214   5.967890   5.403305
    23  H    6.938175   6.675498   7.641609   5.280218   5.406612
    24  H    8.072640   7.775955   8.676605   6.403348   6.374620
    25  H    5.996322   5.917262   6.921821   4.798641   5.180953
    26  H    6.600806   6.220421   6.994320   5.007149   4.922319
    27  H    2.557901   2.739532   3.913104   2.178334   3.413830
                    6          7          8          9         10
     6  N    0.000000
     7  C    1.489580   0.000000
     8  H    2.140505   1.111797   0.000000
     9  C    2.415658   1.550635   2.178736   0.000000
    10  C    3.831751   2.594041   2.871191   1.537942   0.000000
    11  C    4.361457   3.027818   3.428490   2.534083   1.531814
    12  C    3.904190   2.556009   2.832924   2.923106   2.520744
    13  C    2.562569   1.551926   2.178257   2.533098   2.998329
    14  H    2.920347   2.153354   2.373444   3.465467   3.925107
    15  N    2.987058   2.580507   3.482648   3.249200   3.851038
    16  C    2.948668   3.155875   4.037967   4.031293   4.932406
    17  H    2.127615   3.374558   3.631526   4.534656   5.903803
    18  H    1.022362   2.067447   2.536068   2.441229   3.942126
    19  H    2.619270   2.177768   3.092054   1.115604   2.150374
    20  H    2.653409   2.198056   2.507676   1.111843   2.165330
    21  H    4.599292   3.545973   3.881580   2.185059   1.112412
    22  H    4.196280   2.879155   2.709560   2.171768   1.113494
    23  H    4.532027   3.434571   4.106316   2.821042   2.167385
    24  H    5.421420   4.030287   4.249134   3.500951   2.184511
    25  H    4.729181   3.516444   3.838928   3.937347   3.485405
    26  H    4.244026   2.819066   2.640473   3.319716   2.787299
    27  H    3.929815   4.220612   5.132863   4.948539   5.796778
                   11         12         13         14         15
    11  C    0.000000
    12  C    1.534185   0.000000
    13  C    2.583453   1.548810   0.000000
    14  H    3.479412   2.121029   1.121055   0.000000
    15  N    3.237266   2.512463   1.476422   2.074481   0.000000
    16  C    4.500496   3.708486   2.403988   2.594426   1.297869
    17  H    6.295320   5.513479   4.027798   3.830117   4.212238
    18  H    4.780431   4.584242   3.409643   3.860522   3.856984
    19  H    2.788869   3.314477   2.797648   3.842495   2.971186
    20  H    3.485094   3.935023   3.505566   4.309748   4.249787
    21  H    2.176585   3.485129   3.997275   4.985430   4.634547
    22  H    2.164824   2.812419   3.417102   4.116978   4.552999
    23  H    1.114784   2.162489   2.857613   3.863774   2.970572
    24  H    1.111790   2.185976   3.540145   4.289924   4.214509
    25  H    2.177868   1.112345   2.186645   2.495339   2.662883
    26  H    2.155575   1.112868   2.171483   2.343125   3.430130
    27  H    5.242791   4.538672   3.400072   3.577091   2.068667
                   16         17         18         19         20
    16  C    0.000000
    17  H    3.542580   0.000000
    18  H    3.851937   2.524467   0.000000
    19  H    3.677518   4.688310   2.663079   0.000000
    20  H    4.866821   4.645292   2.239990   1.802257   0.000000
    21  H    5.700103   6.718118   4.540445   2.461126   2.502235
    22  H    5.601420   6.140583   4.264574   3.073934   2.475258
    23  H    4.210129   6.458505   4.959690   2.614115   3.820232
    24  H    5.502356   7.332290   5.811470   3.810726   4.327514
    25  H    3.830142   6.150253   5.502352   4.145438   4.991523
    26  H    4.498972   5.730765   4.866751   3.993054   4.148495
    27  H    1.100561   4.300471   4.760452   4.426068   5.788660
                   21         22         23         24         25
    21  H    0.000000
    22  H    1.799933   0.000000
    23  H    2.474063   3.083323   0.000000
    24  H    2.540211   2.477981   1.801200   0.000000
    25  H    4.328233   3.821606   2.481904   2.523303   0.000000
    26  H    3.809962   2.618396   3.072696   2.475899   1.793658
    27  H    6.470102   6.550621   4.770315   6.195650   4.466750
                   26         27
    26  H    0.000000
    27  H    5.408782   0.000000
 Symmetry turned off by external request.
 Stoichiometry    C9H13N3O2
 Framework group  C1[X(C9H13N3O2)]
 Deg. of freedom    75
 Full point group                 C1      NOp   1
 Rotational constants (GHZ):           1.7397365           0.3890843           0.3400541
 Standard basis: 6-31G(d) (6D, 7F)
   236 basis functions,   444 primitive gaussians,   236 cartesian basis functions
    52 alpha electrons       52 beta electrons
       nuclear repulsion energy       912.2713006194 Hartrees.
 NAtoms=   27 NActive=   27 NUniq=   27 SFac= 1.00D+00 NAtFMM=   60 NAOKFM=F Big=F
 Integral buffers will be    131072 words long.
 Raffenetti 1 integral format.
 Two-electron integral symmetry is turned off.
 One-electron integrals computed using PRISM.
 NBasis=   236 RedAO= T EigKep=  1.38D-03  NBF=   236
 NBsUse=   236 1.00D-06 EigRej= -1.00D+00 NBFU=   236
 ExpMin= 1.61D-01 ExpMax= 5.48D+03 ExpMxC= 8.25D+02 IAcc=3 IRadAn=         5 AccDes= 0.00D+00
 Harris functional with IExCor=  205 and IRadAn=       5 diagonalized for initial guess.
 HarFok:  IExCor=  205 AccDes= 0.00D+00 IRadAn=         5 IDoV= 1 UseB2=F ITyADJ=14
 ICtDFT=  3500011 ScaDFX=  1.000000  1.000000  1.000000  1.000000
 FoFCou: FMM=F IPFlag=           0 FMFlag=      100000 FMFlg1=           0
         NFxFlg=           0 DoJE=T BraDBF=F KetDBF=T FulRan=T
         wScrn=  0.000000 ICntrl=       500 IOpCl=  0 I1Cent=   200000004 NGrid=           0
         NMat0=    1 NMatS0=      1 NMatT0=    0 NMatD0=    1 NMtDS0=    0 NMtDT0=    0
 Symmetry not used in FoFCou.
 Keep R1 ints in memory in canonical form, NReq=397720213.
 Requested convergence on RMS density matrix=1.00D-08 within 128 cycles.
 Requested convergence on MAX density matrix=1.00D-06.
 Requested convergence on             energy=1.00D-06.
 No special actions if energy rises.
 SCF Done:  E(RHF) =  -661.263941475     A.U. after   16 cycles
            NFock= 16  Conv=0.51D-08     -V/T= 2.0036
 ExpMin= 1.61D-01 ExpMax= 5.48D+03 ExpMxC= 8.25D+02 IAcc=3 IRadAn=         5 AccDes= 0.00D+00
 HarFok:  IExCor=  205 AccDes= 0.00D+00 IRadAn=         5 IDoV=-2 UseB2=F ITyADJ=14
 ICtDFT= 12500011 ScaDFX=  1.000000  1.000000  1.000000  1.000000
 Range of M.O.s used for correlation:    15   236
 NBasis=   236 NAE=    52 NBE=    52 NFC=    14 NFV=     0
 NROrb=    222 NOA=    38 NOB=    38 NVA=   184 NVB=   184
 Fully direct method using O(ONN) memory.
 JobTyp=1 Pass  1:  I=  15 to  52 NPSUse=  4 ParTrn=T ParDer=T DoDerP=T.
 Spin components of T(2) and E(2):
     alpha-alpha T2 =       0.9162714156D-01 E2=     -0.2710459807D+00
     alpha-beta  T2 =       0.5007194943D+00 E2=     -0.1493672258D+01
     beta-beta   T2 =       0.9162714156D-01 E2=     -0.2710459807D+00
 ANorm=    0.1297680152D+01
 E2 =    -0.2035764219D+01 EUMP2 =    -0.66329970569364D+03
          IDoAtm=111111111111111111111111111
          Differentiating once with respect to electric field.
                with respect to dipole field.
          Differentiating once with respect to nuclear coordinates.
 Keep R1 ints in memory in canonical form, NReq=397723379.
          There are     1 degrees of freedom in the 1st order CPHF.  IDoFFX=0 NUNeed=     1.
 LinEq1:  Iter=  0 NonCon=     1 RMS=4.53D-03 Max=9.54D-02 NDo=     1
 AX will form     1 AO Fock derivatives at one time.
 LinEq1:  Iter=  1 NonCon=     1 RMS=1.52D-03 Max=3.00D-02 NDo=     1
 LinEq1:  Iter=  2 NonCon=     1 RMS=6.38D-04 Max=1.57D-02 NDo=     1
 LinEq1:  Iter=  3 NonCon=     1 RMS=3.02D-04 Max=9.59D-03 NDo=     1
 LinEq1:  Iter=  4 NonCon=     1 RMS=9.39D-05 Max=2.09D-03 NDo=     1
 LinEq1:  Iter=  5 NonCon=     1 RMS=4.10D-05 Max=2.17D-03 NDo=     1
 LinEq1:  Iter=  6 NonCon=     1 RMS=1.70D-05 Max=6.14D-04 NDo=     1
 LinEq1:  Iter=  7 NonCon=     1 RMS=6.78D-06 Max=1.28D-04 NDo=     1
 LinEq1:  Iter=  8 NonCon=     1 RMS=2.80D-06 Max=7.62D-05 NDo=     1
 LinEq1:  Iter=  9 NonCon=     1 RMS=1.11D-06 Max=3.25D-05 NDo=     1
 LinEq1:  Iter= 10 NonCon=     1 RMS=5.18D-07 Max=1.33D-05 NDo=     1
 LinEq1:  Iter= 11 NonCon=     1 RMS=1.69D-07 Max=5.85D-06 NDo=     1
 LinEq1:  Iter= 12 NonCon=     1 RMS=5.72D-08 Max=8.05D-07 NDo=     1
 LinEq1:  Iter= 13 NonCon=     1 RMS=1.84D-08 Max=2.82D-07 NDo=     1
 LinEq1:  Iter= 14 NonCon=     1 RMS=6.27D-09 Max=1.20D-07 NDo=     1
 LinEq1:  Iter= 15 NonCon=     1 RMS=2.62D-09 Max=4.40D-08 NDo=     1
 LinEq1:  Iter= 16 NonCon=     1 RMS=9.43D-10 Max=1.63D-08 NDo=     1
 LinEq1:  Iter= 17 NonCon=     1 RMS=2.71D-10 Max=3.72D-09 NDo=     1
 LinEq1:  Iter= 18 NonCon=     1 RMS=9.15D-11 Max=1.58D-09 NDo=     1
 LinEq1:  Iter= 19 NonCon=     0 RMS=2.76D-11 Max=5.20D-10 NDo=     1
 Linear equations converged to 1.000D-10 1.000D-09 after    19 iterations.
 End of Minotr F.D. properties file   721 does not exist.
 End of Minotr F.D. properties file   722 does not exist.
 End of Minotr F.D. properties file   788 does not exist.

 **********************************************************************

            Population analysis using the SCF Density.

 **********************************************************************

 Alpha  occ. eigenvalues --  -20.60335 -20.59817 -15.85577 -15.61035 -15.57690
 Alpha  occ. eigenvalues --  -11.35005 -11.30747 -11.30674 -11.30101 -11.28079
 Alpha  occ. eigenvalues --  -11.24606 -11.23852 -11.23724 -11.23069  -1.58917
 Alpha  occ. eigenvalues --   -1.38450  -1.28054  -1.22144  -1.13270  -1.08548
 Alpha  occ. eigenvalues --   -1.01998  -1.00705  -0.93098  -0.89123  -0.85046
 Alpha  occ. eigenvalues --   -0.81648  -0.78489  -0.76495  -0.73692  -0.71045
 Alpha  occ. eigenvalues --   -0.70321  -0.70048  -0.66928  -0.64750  -0.64281
 Alpha  occ. eigenvalues --   -0.62089  -0.60939  -0.57775  -0.55876  -0.54821
 Alpha  occ. eigenvalues --   -0.53101  -0.50520  -0.49221  -0.48669  -0.47624
 Alpha  occ. eigenvalues --   -0.47269  -0.46245  -0.45286  -0.44260  -0.41393
 Alpha  occ. eigenvalues --   -0.40131  -0.34481
 Alpha virt. eigenvalues --    0.05921   0.11547   0.19501   0.20784   0.22996
 Alpha virt. eigenvalues --    0.23618   0.26291   0.27742   0.28376   0.29642
 Alpha virt. eigenvalues --    0.29935   0.30245   0.30966   0.31828   0.33012
 Alpha virt. eigenvalues --    0.33251   0.34593   0.36529   0.38137   0.39009
 Alpha virt. eigenvalues --    0.40346   0.42465   0.43672   0.45061   0.46262
 Alpha virt. eigenvalues --    0.46887   0.48659   0.52276   0.57777   0.58994
 Alpha virt. eigenvalues --    0.62980   0.68335   0.71609   0.72140   0.73511
 Alpha virt. eigenvalues --    0.74394   0.75373   0.76054   0.76493   0.79352
 Alpha virt. eigenvalues --    0.80402   0.82067   0.82921   0.85000   0.88012
 Alpha virt. eigenvalues --    0.88961   0.90768   0.91963   0.93306   0.94796
 Alpha virt. eigenvalues --    0.96959   0.97586   0.99002   1.00278   1.00572
 Alpha virt. eigenvalues --    1.01955   1.03370   1.04699   1.06626   1.07699
 Alpha virt. eigenvalues --    1.08508   1.09883   1.10869   1.11335   1.12254
 Alpha virt. eigenvalues --    1.13516   1.13830   1.14353   1.16395   1.17102
 Alpha virt. eigenvalues --    1.17968   1.19876   1.20398   1.20923   1.21499
 Alpha virt. eigenvalues --    1.22949   1.23890   1.24972   1.25928   1.26821
 Alpha virt. eigenvalues --    1.27940   1.31390   1.36463   1.39162   1.40964
 Alpha virt. eigenvalues --    1.44093   1.44263   1.44956   1.46786   1.49872
 Alpha virt. eigenvalues --    1.52846   1.56473   1.60332   1.62827   1.64419
 Alpha virt. eigenvalues --    1.66973   1.68210   1.71188   1.72862   1.76925
 Alpha virt. eigenvalues --    1.78302   1.82134   1.84237   1.87893   1.92047
 Alpha virt. eigenvalues --    1.92855   1.94257   1.96359   2.00183   2.02403
 Alpha virt. eigenvalues --    2.03431   2.05589   2.05810   2.08309   2.10268
 Alpha virt. eigenvalues --    2.11566   2.15022   2.16815   2.18050   2.19174
 Alpha virt. eigenvalues --    2.19984   2.22821   2.23797   2.24767   2.29017
 Alpha virt. eigenvalues --    2.29798   2.31128   2.32167   2.33715   2.35375
 Alpha virt. eigenvalues --    2.37826   2.39162   2.42082   2.43020   2.45115
 Alpha virt. eigenvalues --    2.47556   2.51638   2.54650   2.56680   2.59819
 Alpha virt. eigenvalues --    2.61223   2.62427   2.67961   2.68834   2.69506
 Alpha virt. eigenvalues --    2.70891   2.73423   2.74204   2.77713   2.79686
 Alpha virt. eigenvalues --    2.81515   2.83936   2.91246   2.92053   2.93364
 Alpha virt. eigenvalues --    2.96427   2.99314   3.01832   3.02650   3.07131
 Alpha virt. eigenvalues --    3.08954   3.12771   3.20176   3.21601   3.23054
 Alpha virt. eigenvalues --    3.27500   3.34928   3.35591   3.42560   3.57114
 Alpha virt. eigenvalues --    4.08313   4.23199   4.32153   4.35710   4.40536
 Alpha virt. eigenvalues --    4.52990   4.55969   4.61161   4.69091   4.76187
 Alpha virt. eigenvalues --    4.91969   4.97872   5.03296   5.10137
          Condensed to atoms (all electrons):
               1          2          3          4          5          6
     1  O    8.295105   0.312612  -0.088172  -0.079696   0.003110  -0.000021
     2  N    0.312612   5.707629   0.307905   0.246239  -0.043141   0.001107
     3  O   -0.088172   0.307905   8.322354  -0.083889   0.007194   0.000383
     4  C   -0.079696   0.246239  -0.083889   5.213921   0.598788  -0.063873
     5  C    0.003110  -0.043141   0.007194   0.598788   4.666834   0.300685
     6  N   -0.000021   0.001107   0.000383  -0.063873   0.300685   7.227258
     7  C    0.000003  -0.000087   0.000003   0.000178  -0.031434   0.221925
     8  H   -0.000000   0.000009  -0.000000   0.000795  -0.001737  -0.049162
     9  C   -0.000000  -0.000001   0.000000  -0.000095   0.004445  -0.073616
    10  C   -0.000000   0.000000  -0.000000   0.000003  -0.000082   0.003517
    11  C    0.000000  -0.000000  -0.000000  -0.000015   0.000012  -0.000219
    12  C   -0.000000   0.000003  -0.000000   0.000113  -0.000074   0.002648
    13  C   -0.000014  -0.000083  -0.000003  -0.015715   0.002062  -0.044574
    14  H   -0.000014  -0.000046  -0.000002   0.003649   0.006034  -0.003577
    15  N    0.000066   0.001763  -0.000014  -0.056073  -0.007650   0.004720
    16  C    0.006207  -0.029689   0.001860   0.320236  -0.041795  -0.002819
    17  H    0.000055  -0.002127   0.008238  -0.037235   0.384245  -0.039051
    18  H    0.000000  -0.000036   0.000006   0.001630  -0.024082   0.327953
    19  H   -0.000000   0.000000   0.000000  -0.000028  -0.000357   0.000869
    20  H    0.000000   0.000000  -0.000000  -0.000007  -0.000052  -0.004190
    21  H   -0.000000  -0.000000   0.000000  -0.000000   0.000001  -0.000065
    22  H   -0.000000  -0.000000   0.000000   0.000000  -0.000002  -0.000073
    23  H    0.000000  -0.000000   0.000000   0.000007   0.000001  -0.000036
    24  H    0.000000   0.000000   0.000000   0.000000  -0.000000   0.000004
    25  H    0.000000  -0.000000   0.000000   0.000021  -0.000001  -0.000049
    26  H   -0.000000  -0.000000   0.000000   0.000007   0.000000  -0.000032
    27  H    0.003812   0.000632  -0.000022  -0.067351   0.001678   0.000204
               7          8          9         10         11         12
     1  O    0.000003  -0.000000  -0.000000  -0.000000   0.000000  -0.000000
     2  N   -0.000087   0.000009  -0.000001   0.000000  -0.000000   0.000003
     3  O    0.000003  -0.000000   0.000000  -0.000000  -0.000000  -0.000000
     4  C    0.000178   0.000795  -0.000095   0.000003  -0.000015   0.000113
     5  C   -0.031434  -0.001737   0.004445  -0.000082   0.000012  -0.000074
     6  N    0.221925  -0.049162  -0.073616   0.003517  -0.000219   0.002648
     7  C    4.935903   0.406042   0.345420  -0.041266  -0.007118  -0.049463
     8  H    0.406042   0.554706  -0.051577   0.002120   0.000086   0.001866
     9  C    0.345420  -0.051577   5.199585   0.325874  -0.055945  -0.008535
    10  C   -0.041266   0.002120   0.325874   5.110346   0.334439  -0.060813
    11  C   -0.007118   0.000086  -0.055945   0.334439   5.122448   0.325545
    12  C   -0.049463   0.001866  -0.008535  -0.060813   0.325545   5.134519
    13  C    0.325800  -0.044142  -0.046815  -0.004243  -0.049065   0.355443
    14  H   -0.045640  -0.002974   0.005090  -0.000440   0.004638  -0.050340
    15  N   -0.054641   0.003322  -0.002757   0.000443  -0.000128  -0.059428
    16  C   -0.000982  -0.000156   0.000394  -0.000025  -0.000002   0.001737
    17  H    0.001719   0.000164  -0.000088   0.000001   0.000000   0.000002
    18  H   -0.028046   0.000241  -0.002680  -0.000060   0.000010  -0.000085
    19  H   -0.038936   0.004262   0.388798  -0.038198  -0.002471   0.000638
    20  H   -0.039279  -0.003342   0.394596  -0.035140   0.004241  -0.000290
    21  H    0.003444  -0.000121  -0.035685   0.403184  -0.037857   0.004474
    22  H   -0.002333   0.002325  -0.046894   0.393905  -0.044447  -0.002403
    23  H    0.000920   0.000021  -0.003098  -0.042414   0.397607  -0.041823
    24  H   -0.000143  -0.000017   0.004372  -0.038045   0.401856  -0.036758
    25  H    0.003862  -0.000162  -0.000271   0.004292  -0.034305   0.396850
    26  H   -0.000726   0.001371   0.000191  -0.003155  -0.045526   0.394140
    27  H   -0.000371   0.000008  -0.000006   0.000001   0.000001   0.000002
              13         14         15         16         17         18
     1  O   -0.000014  -0.000014   0.000066   0.006207   0.000055   0.000000
     2  N   -0.000083  -0.000046   0.001763  -0.029689  -0.002127  -0.000036
     3  O   -0.000003  -0.000002  -0.000014   0.001860   0.008238   0.000006
     4  C   -0.015715   0.003649  -0.056073   0.320236  -0.037235   0.001630
     5  C    0.002062   0.006034  -0.007650  -0.041795   0.384245  -0.024082
     6  N   -0.044574  -0.003577   0.004720  -0.002819  -0.039051   0.327953
     7  C    0.325800  -0.045640  -0.054641  -0.000982   0.001719  -0.028046
     8  H   -0.044142  -0.002974   0.003322  -0.000156   0.000164   0.000241
     9  C   -0.046815   0.005090  -0.002757   0.000394  -0.000088  -0.002680
    10  C   -0.004243  -0.000440   0.000443  -0.000025   0.000001  -0.000060
    11  C   -0.049065   0.004638  -0.000128  -0.000002   0.000000   0.000010
    12  C    0.355443  -0.050340  -0.059428   0.001737   0.000002  -0.000085
    13  C    5.046827   0.403573   0.236990  -0.063631  -0.000187   0.003323
    14  H    0.403573   0.559653  -0.045970  -0.006834   0.000129  -0.000107
    15  N    0.236990  -0.045970   6.901967   0.587633  -0.000084   0.000027
    16  C   -0.063631  -0.006834   0.587633   4.689215   0.001612  -0.000176
    17  H   -0.000187   0.000129  -0.000084   0.001612   0.408544  -0.001562
    18  H    0.003323  -0.000107   0.000027  -0.000176  -0.001562   0.322688
    19  H   -0.005755   0.000031   0.004029   0.000609   0.000005   0.000233
    20  H    0.004212  -0.000088  -0.000077  -0.000016  -0.000000   0.004823
    21  H   -0.000297   0.000011  -0.000010   0.000000  -0.000000  -0.000009
    22  H    0.000333  -0.000074   0.000009   0.000000  -0.000000   0.000004
    23  H   -0.005142  -0.000010   0.004166   0.000037  -0.000000   0.000000
    24  H    0.004027  -0.000081  -0.000077   0.000001   0.000000  -0.000000
    25  H   -0.032894  -0.002114   0.000715   0.000109  -0.000000   0.000002
    26  H   -0.044873  -0.003132   0.003698  -0.000047  -0.000000   0.000001
    27  H    0.004384  -0.000139  -0.038054   0.403201  -0.000050   0.000007
              19         20         21         22         23         24
     1  O   -0.000000   0.000000  -0.000000  -0.000000   0.000000   0.000000
     2  N    0.000000   0.000000  -0.000000  -0.000000  -0.000000   0.000000
     3  O    0.000000  -0.000000   0.000000   0.000000   0.000000   0.000000
     4  C   -0.000028  -0.000007  -0.000000   0.000000   0.000007   0.000000
     5  C   -0.000357  -0.000052   0.000001  -0.000002   0.000001  -0.000000
     6  N    0.000869  -0.004190  -0.000065  -0.000073  -0.000036   0.000004
     7  C   -0.038936  -0.039279   0.003444  -0.002333   0.000920  -0.000143
     8  H    0.004262  -0.003342  -0.000121   0.002325   0.000021  -0.000017
     9  C    0.388798   0.394596  -0.035685  -0.046894  -0.003098   0.004372
    10  C   -0.038198  -0.035140   0.403184   0.393905  -0.042414  -0.038045
    11  C   -0.002471   0.004241  -0.037857  -0.044447   0.397607   0.401856
    12  C    0.000638  -0.000290   0.004474  -0.002403  -0.041823  -0.036758
    13  C   -0.005755   0.004212  -0.000297   0.000333  -0.005142   0.004027
    14  H    0.000031  -0.000088   0.000011  -0.000074  -0.000010  -0.000081
    15  N    0.004029  -0.000077  -0.000010   0.000009   0.004166  -0.000077
    16  C    0.000609  -0.000016   0.000000   0.000000   0.000037   0.000001
    17  H    0.000005  -0.000000  -0.000000  -0.000000  -0.000000   0.000000
    18  H    0.000233   0.004823  -0.000009   0.000004   0.000000  -0.000000
    19  H    0.521339  -0.025907  -0.003185   0.004318   0.002515  -0.000054
    20  H   -0.025907   0.552465  -0.002749  -0.003059  -0.000067  -0.000085
    21  H   -0.003185  -0.002749   0.527525  -0.025108  -0.002983  -0.002016
    22  H    0.004318  -0.003059  -0.025108   0.570445   0.004314  -0.003172
    23  H    0.002515  -0.000067  -0.002983   0.004314   0.531444  -0.024328
    24  H   -0.000054  -0.000085  -0.002016  -0.003172  -0.024328   0.533399
    25  H   -0.000059   0.000010  -0.000083  -0.000106  -0.002583  -0.002177
    26  H    0.000069  -0.000041  -0.000091   0.003183   0.004473  -0.003052
    27  H    0.000010  -0.000000  -0.000000   0.000000  -0.000005  -0.000000
              25         26         27
     1  O    0.000000  -0.000000   0.003812
     2  N   -0.000000  -0.000000   0.000632
     3  O    0.000000   0.000000  -0.000022
     4  C    0.000021   0.000007  -0.067351
     5  C   -0.000001   0.000000   0.001678
     6  N   -0.000049  -0.000032   0.000204
     7  C    0.003862  -0.000726  -0.000371
     8  H   -0.000162   0.001371   0.000008
     9  C   -0.000271   0.000191  -0.000006
    10  C    0.004292  -0.003155   0.000001
    11  C   -0.034305  -0.045526   0.000001
    12  C    0.396850   0.394140   0.000002
    13  C   -0.032894  -0.044873   0.004384
    14  H   -0.002114  -0.003132  -0.000139
    15  N    0.000715   0.003698  -0.038054
    16  C    0.000109  -0.000047   0.403201
    17  H   -0.000000  -0.000000  -0.000050
    18  H    0.000002   0.000001   0.000007
    19  H   -0.000059   0.000069   0.000010
    20  H    0.000010  -0.000041  -0.000000
    21  H   -0.000083  -0.000091  -0.000000
    22  H   -0.000106   0.003183   0.000000
    23  H   -0.002583   0.004473  -0.000005
    24  H   -0.002177  -0.003052  -0.000000
    25  H    0.501917  -0.023513  -0.000020
    26  H   -0.023513   0.563666   0.000001
    27  H   -0.000020   0.000001   0.457416
 Mulliken charges:
               1
     1  O   -0.453054
     2  N    0.497313
     3  O   -0.475843
     4  C    0.018388
     5  C    0.175315
     6  N   -0.809915
     7  C    0.095247
     8  H    0.176051
     9  C   -0.340705
    10  C   -0.314242
    11  C   -0.313785
    12  C   -0.307966
    13  C   -0.029541
    14  H    0.178775
    15  N   -0.484586
    16  C    0.133321
    17  H    0.275671
    18  H    0.395894
    19  H    0.187225
    20  H    0.154043
    21  H    0.171620
    22  H    0.148834
    23  H    0.176986
    24  H    0.166346
    25  H    0.190560
    26  H    0.153387
    27  H    0.234660
 Sum of Mulliken charges =  -0.00000
 Mulliken charges with hydrogens summed into heavy atoms:
               1
     1  O   -0.453054
     2  N    0.497313
     3  O   -0.475843
     4  C    0.018388
     5  C    0.450986
     6  N   -0.414021
     7  C    0.271298
     9  C    0.000563
    10  C    0.006212
    11  C    0.029547
    12  C    0.035981
    13  C    0.149233
    15  N   -0.484586
    16  C    0.367981
 Electronic spatial extent (au):  <R**2>=           3213.9498
 Charge=             -0.0000 electrons
 Dipole moment (field-independent basis, Debye):
    X=              5.1508    Y=              4.0103    Z=             -0.4883  Tot=              6.5461
 Quadrupole moment (field-independent basis, Debye-Ang):
   XX=           -103.4595   YY=            -81.3697   ZZ=            -83.0464
   XY=             -1.8773   XZ=              6.0583   YZ=             -1.2582
 Traceless Quadrupole moment (field-independent basis, Debye-Ang):
   XX=            -14.1676   YY=              7.9222   ZZ=              6.2455
   XY=             -1.8773   XZ=              6.0583   YZ=             -1.2582
 Octapole moment (field-independent basis, Debye-Ang**2):
  XXX=            101.4815  YYY=             31.1876  ZZZ=            -11.6851  XYY=             -0.3547
  XXY=              7.9528  XXZ=            -27.4857  XZZ=             -3.2480  YZZ=              1.8190
  YYZ=             -9.0081  XYZ=             -5.5329
 Hexadecapole moment (field-independent basis, Debye-Ang**3):
 XXXX=          -3651.5500 YYYY=           -661.4349 ZZZZ=           -276.6258 XXXY=            -62.6142
 XXXZ=            221.1754 YYYX=            -46.0422 YYYZ=             27.7990 ZZZX=            121.4343
 ZZZY=             42.5175 XXYY=           -681.4961 XXZZ=           -575.6224 YYZZ=           -159.4161
 XXYZ=             19.4939 YYXZ=             54.4662 ZZXY=             -3.1272
 N-N= 9.122713006194D+02 E-N=-3.370515525992D+03  KE= 6.588661761239D+02
 Calling FoFJK, ICntrl=  10002127 FMM=F ISym2X=0 I1Cent= 0 IOpClX= 0 NMat=1 NMatS=1 NMatT=0.
 -------------------------------------------------------------------
 Center     Atomic                   Forces (Hartrees/Bohr)
 Number     Number              X              Y              Z
 -------------------------------------------------------------------
      1        8           0.000989322   -0.020560638   -0.002901978
      2        7           0.034822979    0.013203762   -0.007121209
      3        8          -0.004823231    0.014680678    0.001872302
      4        6          -0.001052374    0.015912584    0.013611346
      5        6          -0.014678895   -0.023108476    0.001480852
      6        7           0.024582021   -0.011612454    0.006144341
      7        6           0.010002247   -0.006504715   -0.026815127
      8        1          -0.002674571   -0.004310326   -0.003454919
      9        6           0.003666791   -0.003560834   -0.008484535
     10        6           0.004325371    0.003395157    0.007084663
     11        6          -0.004414386   -0.005234019   -0.008030121
     12        6           0.004272320   -0.002046543   -0.002259308
     13        6          -0.019692950    0.006247373    0.026070712
     14        1           0.001889180    0.002714636   -0.009444837
     15        7           0.002968339    0.001399071   -0.004171800
     16        6          -0.008486923    0.009872218    0.005844209
     17        1          -0.000222827   -0.006758075   -0.011259073
     18        1          -0.014558137    0.001335348    0.011693339
     19        1          -0.000476288    0.007234932    0.010508837
     20        1          -0.003666762   -0.007572766    0.000831771
     21        1          -0.006702569    0.001629408    0.008993804
     22        1          -0.001356563   -0.003798082   -0.008387302
     23        1           0.004813265    0.004303315    0.008872995
     24        1          -0.009523535    0.002834938   -0.003478560
     25        1          -0.002465457    0.011802286   -0.001036550
     26        1          -0.005558653   -0.004009860   -0.006172165
     27        1           0.008022284    0.002511082    0.000008312
 -------------------------------------------------------------------
 Cartesian Forces:  Max     0.034822979 RMS     0.010086790

 GradGradGradGradGradGradGradGradGradGradGradGradGradGradGradGradGradGrad
 Berny optimization.
 FormGI is forming the generalized inverse of G from B-inverse, IUseBI=4.
 Internal  Forces:  Max     0.038001318 RMS     0.006625072
 Search for a local minimum.
 Step number   1 out of a maximum of  100
 All quantities printed in internal units (Hartrees-Bohrs-Radians)
 Mixed Optimization -- RFO/linear search
 Second derivative matrix not updated -- first step.
 ITU=  0
     Eigenvalues ---    0.00230   0.00768   0.01059   0.01145   0.01266
     Eigenvalues ---    0.01480   0.01542   0.01978   0.02108   0.02145
     Eigenvalues ---    0.02244   0.02689   0.03631   0.04699   0.04719
     Eigenvalues ---    0.04842   0.04950   0.05165   0.05323   0.05587
     Eigenvalues ---    0.06606   0.07049   0.07930   0.08035   0.08117
     Eigenvalues ---    0.08455   0.08498   0.09135   0.10621   0.11936
     Eigenvalues ---    0.12611   0.13833   0.15355   0.15819   0.15999
     Eigenvalues ---    0.16000   0.19940   0.20387   0.23205   0.24987
     Eigenvalues ---    0.25000   0.25000   0.25443   0.26192   0.26823
     Eigenvalues ---    0.28343   0.28548   0.28650   0.30381   0.31411
     Eigenvalues ---    0.31457   0.32014   0.32099   0.32233   0.32298
     Eigenvalues ---    0.32346   0.32353   0.32406   0.32411   0.32411
     Eigenvalues ---    0.32657   0.33387   0.33620   0.34192   0.43963
     Eigenvalues ---    0.44351   0.48865   0.64760   0.90557   0.91291
     Eigenvalues --- 1000.000001000.000001000.000001000.000001000.00000
     Eigenvalues --- 1000.000001000.000001000.000001000.000001000.00000
     Eigenvalues --- 1000.000001000.000001000.000001000.000001000.00000
     Eigenvalues --- 1000.000001000.000001000.000001000.000001000.00000
     Eigenvalues --- 1000.000001000.000001000.000001000.000001000.00000
     Eigenvalues --- 1000.000001000.000001000.000001000.000001000.00000
     Eigenvalues --- 1000.000001000.000001000.000001000.000001000.00000
     Eigenvalues --- 1000.000001000.000001000.000001000.000001000.00000
     Eigenvalues --- 1000.000001000.000001000.000001000.000001000.00000
     Eigenvalues --- 1000.000001000.000001000.000001000.000001000.00000
     Eigenvalues --- 1000.000001000.000001000.000001000.000001000.00000
     Eigenvalues --- 1000.000001000.000001000.000001000.000001000.00000
     Eigenvalues --- 1000.000001000.000001000.000001000.000001000.00000
     Eigenvalues --- 1000.000001000.000001000.000001000.000001000.00000
     Eigenvalues --- 1000.000001000.000001000.000001000.000001000.00000
     Eigenvalues --- 1000.000001000.000001000.000001000.000001000.00000
     Eigenvalues --- 1000.000001000.000001000.000001000.000001000.00000
     Eigenvalues --- 1000.000001000.000001000.000001000.000001000.00000
     Eigenvalues --- 1000.00000
 RFO step:  Lambda=-2.29498131D-02 EMin= 2.30000169D-03
 Linear search not attempted -- first point.
 Iteration  1 RMS(Cart)=  0.04307748 RMS(Int)=  0.00117156
 Iteration  2 RMS(Cart)=  0.00121338 RMS(Int)=  0.00039131
 Iteration  3 RMS(Cart)=  0.00000079 RMS(Int)=  0.00039131
 Iteration  1 RMS(Cart)=  0.00002859 RMS(Int)=  0.00001902
 Iteration  2 RMS(Cart)=  0.00001668 RMS(Int)=  0.00002093
 Iteration  3 RMS(Cart)=  0.00000997 RMS(Int)=  0.00002374
 Iteration  4 RMS(Cart)=  0.00000624 RMS(Int)=  0.00002602
 Iteration  5 RMS(Cart)=  0.00000420 RMS(Int)=  0.00002775
 Iteration  6 RMS(Cart)=  0.00000309 RMS(Int)=  0.00002907
 Iteration  7 RMS(Cart)=  0.00000245 RMS(Int)=  0.00003011
 Iteration  8 RMS(Cart)=  0.00000205 RMS(Int)=  0.00003095
 Iteration  9 RMS(Cart)=  0.00000176 RMS(Int)=  0.00003165
 Iteration 10 RMS(Cart)=  0.00000152 RMS(Int)=  0.00003225
 Iteration 11 RMS(Cart)=  0.00000132 RMS(Int)=  0.00003277
 Iteration 12 RMS(Cart)=  0.00000115 RMS(Int)=  0.00003321
 Iteration 13 RMS(Cart)=  0.00000100 RMS(Int)=  0.00003360
 Iteration 14 RMS(Cart)=  0.00000088 RMS(Int)=  0.00003394
 Variable       Old X    -DE/DX   Delta X   Delta X   Delta X     New X
                                 (Linear)    (Quad)   (Total)
    R1        2.32343   0.01915   0.00000   0.02046   0.02046   2.34389
    R2        2.32677   0.01471   0.00000   0.01584   0.01584   2.34261
    R3        2.87209  -0.03281   0.00000  -0.10040  -0.10040   2.77169
    R4        2.63740  -0.03800   0.00000  -0.08292  -0.08270   2.55470
    R5        2.81039  -0.01649   0.00000  -0.05529  -0.05500   2.75539
    R6        2.58121  -0.00297   0.00000  -0.00370  -0.00373   2.57748
    R7        2.08377  -0.00843   0.00000  -0.02362  -0.02362   2.06015
    R8        2.81490  -0.01630   0.00000  -0.04095  -0.04093   2.77397
    R9        1.93198  -0.00792   0.00000  -0.01711  -0.01711   1.91487
   R10        2.10099  -0.00574   0.00000  -0.01654  -0.01654   2.08445
   R11        2.93028  -0.00972   0.00000  -0.03365  -0.03368   2.89660
   R12        2.93271  -0.01389   0.00000  -0.03613  -0.03631   2.89640
   R13        2.90629  -0.00666   0.00000  -0.01933  -0.01938   2.88691
   R14        2.10819  -0.01180   0.00000  -0.03439  -0.03439   2.07379
   R15        2.10108  -0.00800   0.00000  -0.02305  -0.02305   2.07802
   R16        2.89471  -0.00217   0.00000  -0.00947  -0.00944   2.88527
   R17        2.10215  -0.01096   0.00000  -0.03163  -0.03163   2.07053
   R18        2.10420  -0.00893   0.00000  -0.02586  -0.02586   2.07834
   R19        2.89919  -0.00517   0.00000  -0.01543  -0.01540   2.88379
   R20        2.10664  -0.01080   0.00000  -0.03140  -0.03140   2.07523
   R21        2.10098  -0.01046   0.00000  -0.03014  -0.03014   2.07084
   R22        2.92683  -0.01262   0.00000  -0.04424  -0.04419   2.88264
   R23        2.10203  -0.01146   0.00000  -0.03308  -0.03308   2.06894
   R24        2.10302  -0.00879   0.00000  -0.02540  -0.02540   2.07762
   R25        2.11849  -0.00925   0.00000  -0.02741  -0.02741   2.09108
   R26        2.79003  -0.01115   0.00000  -0.02452  -0.02486   2.76517
   R27        2.45262  -0.01398   0.00000  -0.02206  -0.02205   2.43056
   R28        2.07976  -0.00607   0.00000  -0.01691  -0.01691   2.06285
    A1        2.16574   0.01007   0.00000   0.03690   0.03669   2.20243
    A2        2.05083  -0.00829   0.00000  -0.03037  -0.03058   2.02025
    A3        2.06661  -0.00178   0.00000  -0.00654  -0.00675   2.05986
    A4        2.05421  -0.00193   0.00000  -0.00186  -0.00247   2.05174
    A5        2.05331  -0.00354   0.00000  -0.00771  -0.00831   2.04500
    A6        2.17521   0.00540   0.00000   0.00781   0.00734   2.18254
    A7        2.11483  -0.00019   0.00000   0.00461   0.00415   2.11898
    A8        2.09712  -0.00314   0.00000  -0.01985  -0.02018   2.07694
    A9        2.07114   0.00337   0.00000   0.01589   0.01557   2.08672
   A10        2.19431   0.00136   0.00000   0.01170   0.01134   2.20565
   A11        2.14758  -0.01314   0.00000  -0.08667  -0.08672   2.06086
   A12        1.90889   0.01147   0.00000   0.05827   0.05679   1.96569
   A13        1.91793   0.00067   0.00000   0.00977   0.00950   1.92743
   A14        1.83628   0.00303   0.00000  -0.00431  -0.00431   1.83198
   A15        2.00367  -0.00674   0.00000  -0.01979  -0.01967   1.98400
   A16        1.89744   0.00018   0.00000   0.01702   0.01717   1.91460
   A17        1.89529  -0.00273   0.00000  -0.01512  -0.01559   1.87970
   A18        1.91048   0.00612   0.00000   0.01520   0.01536   1.92584
   A19        1.99412  -0.00231   0.00000   0.00199   0.00193   1.99605
   A20        1.89241  -0.00197   0.00000  -0.02524  -0.02529   1.86711
   A21        1.92340  -0.00063   0.00000  -0.01067  -0.01077   1.91263
   A22        1.87086   0.00326   0.00000   0.02671   0.02675   1.89761
   A23        1.89431   0.00281   0.00000   0.01782   0.01782   1.91213
   A24        1.88528  -0.00106   0.00000  -0.01063  -0.01125   1.87403
   A25        1.94217  -0.00320   0.00000  -0.01141  -0.01141   1.93076
   A26        1.92032  -0.00115   0.00000  -0.00723  -0.00714   1.91318
   A27        1.90129   0.00250   0.00000   0.00946   0.00949   1.91078
   A28        1.91612   0.00241   0.00000   0.01661   0.01657   1.93268
   A29        1.89916   0.00125   0.00000   0.00783   0.00785   1.90701
   A30        1.88364  -0.00174   0.00000  -0.01530  -0.01535   1.86829
   A31        1.93039  -0.00107   0.00000  -0.00332  -0.00351   1.92688
   A32        1.90131   0.00151   0.00000   0.00526   0.00536   1.90668
   A33        1.92756  -0.00010   0.00000   0.00488   0.00489   1.93245
   A34        1.89200   0.00136   0.00000   0.00386   0.00389   1.89589
   A35        1.92671  -0.00062   0.00000  -0.00026  -0.00018   1.92653
   A36        1.88475  -0.00102   0.00000  -0.01051  -0.01054   1.87421
   A37        1.98709   0.00111   0.00000   0.01197   0.01206   1.99915
   A38        1.91510   0.00305   0.00000   0.02142   0.02158   1.93669
   A39        1.88468   0.00046   0.00000   0.01177   0.01174   1.89642
   A40        1.90963  -0.00391   0.00000  -0.02571  -0.02597   1.88367
   A41        1.88886  -0.00073   0.00000  -0.01677  -0.01691   1.87195
   A42        1.87493  -0.00002   0.00000  -0.00354  -0.00409   1.87084
   A43        1.93801  -0.00126   0.00000  -0.00175  -0.00196   1.93606
   A44        1.85382   0.00053   0.00000  -0.01070  -0.01078   1.84304
   A45        2.03965   0.00255   0.00000   0.01306   0.01327   2.05292
   A46        1.81606   0.00270   0.00000   0.03254   0.03267   1.84873
   A47        1.95963  -0.00552   0.00000  -0.02416  -0.02416   1.93548
   A48        1.83576   0.00176   0.00000  -0.00531  -0.00522   1.83054
   A49        2.09399  -0.00709   0.00000  -0.00815  -0.00870   2.08529
   A50        2.22009   0.00067   0.00000  -0.00700  -0.00675   2.21334
   A51        1.98657   0.00514   0.00000   0.03333   0.03311   2.01968
   A52        2.07642  -0.00582   0.00000  -0.02660  -0.02679   2.04963
    D1       -3.02845  -0.00288   0.00000  -0.05901  -0.05894  -3.08739
    D2        0.14417  -0.00071   0.00000   0.00000  -0.00000   0.14417
    D3        0.11335  -0.00092   0.00000  -0.02295  -0.02291   0.09044
    D4       -2.99721   0.00125   0.00000   0.03606   0.03602  -2.96119
    D5        3.13561   0.00009   0.00000   0.00243   0.00244   3.13805
    D6        0.00908  -0.00317   0.00000  -0.04848  -0.04835  -0.03927
    D7       -0.03940  -0.00244   0.00000  -0.06142  -0.06194  -0.10134
    D8        3.11726  -0.00570   0.00000  -0.11233  -0.11273   3.00453
    D9       -2.58216  -0.00006   0.00000  -0.01603  -0.01612  -2.59828
   D10        0.57529   0.00030   0.00000   0.00412   0.00430   0.57959
   D11        0.59283   0.00244   0.00000   0.04769   0.04794   0.64076
   D12       -2.53291   0.00280   0.00000   0.06784   0.06836  -2.46455
   D13       -0.94317   0.00127   0.00000   0.03233   0.03272  -0.91045
   D14        2.49837   0.00093   0.00000   0.09923   0.09676   2.59512
   D15        2.18358   0.00443   0.00000   0.08220   0.08348   2.26706
   D16       -0.65807   0.00408   0.00000   0.14910   0.14752  -0.51055
   D17       -1.53637   0.00193   0.00000   0.01822   0.01892  -1.51744
   D18        2.70704  -0.00025   0.00000  -0.00411  -0.00356   2.70348
   D19        0.60568  -0.00605   0.00000  -0.00848  -0.00829   0.59739
   D20        1.33959  -0.00119   0.00000  -0.06154  -0.06266   1.27693
   D21       -0.70019  -0.00337   0.00000  -0.08388  -0.08515  -0.78533
   D22       -2.80155  -0.00917   0.00000  -0.08825  -0.08987  -2.89143
   D23       -3.10644   0.00249   0.00000   0.02122   0.02112  -3.08533
   D24       -1.02145   0.00376   0.00000   0.03855   0.03832  -0.98313
   D25        1.03866   0.00095   0.00000   0.00457   0.00462   1.04328
   D26        1.12304   0.00003   0.00000   0.00389   0.00389   1.12693
   D27       -3.07515   0.00130   0.00000   0.02122   0.02109  -3.05405
   D28       -1.01503  -0.00151   0.00000  -0.01276  -0.01261  -1.02764
   D29       -0.94471  -0.00031   0.00000   0.00340   0.00345  -0.94125
   D30        1.14029   0.00096   0.00000   0.02073   0.02066   1.16095
   D31       -3.08278  -0.00185   0.00000  -0.01325  -0.01304  -3.09583
   D32        2.97677   0.00204   0.00000  -0.02481  -0.02486   2.95191
   D33       -1.34279   0.00490   0.00000   0.00675   0.00668  -1.33611
   D34        0.69817   0.00898   0.00000   0.00000  -0.00001   0.69815
   D35       -1.15224  -0.00396   0.00000  -0.03776  -0.03773  -1.18997
   D36        0.81139  -0.00111   0.00000  -0.00620  -0.00619   0.80520
   D37        2.85234   0.00298   0.00000  -0.01295  -0.01288   2.83946
   D38        0.91685  -0.00183   0.00000  -0.01733  -0.01741   0.89944
   D39        2.88047   0.00102   0.00000   0.01422   0.01413   2.89460
   D40       -1.36176   0.00511   0.00000   0.00748   0.00744  -1.35432
   D41        0.95662   0.00022   0.00000   0.00000  -0.00001   0.95661
   D42        3.08435   0.00034   0.00000   0.00840   0.00843   3.09278
   D43       -1.13720  -0.00096   0.00000  -0.00875  -0.00873  -1.14594
   D44       -1.14047   0.00185   0.00000   0.01185   0.01191  -1.12855
   D45        0.98727   0.00197   0.00000   0.02025   0.02035   1.00762
   D46        3.04890   0.00067   0.00000   0.00310   0.00319   3.05209
   D47        3.11047  -0.00007   0.00000   0.00107   0.00098   3.11145
   D48       -1.04498   0.00004   0.00000   0.00947   0.00942  -1.03556
   D49        1.01665  -0.00126   0.00000  -0.00768  -0.00774   1.00891
   D50       -0.92190  -0.00293   0.00000   0.00000  -0.00001  -0.92190
   D51        1.15591  -0.00097   0.00000   0.00599   0.00598   1.16189
   D52       -3.06003  -0.00135   0.00000  -0.00073  -0.00071  -3.06074
   D53       -3.05207  -0.00099   0.00000   0.00539   0.00543  -3.04664
   D54       -0.97427   0.00097   0.00000   0.01139   0.01142  -0.96285
   D55        1.09298   0.00059   0.00000   0.00466   0.00473   1.09771
   D56        1.17318  -0.00100   0.00000   0.00973   0.00970   1.18289
   D57       -3.03220   0.00095   0.00000   0.01572   0.01569  -3.01650
   D58       -0.96495   0.00058   0.00000   0.00899   0.00900  -0.95595
   D59        0.95091   0.00247   0.00000   0.00061   0.00067   0.95158
   D60        3.09766   0.00048   0.00000  -0.00813  -0.00805   3.08961
   D61       -1.14697   0.00237   0.00000   0.00598   0.00606  -1.14091
   D62       -1.13252   0.00042   0.00000  -0.00623  -0.00621  -1.13873
   D63        1.01423  -0.00157   0.00000  -0.01498  -0.01493   0.99930
   D64        3.05278   0.00032   0.00000  -0.00087  -0.00082   3.05196
   D65        3.08954   0.00120   0.00000   0.00435   0.00434   3.09388
   D66       -1.04689  -0.00080   0.00000  -0.00439  -0.00438  -1.05127
   D67        0.99166   0.00110   0.00000   0.00971   0.00973   1.00139
   D68       -0.95971   0.00243   0.00000   0.01620   0.01615  -0.94356
   D69       -2.94718   0.00094   0.00000   0.01209   0.01203  -2.93515
   D70        1.35993  -0.00013   0.00000   0.01112   0.01145   1.37138
   D71       -3.10944   0.00063   0.00000  -0.00073  -0.00063  -3.11007
   D72        1.18628  -0.00086   0.00000  -0.00484  -0.00475   1.18153
   D73       -0.78980  -0.00194   0.00000  -0.00581  -0.00533  -0.79513
   D74        1.13581   0.00321   0.00000   0.02695   0.02670   1.16251
   D75       -0.85165   0.00172   0.00000   0.02283   0.02258  -0.82907
   D76       -2.82773   0.00064   0.00000   0.02187   0.02200  -2.80573
   D77       -1.17216  -0.00539   0.00000   0.00000  -0.00001  -1.17217
   D78        2.84256  -0.00042   0.00000   0.01432   0.01443   2.85699
   D79        0.87866  -0.00202   0.00000  -0.00979  -0.00981   0.86885
   D80        0.24303  -0.00119   0.00000  -0.02138  -0.02100   0.22202
   D81       -2.91514  -0.00148   0.00000  -0.04196  -0.04125  -2.95640
         Item               Value     Threshold  Converged?
 Maximum Force            0.038612     0.000450     NO 
 RMS     Force            0.006568     0.000300     NO 
 Maximum Displacement     0.206973     0.001800     NO 
 RMS     Displacement     0.043637     0.001200     NO 
 Predicted change in Energy=-1.338924D-02
 GradGradGradGradGradGradGradGradGradGradGradGradGradGradGradGradGradGrad

                          Input orientation:                          
 ---------------------------------------------------------------------
 Center     Atomic      Atomic             Coordinates (Angstroms)
 Number     Number       Type             X           Y           Z
 ---------------------------------------------------------------------
      1          8           0       -3.550005   -1.451763    0.489346
      2          7           0       -3.204552   -0.261067    0.452795
      3          8           0       -3.928794    0.718581    0.681961
      4          6           0       -1.815567   -0.012525    0.052549
      5          6           0       -1.381401    1.267715    0.062402
      6          7           0       -0.103543    1.587667   -0.291234
      7          6           0        1.124423    0.992771    0.250056
      8          1           0        1.440209    1.525110    1.163075
      9          6           0        2.175123    1.184566   -0.849381
     10          6           0        3.535868    0.565034   -0.535723
     11          6           0        3.387460   -0.916903   -0.199556
     12          6           0        2.347594   -1.111376    0.900281
     13          6           0        0.985710   -0.492710    0.601201
     14          1           0        0.423159   -0.522039    1.553637
     15          7           0        0.218482   -1.337581   -0.314604
     16          6           0       -1.048756   -1.153066   -0.434473
     17          1           0       -2.080681    2.060929    0.327572
     18          1           0        0.059162    2.486727   -0.729417
     19          1           0        1.776414    0.717175   -1.758707
     20          1           0        2.298364    2.257100   -1.058420
     21          1           0        4.208726    0.703690   -1.389270
     22          1           0        3.988362    1.087602    0.319704
     23          1           0        3.056665   -1.459814   -1.094982
     24          1           0        4.349703   -1.343599    0.105223
     25          1           0        2.195499   -2.174733    1.111963
     26          1           0        2.721280   -0.646410    1.823810
     27          1           0       -1.616914   -1.906091   -0.983810
 ---------------------------------------------------------------------
                    Distance matrix (angstroms):
                    1          2          3          4          5
     1  O    0.000000
     2  N    1.240336   0.000000
     3  O    2.211555   1.239658   0.000000
     4  C    2.295751   1.466714   2.323016   0.000000
     5  C    3.504381   2.411111   2.678547   1.351891   0.000000
     6  N    4.661066   3.686143   4.041654   2.368507   1.363946
     7  C    5.280463   4.511457   5.079048   3.113386   2.527838
     8  H    5.849609   5.026801   5.450519   3.767979   3.039608
     9  C    6.443564   5.720701   6.310305   4.262876   3.672482
    10  C    7.438268   6.862425   7.564886   5.414563   5.003104
    11  C    6.992073   6.656599   7.548474   5.287055   5.251973
    12  C    5.921689   5.634678   6.541364   4.388397   4.501946
    13  C    4.637349   4.199284   5.062223   2.894607   2.998769
    14  H    4.217006   3.800033   4.608520   2.743131   2.946768
    15  N    3.854979   3.669461   4.735065   2.455184   3.080475
    16  C    2.683078   2.496070   3.611662   1.458089   2.493535
    17  H    3.811048   2.582718   2.311496   2.108349   1.090182
    18  H    5.479341   4.427169   4.584989   3.220612   2.046507
    19  H    6.174850   5.536942   6.205341   4.088451   3.686642
    20  H    7.096102   6.237550   6.646312   4.828030   3.971876
    21  H    8.268801   7.699393   8.396990   6.235696   5.803016
    22  H    7.956389   7.319469   7.934026   5.913310   5.378940
    23  H    6.793986   6.560141   7.529912   5.210577   5.336233
    24  H    7.909781   7.639336   8.550949   6.307542   6.298123
    25  H    5.824187   5.766903   6.786982   4.678264   5.074075
    26  H    6.462074   6.094560   6.884076   4.911431   4.857821
    27  H    2.472538   2.700099   3.874079   2.167740   3.350085
                    6          7          8          9         10
     6  N    0.000000
     7  C    1.467923   0.000000
     8  H    2.121815   1.103046   0.000000
     9  C    2.380407   1.532813   2.169343   0.000000
    10  C    3.788253   2.572056   2.863468   1.527687   0.000000
    11  C    4.297485   2.995053   3.407635   2.511614   1.526817
    12  C    3.835702   2.519201   2.800619   2.891784   2.506881
    13  C    2.512147   1.532709   2.143331   2.516375   2.985753
    14  H    2.851635   2.117958   2.318997   3.428757   3.903346
    15  N    2.943012   2.563223   3.445454   3.236612   3.830651
    16  C    2.902682   3.129841   3.989954   4.003757   4.897029
    17  H    2.125082   3.379299   3.658119   4.501677   5.876104
    18  H    1.013305   2.079917   2.532494   2.487430   3.977173
    19  H    2.538793   2.129829   3.050017   1.097405   2.148142
    20  H    2.608807   2.165358   2.491441   1.099643   2.160489
    21  H    4.536823   3.504836   3.854073   2.158301   1.095675
    22  H    4.167373   2.866354   2.719517   2.159628   1.099811
    23  H    4.463190   3.399685   4.076950   2.798246   2.154626
    24  H    5.346111   3.985227   4.220628   3.468672   2.171640
    25  H    4.627116   3.452994   3.776495   3.890010   3.466667
    26  H    4.176618   2.777331   2.606379   3.285835   2.774626
    27  H    3.869922   4.176213   5.072303   4.893851   5.732224
                   11         12         13         14         15
    11  C    0.000000
    12  C    1.526035   0.000000
    13  C    2.567013   1.525425   0.000000
    14  H    3.466508   2.116043   1.106552   0.000000
    15  N    3.198848   2.461754   1.463265   2.048737   0.000000
    16  C    4.448705   3.649452   2.376498   2.552902   1.286198
    17  H    6.248673   5.477328   3.999837   3.800549   4.153120
    18  H    4.789887   4.564995   3.392062   3.794404   3.850037
    19  H    2.774281   3.277204   2.767345   3.786631   2.955438
    20  H    3.463824   3.896866   3.469706   4.250041   4.219112
    21  H    2.171685   3.464148   3.972553   4.949103   4.609093
    22  H    2.156096   2.804406   3.404782   4.101732   4.527235
    23  H    1.098165   2.145989   2.846257   3.850968   2.946051
    24  H    1.095843   2.166677   3.505204   4.265045   4.152503
    25  H    2.173244   1.094838   2.133932   2.463262   2.577695
    26  H    2.147317   1.099428   2.128520   2.317287   3.363708
    27  H    5.161134   4.460795   3.359101   3.537815   2.034630
                   16         17         18         19         20
    16  C    0.000000
    17  H    3.460541   0.000000
    18  H    3.816094   2.424347   0.000000
    19  H    3.637717   4.586438   2.672023   0.000000
    20  H    4.818896   4.597336   2.274862   1.770368   0.000000
    21  H    5.656880   6.659300   4.564374   2.460245   2.484356
    22  H    5.564345   6.146601   4.300793   3.057731   2.474478
    23  H    4.169514   6.388397   4.969291   2.611294   3.793653
    24  H    5.428714   7.279429   5.811778   3.787195   4.304311
    25  H    3.736369   6.069746   5.448287   4.096280   4.935817
    26  H    4.423767   5.712026   4.839668   3.947982   4.112965
    27  H    1.091614   4.203814   4.708588   4.358516   5.715516
                   21         22         23         24         25
    21  H    0.000000
    22  H    1.765372   0.000000
    23  H    2.468724   3.059203   0.000000
    24  H    2.538656   2.467247   1.768034   0.000000
    25  H    4.312141   3.805898   2.474535   2.518910   0.000000
    26  H    3.789346   2.621952   3.048518   2.468072   1.766053
    27  H    6.396360   6.486945   4.696154   6.091216   4.358776
                   26         27
    26  H    0.000000
    27  H    5.318783   0.000000
 Symmetry turned off by external request.
 Stoichiometry    C9H13N3O2
 Framework group  C1[X(C9H13N3O2)]
 Deg. of freedom    75
 Full point group                 C1      NOp   1
 Rotational constants (GHZ):           1.7780947           0.4028281           0.3508859
 Standard basis: 6-31G(d) (6D, 7F)
   236 basis functions,   444 primitive gaussians,   236 cartesian basis functions
    52 alpha electrons       52 beta electrons
       nuclear repulsion energy       924.4577268370 Hartrees.
 NAtoms=   27 NActive=   27 NUniq=   27 SFac= 1.00D+00 NAtFMM=   60 NAOKFM=F Big=F
 Integral buffers will be    131072 words long.
 Raffenetti 1 integral format.
 Two-electron integral symmetry is turned off.
 One-electron integrals computed using PRISM.
 NBasis=   236 RedAO= T EigKep=  1.16D-03  NBF=   236
 NBsUse=   236 1.00D-06 EigRej= -1.00D+00 NBFU=   236
 Initial guess from the checkpoint file:  "/home/alexey/tmp/Gau-1192433.chk"
 B after Tr=     0.038594    0.000316    0.002222
         Rot=    0.999999    0.001079    0.000084    0.000374 Ang=   0.13 deg.
 ExpMin= 1.61D-01 ExpMax= 5.48D+03 ExpMxC= 8.25D+02 IAcc=3 IRadAn=         5 AccDes= 0.00D+00
 Harris functional with IExCor=  205 and IRadAn=       5 diagonalized for initial guess.
 HarFok:  IExCor=  205 AccDes= 0.00D+00 IRadAn=         5 IDoV= 1 UseB2=F ITyADJ=14
 ICtDFT=  3500011 ScaDFX=  1.000000  1.000000  1.000000  1.000000
 FoFCou: FMM=F IPFlag=           0 FMFlag=      100000 FMFlg1=           0
         NFxFlg=           0 DoJE=T BraDBF=F KetDBF=T FulRan=T
         wScrn=  0.000000 ICntrl=       500 IOpCl=  0 I1Cent=   200000004 NGrid=           0
         NMat0=    1 NMatS0=      1 NMatT0=    0 NMatD0=    1 NMtDS0=    0 NMtDT0=    0
 Symmetry not used in FoFCou.
 Keep R1 ints in memory in canonical form, NReq=397720213.
 Requested convergence on RMS density matrix=1.00D-08 within 128 cycles.
 Requested convergence on MAX density matrix=1.00D-06.
 Requested convergence on             energy=1.00D-06.
 No special actions if energy rises.
 SCF Done:  E(RHF) =  -661.282049858     A.U. after   15 cycles
            NFock= 15  Conv=0.48D-08     -V/T= 2.0025
 ExpMin= 1.61D-01 ExpMax= 5.48D+03 ExpMxC= 8.25D+02 IAcc=3 IRadAn=         5 AccDes= 0.00D+00
 HarFok:  IExCor=  205 AccDes= 0.00D+00 IRadAn=         5 IDoV=-2 UseB2=F ITyADJ=14
 ICtDFT= 12500011 ScaDFX=  1.000000  1.000000  1.000000  1.000000
 Range of M.O.s used for correlation:    15   236
 NBasis=   236 NAE=    52 NBE=    52 NFC=    14 NFV=     0
 NROrb=    222 NOA=    38 NOB=    38 NVA=   184 NVB=   184
 Fully direct method using O(ONN) memory.
 JobTyp=1 Pass  1:  I=  15 to  52 NPSUse=  4 ParTrn=T ParDer=T DoDerP=T.
 Spin components of T(2) and E(2):
     alpha-alpha T2 =       0.9087344823D-01 E2=     -0.2714231149D+00
     alpha-beta  T2 =       0.4925924632D+00 E2=     -0.1488143229D+01
     beta-beta   T2 =       0.9087344823D-01 E2=     -0.2714231149D+00
 ANorm=    0.1293962658D+01
 E2 =    -0.2030989459D+01 EUMP2 =    -0.66331303931732D+03
          IDoAtm=111111111111111111111111111
          Differentiating once with respect to electric field.
                with respect to dipole field.
          Differentiating once with respect to nuclear coordinates.
 Keep R1 ints in memory in canonical form, NReq=397723379.
          There are     1 degrees of freedom in the 1st order CPHF.  IDoFFX=0 NUNeed=     1.
 LinEq1:  Iter=  0 NonCon=     1 RMS=4.50D-03 Max=1.01D-01 NDo=     1
 AX will form     1 AO Fock derivatives at one time.
 LinEq1:  Iter=  1 NonCon=     1 RMS=1.50D-03 Max=2.41D-02 NDo=     1
 LinEq1:  Iter=  2 NonCon=     1 RMS=6.39D-04 Max=1.64D-02 NDo=     1
 LinEq1:  Iter=  3 NonCon=     1 RMS=2.87D-04 Max=8.22D-03 NDo=     1
 LinEq1:  Iter=  4 NonCon=     1 RMS=8.79D-05 Max=1.71D-03 NDo=     1
 LinEq1:  Iter=  5 NonCon=     1 RMS=3.76D-05 Max=1.97D-03 NDo=     1
 LinEq1:  Iter=  6 NonCon=     1 RMS=1.48D-05 Max=5.22D-04 NDo=     1
[...]
                   16         17         18         19         20
    16  C    0.000000
    17  H    3.420668   0.000000
    18  H    3.946148   2.228560   0.000000
    19  H    3.659593   4.456416   2.931767   0.000000
    20  H    4.843311   4.536884   2.414328   1.761992   0.000000
    21  H    5.677962   6.609815   4.726141   2.466399   2.485373
    22  H    5.588172   6.198755   4.330060   3.061611   2.484118
    23  H    4.186685   6.350288   5.150209   2.623643   3.798472
    24  H    5.432627   7.302146   5.898768   3.793777   4.309535
    25  H    3.716360   6.132665   5.469851   4.087564   4.932938
    26  H    4.437600   5.860229   4.808287   3.962932   4.137906
    27  H    1.090669   4.139886   4.878621   4.370429   5.731834
                   21         22         23         24         25
    21  H    0.000000
    22  H    1.759646   0.000000
    23  H    2.470409   3.059461   0.000000
    24  H    2.546192   2.466438   1.764059   0.000000
    25  H    4.312677   3.813277   2.469646   2.517644   0.000000
    26  H    3.799576   2.640603   3.049828   2.453704   1.762566
    27  H    6.400924   6.495908   4.691450   6.074273   4.320461
                   26         27
    26  H    0.000000
    27  H    5.316538   0.000000
 Symmetry turned off by external request.
 Stoichiometry    C9H13N3O2
 Framework group  C1[X(C9H13N3O2)]
 Deg. of freedom    75
 Full point group                 C1      NOp   1
 Rotational constants (GHZ):           1.7929005           0.3965059           0.3456709

 **********************************************************************

            Population analysis using the SCF Density.

 **********************************************************************

 Alpha  occ. eigenvalues --  -20.59605 -20.59290 -15.84983 -15.63326 -15.56428
 Alpha  occ. eigenvalues --  -11.34982 -11.30013 -11.29661 -11.28846 -11.27415
 Alpha  occ. eigenvalues --  -11.23934 -11.23323 -11.22910 -11.22544  -1.57428
 Alpha  occ. eigenvalues --   -1.37078  -1.30370  -1.22903  -1.14928  -1.10185
 Alpha  occ. eigenvalues --   -1.02951  -1.01788  -0.94142  -0.89885  -0.85834
 Alpha  occ. eigenvalues --   -0.82527  -0.78075  -0.77595  -0.74966  -0.71440
 Alpha  occ. eigenvalues --   -0.70070  -0.69694  -0.67202  -0.65494  -0.64254
 Alpha  occ. eigenvalues --   -0.62784  -0.60720  -0.58015  -0.56125  -0.55627
 Alpha  occ. eigenvalues --   -0.53917  -0.51553  -0.49866  -0.48808  -0.48101
 Alpha  occ. eigenvalues --   -0.47593  -0.46574  -0.46252  -0.43891  -0.41622
 Alpha  occ. eigenvalues --   -0.39809  -0.34292
 Alpha virt. eigenvalues --    0.06640   0.11916   0.17825   0.20883   0.23516
 Alpha virt. eigenvalues --    0.24250   0.26923   0.28508   0.28911   0.30265
 Alpha virt. eigenvalues --    0.30455   0.30846   0.31669   0.32772   0.33480
 Alpha virt. eigenvalues --    0.33662   0.35955   0.37380   0.39032   0.39872
 Alpha virt. eigenvalues --    0.40841   0.43204   0.44321   0.45943   0.46848
 Alpha virt. eigenvalues --    0.47221   0.48338   0.53782   0.56679   0.59584
 Alpha virt. eigenvalues --    0.63510   0.67831   0.71220   0.72557   0.73239
 Alpha virt. eigenvalues --    0.74600   0.76278   0.76653   0.76957   0.79542
 Alpha virt. eigenvalues --    0.80215   0.83901   0.84839   0.86280   0.88307
 Alpha virt. eigenvalues --    0.89545   0.91372   0.92390   0.94151   0.95371
 Alpha virt. eigenvalues --    0.96466   0.98262   0.99454   0.99860   1.01863
 Alpha virt. eigenvalues --    1.02536   1.03888   1.05693   1.06483   1.08681
 Alpha virt. eigenvalues --    1.09648   1.10180   1.11779   1.12297   1.13408
 Alpha virt. eigenvalues --    1.14365   1.14768   1.15086   1.16756   1.18404
 Alpha virt. eigenvalues --    1.18981   1.19572   1.20851   1.21802   1.23477
 Alpha virt. eigenvalues --    1.24343   1.24931   1.26368   1.27718   1.28143
 Alpha virt. eigenvalues --    1.30340   1.31391   1.35426   1.38504   1.40221
 Alpha virt. eigenvalues --    1.40685   1.42592   1.45606   1.48000   1.53228
 Alpha virt. eigenvalues --    1.56917   1.59302   1.61358   1.64129   1.66203
 Alpha virt. eigenvalues --    1.67873   1.69250   1.71604   1.74184   1.76421
 Alpha virt. eigenvalues --    1.81857   1.84256   1.86284   1.87800   1.92956
 Alpha virt. eigenvalues --    1.93321   1.98674   1.99780   2.01529   2.01938
 Alpha virt. eigenvalues --    2.03523   2.06034   2.07463   2.10037   2.11750
 Alpha virt. eigenvalues --    2.12949   2.14998   2.17993   2.18602   2.20179
 Alpha virt. eigenvalues --    2.22003   2.23948   2.25826   2.26877   2.27893
 Alpha virt. eigenvalues --    2.31785   2.32615   2.34676   2.35468   2.36375
 Alpha virt. eigenvalues --    2.38330   2.42319   2.43365   2.45624   2.46010
 Alpha virt. eigenvalues --    2.51165   2.53552   2.55888   2.57519   2.58751
 Alpha virt. eigenvalues --    2.63884   2.65463   2.69418   2.71014   2.72720
 Alpha virt. eigenvalues --    2.73589   2.74580   2.77133   2.79402   2.80157
 Alpha virt. eigenvalues --    2.83587   2.87023   2.92033   2.94780   2.95559
 Alpha virt. eigenvalues --    2.97485   3.01244   3.03849   3.04684   3.08454
 Alpha virt. eigenvalues --    3.11193   3.14686   3.21768   3.24208   3.25192
 Alpha virt. eigenvalues --    3.29641   3.37355   3.40490   3.51686   3.62137
 Alpha virt. eigenvalues --    4.11587   4.28356   4.31846   4.38286   4.41814
 Alpha virt. eigenvalues --    4.56870   4.58800   4.62627   4.70685   4.77771
 Alpha virt. eigenvalues --    4.95392   4.99013   5.04642   5.11835
          Condensed to atoms (all electrons):
               1          2          3          4          5          6
     1  O    8.308324   0.308368  -0.079844  -0.086248   0.004311  -0.000018
     2  N    0.308368   5.745223   0.298306   0.247793  -0.049150   0.001230
     3  O   -0.079844   0.298306   8.344282  -0.090685   0.004912   0.000624
     4  C   -0.086248   0.247793  -0.090685   5.229307   0.574209  -0.056013
     5  C    0.004311  -0.049150   0.004912   0.574209   4.700000   0.322803
     6  N   -0.000018   0.001230   0.000624  -0.056013   0.322803   7.166306
     7  C    0.000003  -0.000099   0.000003   0.001974  -0.029641   0.201878
     8  H   -0.000000   0.000004  -0.000000   0.000597  -0.000527  -0.048812
     9  C   -0.000000  -0.000000   0.000000   0.000109   0.003986  -0.088147
    10  C    0.000000   0.000000   0.000000  -0.000003  -0.000060   0.003915
    11  C   -0.000000  -0.000000  -0.000000  -0.000017   0.000022  -0.000309
    12  C   -0.000000   0.000003  -0.000000   0.000031  -0.000143   0.003006
    13  C   -0.000019  -0.000077  -0.000005  -0.014333  -0.000915  -0.037155
    14  H   -0.000011  -0.000182   0.000001   0.002843   0.006108  -0.004349
    15  N    0.000336   0.002516  -0.000019  -0.059272  -0.009447   0.004426
    16  C    0.003259  -0.029556   0.002623   0.326382  -0.054690  -0.003446
    17  H    0.000162  -0.006852   0.014768  -0.030299   0.379003  -0.037085
    18  H    0.000001  -0.000053   0.000009   0.002444  -0.033452   0.332906
    19  H    0.000000  -0.000000   0.000000  -0.000174  -0.000229   0.000639
    20  H    0.000000   0.000000  -0.000000  -0.000017  -0.000090  -0.003028
    21  H   -0.000000   0.000000   0.000000  -0.000000   0.000002  -0.000086
    22  H   -0.000000   0.000000  -0.000000   0.000000  -0.000002  -0.000088
    23  H    0.000000  -0.000000   0.000000   0.000007   0.000001  -0.000041
    24  H    0.000000   0.000000   0.000000   0.000000  -0.000000   0.000006
    25  H    0.000000  -0.000000   0.000000   0.000030   0.000000  -0.000064
    26  H    0.000000  -0.000000   0.000000   0.000006   0.000001  -0.000049
    27  H    0.005427  -0.000131   0.000008  -0.066144   0.001604   0.000210
               7          8          9         10         11         12
     1  O    0.000003  -0.000000  -0.000000   0.000000  -0.000000  -0.000000
     2  N   -0.000099   0.000004  -0.000000   0.000000  -0.000000   0.000003
     3  O    0.000003  -0.000000   0.000000   0.000000  -0.000000  -0.000000
     4  C    0.001974   0.000597   0.000109  -0.000003  -0.000017   0.000031
     5  C   -0.029641  -0.000527   0.003986  -0.000060   0.000022  -0.000143
     6  N    0.201878  -0.048812  -0.088147   0.003915  -0.000309   0.003006
     7  C    4.987856   0.407813   0.350165  -0.043132  -0.008164  -0.054110
     8  H    0.407813   0.545241  -0.052994   0.002505  -0.000030   0.001036
     9  C    0.350165  -0.052994   5.185964   0.326399  -0.056943  -0.008328
    10  C   -0.043132   0.002505   0.326399   5.107239   0.337295  -0.061988
    11  C   -0.008164  -0.000030  -0.056943   0.337295   5.109193   0.330433
    12  C   -0.054110   0.001036  -0.008328  -0.061988   0.330433   5.131828
    13  C    0.325937  -0.038953  -0.051147  -0.003955  -0.047676   0.366931
    14  H   -0.050072  -0.003679   0.005385  -0.000480   0.004612  -0.047449
    15  N   -0.055531   0.003519  -0.003256   0.000426  -0.000232  -0.070870
    16  C   -0.000918  -0.000056   0.000228  -0.000029   0.000010   0.001458
    17  H    0.001723   0.000028  -0.000108   0.000001   0.000000   0.000001
    18  H   -0.023617  -0.001662  -0.002215  -0.000099   0.000006  -0.000098
    19  H   -0.041393   0.004715   0.391565  -0.036148  -0.002519   0.000479
    20  H   -0.040210  -0.003330   0.397696  -0.034583   0.004404  -0.000284
    21  H    0.003835  -0.000130  -0.036578   0.405235  -0.035898   0.004556
    22  H   -0.002666   0.002230  -0.045933   0.395994  -0.044013  -0.002275
    23  H    0.001000   0.000023  -0.003267  -0.041641   0.399760  -0.041521
    24  H   -0.000148  -0.000019   0.004579  -0.037853   0.404763  -0.037669
    25  H    0.004785  -0.000179  -0.000336   0.004370  -0.032256   0.399107
    26  H   -0.000693   0.001363   0.000098  -0.003068  -0.044843   0.395569
    27  H   -0.000398   0.000010  -0.000011   0.000001   0.000001   0.000005
              13         14         15         16         17         18
     1  O   -0.000019  -0.000011   0.000336   0.003259   0.000162   0.000001
     2  N   -0.000077  -0.000182   0.002516  -0.029556  -0.006852  -0.000053
     3  O   -0.000005   0.000001  -0.000019   0.002623   0.014768   0.000009
     4  C   -0.014333   0.002843  -0.059272   0.326382  -0.030299   0.002444
     5  C   -0.000915   0.006108  -0.009447  -0.054690   0.379003  -0.033452
     6  N   -0.037155  -0.004349   0.004426  -0.003446  -0.037085   0.332906
     7  C    0.325937  -0.050072  -0.055531  -0.000918   0.001723  -0.023617
     8  H   -0.038953  -0.003679   0.003519  -0.000056   0.000028  -0.001662
     9  C   -0.051147   0.005385  -0.003256   0.000228  -0.000108  -0.002215
    10  C   -0.003955  -0.000480   0.000426  -0.000029   0.000001  -0.000099
    11  C   -0.047676   0.004612  -0.000232   0.000010   0.000000   0.000006
    12  C    0.366931  -0.047449  -0.070870   0.001458   0.000001  -0.000098
    13  C    5.025931   0.406768   0.244994  -0.069793  -0.000097   0.003313
    14  H    0.406768   0.559764  -0.048778  -0.004164   0.000130  -0.000207
    15  N    0.244994  -0.048778   6.933337   0.591056  -0.000099  -0.000025
    16  C   -0.069793  -0.004164   0.591056   4.705554   0.002797  -0.000129
    17  H   -0.000097   0.000130  -0.000099   0.002797   0.393897  -0.003758
    18  H    0.003313  -0.000207  -0.000025  -0.000129  -0.003758   0.332935
    19  H   -0.005748   0.000040   0.004383   0.000775   0.000009   0.000047
    20  H    0.004384  -0.000106  -0.000082  -0.000018   0.000003   0.003010
    21  H   -0.000312   0.000012  -0.000012   0.000000  -0.000000  -0.000003
    22  H    0.000334  -0.000081   0.000010  -0.000000  -0.000000   0.000004
    23  H   -0.005165  -0.000011   0.004574   0.000056   0.000000   0.000000
    24  H    0.004259  -0.000077  -0.000087   0.000002   0.000000  -0.000000
    25  H   -0.036422  -0.002099   0.000584   0.000202  -0.000000   0.000002
    26  H   -0.048032  -0.003494   0.004625  -0.000037  -0.000000   0.000002
    27  H    0.004749  -0.000142  -0.040048   0.405345  -0.000079   0.000003
              19         20         21         22         23         24
     1  O    0.000000   0.000000  -0.000000  -0.000000   0.000000   0.000000
     2  N   -0.000000   0.000000   0.000000   0.000000  -0.000000   0.000000
     3  O    0.000000  -0.000000   0.000000  -0.000000   0.000000   0.000000
     4  C   -0.000174  -0.000017  -0.000000   0.000000   0.000007   0.000000
     5  C   -0.000229  -0.000090   0.000002  -0.000002   0.000001  -0.000000
     6  N    0.000639  -0.003028  -0.000086  -0.000088  -0.000041   0.000006
     7  C   -0.041393  -0.040210   0.003835  -0.002666   0.001000  -0.000148
     8  H    0.004715  -0.003330  -0.000130   0.002230   0.000023  -0.000019
     9  C    0.391565   0.397696  -0.036578  -0.045933  -0.003267   0.004579
    10  C   -0.036148  -0.034583   0.405235   0.395994  -0.041641  -0.037853
    11  C   -0.002519   0.004404  -0.035898  -0.044013   0.399760   0.404763
    12  C    0.000479  -0.000284   0.004556  -0.002275  -0.041521  -0.037669
    13  C   -0.005748   0.004384  -0.000312   0.000334  -0.005165   0.004259
    14  H    0.000040  -0.000106   0.000012  -0.000081  -0.000011  -0.000077
    15  N    0.004383  -0.000082  -0.000012   0.000010   0.004574  -0.000087
    16  C    0.000775  -0.000018   0.000000  -0.000000   0.000056   0.000002
    17  H    0.000009   0.000003  -0.000000  -0.000000   0.000000   0.000000
    18  H    0.000047   0.003010  -0.000003   0.000004   0.000000  -0.000000
    19  H    0.516799  -0.026739  -0.003455   0.004284   0.002368  -0.000045
    20  H   -0.026739   0.550910  -0.002887  -0.002914  -0.000071  -0.000086
    21  H   -0.003455  -0.002887   0.524058  -0.027689  -0.003072  -0.001922
    22  H    0.004284  -0.002914  -0.027689   0.567805   0.004392  -0.003338
    23  H    0.002368  -0.000071  -0.003072   0.004392   0.524740  -0.025926
    24  H   -0.000045  -0.000086  -0.001922  -0.003338  -0.025926   0.530113
    25  H   -0.000067   0.000012  -0.000080  -0.000104  -0.002648  -0.002272
    26  H    0.000075  -0.000042  -0.000092   0.003029   0.004621  -0.003533
    27  H    0.000014  -0.000000  -0.000000   0.000000  -0.000006  -0.000000
              25         26         27
     1  O    0.000000   0.000000   0.005427
     2  N   -0.000000  -0.000000  -0.000131
     3  O    0.000000   0.000000   0.000008
     4  C    0.000030   0.000006  -0.066144
     5  C    0.000000   0.000001   0.001604
     6  N   -0.000064  -0.000049   0.000210
     7  C    0.004785  -0.000693  -0.000398
     8  H   -0.000179   0.001363   0.000010
     9  C   -0.000336   0.000098  -0.000011
    10  C    0.004370  -0.003068   0.000001
    11  C   -0.032256  -0.044843   0.000001
    12  C    0.399107   0.395569   0.000005
    13  C   -0.036422  -0.048032   0.004749
    14  H   -0.002099  -0.003494  -0.000142
    15  N    0.000584   0.004625  -0.040048
    16  C    0.000202  -0.000037   0.405345
    17  H   -0.000000  -0.000000  -0.000079
    18  H    0.000002   0.000002   0.000003
    19  H   -0.000067   0.000075   0.000014
    20  H    0.000012  -0.000042  -0.000000
    21  H   -0.000080  -0.000092  -0.000000
    22  H   -0.000104   0.003029   0.000000
    23  H   -0.002648   0.004621  -0.000006
    24  H   -0.002272  -0.003533  -0.000000
    25  H    0.496970  -0.024100  -0.000032
    26  H   -0.024100   0.566759   0.000001
    27  H   -0.000032   0.000001   0.445306
 Mulliken charges:
               1
     1  O   -0.464050
     2  N    0.482659
     3  O   -0.494984
     4  C    0.017476
     5  C    0.181383
     6  N   -0.759258
     7  C    0.063817
     8  H    0.181287
     9  C   -0.316910
    10  C   -0.320342
    11  C   -0.317599
    12  C   -0.309706
    13  C   -0.027794
    14  H    0.179718
    15  N   -0.507029
    16  C    0.123090
    17  H    0.285853
    18  H    0.390634
    19  H    0.190325
    20  H    0.154067
    21  H    0.174518
    22  H    0.151022
    23  H    0.181829
    24  H    0.169254
    25  H    0.194598
    26  H    0.151835
    27  H    0.244308
 Sum of Mulliken charges =  -0.00000
 Mulliken charges with hydrogens summed into heavy atoms:
               1
     1  O   -0.464050
     2  N    0.482659
     3  O   -0.494984
     4  C    0.017476
     5  C    0.467236
     6  N   -0.368625
     7  C    0.245104
     9  C    0.027482
    10  C    0.005198
    11  C    0.033484
    12  C    0.036726
    13  C    0.151924
    15  N   -0.507029
    16  C    0.367398
 Electronic spatial extent (au):  <R**2>=           3157.5574
 Charge=              0.0000 electrons
 Dipole moment (field-independent basis, Debye):
    X=              5.4869    Y=              4.5315    Z=             -0.0461  Tot=              7.1164
 Quadrupole moment (field-independent basis, Debye-Ang):
   XX=           -105.1685   YY=            -79.7501   ZZ=            -83.1700
   XY=             -2.1377   XZ=              5.2122   YZ=             -0.7484
 Traceless Quadrupole moment (field-independent basis, Debye-Ang):
   XX=            -15.8057   YY=              9.6128   ZZ=              6.1929
   XY=             -2.1377   XZ=              5.2122   YZ=             -0.7484
 Octapole moment (field-independent basis, Debye-Ang**2):
  XXX=            107.2666  YYY=             35.6703  ZZZ=            -10.2175  XYY=             -1.8533
  XXY=              8.6288  XXZ=            -22.1052  XZZ=             -5.2415  YZZ=             -0.4938
  YYZ=             -5.2064  XYZ=             -1.0068
 Hexadecapole moment (field-independent basis, Debye-Ang**3):
 XXXX=          -3631.5589 YYYY=           -630.7512 ZZZZ=           -255.4754 XXXY=            -56.5136
 XXXZ=            173.1223 YYYX=            -37.4163 YYYZ=             32.2236 ZZZX=            100.0495
 ZZZY=             40.7659 XXYY=           -671.8126 XXZZ=           -558.6233 YYZZ=           -158.7675
 XXYZ=              7.8731 YYXZ=             46.9469 ZZXY=              0.1817
 N-N= 9.219397765655D+02 E-N=-3.390437152073D+03  KE= 6.596130137121D+02
 Unable to Open any file for archive entry.
 1\1\GINC-LOTUS\FOpt\RMP2-FC\6-31G(d)\C9H13N3O2\ALEXEY\30-Jun-2023\0\\#
 MP2/6-31G* SCF=Tight Opt=(ModRedun, MaxCycle=100 ) NoSymm\\MolName:\\0
 ,1\O,-3.6819956139,-1.3954842742,0.2658199431\N,-3.2438893963,-0.23091
 71575,0.3409193023\O,-3.9479288376,0.764701312,0.5959518252\C,-1.82152
 03313,-0.0524379955,0.1361095265\C,-1.3729735637,1.2311798513,0.035903
 9105\N,-0.0975268715,1.5994367664,-0.2404798636\C,1.1420106056,0.99290
 07855,0.2706679105\H,1.4703578375,1.5421159648,1.1679423429\C,2.165356
 0009,1.1735334552,-0.8596692904\C,3.5336236071,0.5588371014,-0.5825606
 195\C,3.3975693629,-0.9200619392,-0.2300487071\C,2.3931692366,-1.10846
 26294,0.9008291276\C,1.0182939616,-0.4928149598,0.6482511852\H,0.49260
 01584,-0.4981507117,1.6213870992\N,0.2245239778,-1.3564372662,-0.22372
 98522\C,-1.0509796323,-1.1967328652,-0.3174844886\H,-2.1082289846,2.03
 1783481,0.0823570088\H,0.0033747892,2.6058889898,-0.3395556525\H,1.730
 5674196,0.7020582529,-1.7493408846\H,2.2700302497,2.2434880116,-1.0878
 338512\H,4.1795557053,0.6960352158,-1.4568635296\H,4.0162401998,1.0898
 610177,0.2503513066\H,3.0503720235,-1.4738901142,-1.111479423\H,4.3668
 322683,-1.3437456905,0.0555241558\H,2.237428584,-2.1706618032,1.114005
 8542\H,2.8022747349,-0.6558502616,1.8160980763\H,-1.6071474914,-1.9711
 825372,-0.8470724125\\Version=ES64L-G16RevC.02\HF=-661.2884612\MP2=-66
 3.3201062\RMSD=5.517e-09\RMSF=5.210e-03\Dipole=1.9760207,1.5686826,0.0
 130008\PG=C01 [X(C9H13N3O2)]\\@
 The archive entry for this job was punched.


     SCHOPENHAUER'S LAW OF ENTROPY
 IF YOU PUT A SPOONFUL OF WINE IN A BARREL FULL
 OF SEWAGE, YOU GET SEWAGE.
 IF YOU PUT A SPOONFUL OF SEWAGE IN A BARREL FULL
 OF WINE, YOU GET SEWAGE.
 Job cpu time:       0 days  1 hours 37 minutes 27.6 seconds.
 Elapsed time:       0 days  0 hours 29 minutes  1.2 seconds.
 File lengths (MBytes):  RWF=     36 Int=      0 D2E=      0 Chk=      7 Scr=      1
 Normal termination of Gaussian 16 at Fri Jun 30 19:32:33 2023.
