 Entering Gaussian System, Link 0=g16
 Initial command:
 /home/alexey/programs//g16/l1.exe "/home/alexey/tmp/Gau-1577702.inp" -scrdir="/home/alexey/tmp/"
 Entering Link 1 = /home/alexey/programs//g16/l1.exe PID=   1577704.
  
 Copyright (c) 1988-2021, Gaussian, Inc.  All Rights Reserved.
  
 This is part of the Gaussian(R) 16 program.  It is based on
 the Gaussian(R) 09 system (copyright 2009, Gaussian, Inc.),
 the Gaussian(R) 03 system (copyright 2003, Gaussian, Inc.),
 the Gaussian(R) 98 system (copyright 1998, Gaussian, Inc.),
 the Gaussian(R) 94 system (copyright 1995, Gaussian, Inc.),
 the Gaussian 92(TM) system (copyright 1992, Gaussian, Inc.),
 the Gaussian 90(TM) system (copyright 1990, Gaussian, Inc.),
 the Gaussian 88(TM) system (copyright 1988, Gaussian, Inc.),
 the Gaussian 86(TM) system (copyright 1986, Carnegie Mellon
 University), and the Gaussian 82(TM) system (copyright 1983,
 Carnegie Mellon University). Gaussian is a federally registered
 trademark of Gaussian, Inc.
  
 This software contains proprietary and confidential information,
 including trade secrets, belonging to Gaussian, Inc.
  
 This software is provided under written license and may be
 used, copied, transmitted, or stored only in accord with that
 written license.
  
 The following legend is applicable only to US Government
 contracts under FAR:
  
                    RESTRICTED RIGHTS LEGEND
  
 Use, reproduction and disclosure by the US Government is
 subject to restrictions as set forth in subparagraphs (a)
 and (c) of the Commercial Computer Software - Restricted
 Rights clause in FAR 52.227-19.
  
 Gaussian, Inc.
 340 Quinnipiac St., Bldg. 40, Wallingford CT 06492
  
  
 ---------------------------------------------------------------
 Warning -- This program may not be used in any manner that
 competes with the business of Gaussian, Inc. or will provide
 assistance to any competitor of Gaussian, Inc.  The licensee
 of this program is prohibited from giving any competitor of
 Gaussian, Inc. access to this program.  By using this program,
 the user acknowledges that Gaussian, Inc. is engaged in the
 business of creating and licensing software in the field of
 computational chemistry and represents and warrants to the
 licensee that it is not a competitor of Gaussian, Inc. and that
 it will not use this program in any manner prohibited above.
 ---------------------------------------------------------------
  

 Cite this work as:
 Gaussian 16, Revision C.02,
 M. J. Frisch, G. W. Trucks, H. B. Schlegel, G. E. Scuseria, 
 M. A. Robb, J. R. Cheeseman, G. Scalmani, V. Barone, 
 G. A. Petersson, H. Nakatsuji, X. Li, M. Caricato, A. V. Marenich, 
 J. Bloino, B. G. Janesko, R. Gomperts, B. Mennucci, H. P. Hratchian, 
 J. V. Ortiz, A. F. Izmaylov, J. L. Sonnenberg, D. Williams-Young, 
 F. Ding, F. Lipparini, F. Egidi, J. Goings, B. Peng, A. Petrone, 
 T. Henderson, D. Ranasinghe, V. G. Zakrzewski, J. Gao, N. Rega, 
 G. Zheng, W. Liang, M. Hada, M. Ehara, K. Toyota, R. Fukuda, 
 J. Hasegawa, M. Ishida, T. Nakajima, Y. Honda, O. Kitao, H. Nakai, 
 T. Vreven, K. Throssell, J. A. Montgomery, Jr., J. E. Peralta, 
 F. Ogliaro, M. J. Bearpark, J. J. Heyd, E. N. Brothers, K. N. Kudin, 
 V. N. Staroverov, T. A. Keith, R. Kobayashi, J. Normand, 
 K. Raghavachari, A. P. Rendell, J. C. Burant, S. S. Iyengar, 
 J. Tomasi, M. Cossi, J. M. Millam, M. Klene, C. Adamo, R. Cammi, 
 J. W. Ochterski, R. L. Martin, K. Morokuma, O. Farkas, 
 J. B. Foresman, and D. J. Fox, Gaussian, Inc., Wallingford CT, 2019.
 
 ******************************************
 Gaussian 16:  ES64L-G16RevC.02  7-Dec-2021
                 2-Jul-2023 
 ******************************************
 %mem=8GB
 %NPROCS=4
 Will use up to    4 processors via shared memory.
 %NoSave
 ---------------------------------------------------------
 #MP2/6-31G* SCF=Tight Opt=(ModRedun, MaxCycle=20 ) NoSymm
 ---------------------------------------------------------
 1/6=20,18=120,19=15,38=1/1,3;
 2/9=110,12=2,15=1,17=6,18=5,40=1/2;
 3/5=1,6=6,7=1,11=9,25=1,30=1,71=1/1,2,3;
 4//1;
 5/5=2,32=2,38=5/2;
 8/6=4,10=2/1;
 9/15=2,16=-3/6;
 10/5=1,31=1/2;
 6/7=2,8=2,9=2,10=2/1;
 7/12=2,30=1/1,2,3,16;
 1/6=20,18=20,19=15/3(2);
 2/9=110,15=1/2;
 99//99;
 2/9=110,15=1/2;
 3/5=1,6=6,7=1,11=9,25=1,30=1,71=1/1,2,3;
 4/5=5,16=3,69=1/1;
 5/5=2,32=2,38=5/2;
 8/6=4,10=2/1;
 9/15=2,16=-3/6;
 10/5=1,31=1/2;
 7/12=2,30=1/1,2,3,16;
 1/6=20,18=20,19=15/3(-8);
 2/9=110,15=1/2;
 6/7=2,8=2,9=2,10=2/1;
 99/9=10/99;
 --------
 MolName:
 --------
 Symbolic Z-matrix:
 Charge =  0 Multiplicity = 1
 8                    0    -3.57655  -1.49073  -0.09053 
 7                    0    -3.24004  -0.32155   0.08807 
 8                    0    -4.03025   0.58909   0.33869 
 6                    0    -1.75896   0.01504  -0.04086 
 6                    0    -1.37116   1.30887   0.32844 
 7                    0    -0.08783   1.78766   0.26617 
 6                    0     1.18586   1.00551   0.29854 
 1                    0     1.81806   1.50492   1.0784 
 6                    0     2.01228   1.04651  -1.01049 
 6                    0     3.41      0.45155  -0.75553 
 6                    0     3.31092  -0.96191  -0.16061 
 6                    0     2.40445  -0.98594   1.08929 
 6                    0     0.98278  -0.43852   0.78448 
 1                    0     0.40268  -0.47204   1.73667 
 7                    0     0.3605   -1.30257  -0.22438 
 6                    0    -0.86801  -1.06048  -0.55746 
 1                    0    -2.12984   1.98859   0.75086 
 1                    0     0.12496   2.74816  -0.01417 
 1                    0     1.49515   0.47051  -1.80729 
 1                    0     2.12246   2.09455  -1.36153 
 1                    0     3.98843   0.42082  -1.70477 
 1                    0     3.95949   1.10359  -0.04026 
 1                    0     2.89193  -1.64988  -0.9294 
 1                    0     4.32513  -1.33314   0.10341 
 1                    0     2.32156  -2.03113   1.46014 
 1                    0     2.86959  -0.37784   1.89343 
 1                    0    -1.36456  -1.74563  -1.26132 
 
 The following ModRedundant input section has been read:
 D      17       5       6       7 F                                           
 D       1       2       4      16 F                                           
 D       7      13      15      16 F                                           
 D       7       9      10      11 F                                           
 D       9      10      11      12 F                                           
 D       6       7      13      15 F                                           
 

 GradGradGradGradGradGradGradGradGradGradGradGradGradGradGradGradGradGrad
 Berny optimization.
 Initialization pass.
                           ----------------------------
                           !    Initial Parameters    !
                           ! (Angstroms and Degrees)  !
 --------------------------                            --------------------------
 ! Name  Definition              Value          Derivative Info.                !
 --------------------------------------------------------------------------------
 ! R1    R(1,2)                  1.2297         estimate D2E/DX2                !
 ! R2    R(2,3)                  1.2315         estimate D2E/DX2                !
 ! R3    R(2,4)                  1.5243         estimate D2E/DX2                !
 ! R4    R(4,5)                  1.4003         estimate D2E/DX2                !
 ! R5    R(4,16)                 1.4891         estimate D2E/DX2                !
 ! R6    R(5,6)                  1.3712         estimate D2E/DX2                !
 ! R7    R(5,17)                 1.1027         estimate D2E/DX2                !
 ! R8    R(6,7)                  1.495          estimate D2E/DX2                !
 ! R9    R(6,18)                 1.023          estimate D2E/DX2                !
 ! R10   R(7,8)                  1.1213         estimate D2E/DX2                !
 ! R11   R(7,9)                  1.5486         estimate D2E/DX2                !
 ! R12   R(7,13)                 1.5371         estimate D2E/DX2                !
 ! R13   R(9,10)                 1.5403         estimate D2E/DX2                !
 ! R14   R(9,19)                 1.1109         estimate D2E/DX2                !
 ! R15   R(9,20)                 1.1107         estimate D2E/DX2                !
 ! R16   R(10,11)                1.5368         estimate D2E/DX2                !
 ! R17   R(10,21)                1.112          estimate D2E/DX2                !
 ! R18   R(10,22)                1.113          estimate D2E/DX2                !
 ! R19   R(11,12)                1.5442         estimate D2E/DX2                !
 ! R20   R(11,23)                1.1135         estimate D2E/DX2                !
 ! R21   R(11,24)                1.1118         estimate D2E/DX2                !
 ! R22   R(12,13)                1.5536         estimate D2E/DX2                !
 ! R23   R(12,25)                1.1121         estimate D2E/DX2                !
 ! R24   R(12,26)                1.1103         estimate D2E/DX2                !
 ! R25   R(13,14)                1.1155         estimate D2E/DX2                !
 ! R26   R(13,15)                1.4668         estimate D2E/DX2                !
 ! R27   R(15,16)                1.2957         estimate D2E/DX2                !
 ! R28   R(16,27)                1.1006         estimate D2E/DX2                !
 ! A1    A(1,2,3)              123.8521         estimate D2E/DX2                !
 ! A2    A(1,2,4)              117.6171         estimate D2E/DX2                !
 ! A3    A(3,2,4)              118.5165         estimate D2E/DX2                !
 ! A4    A(2,4,5)              116.7959         estimate D2E/DX2                !
 ! A5    A(2,4,16)             116.821          estimate D2E/DX2                !
 ! A6    A(5,4,16)             126.3811         estimate D2E/DX2                !
 ! A7    A(4,5,6)              124.7415         estimate D2E/DX2                !
 ! A8    A(4,5,17)             118.6868         estimate D2E/DX2                !
 ! A9    A(6,5,17)             116.4929         estimate D2E/DX2                !
 ! A10   A(5,6,7)              127.8589         estimate D2E/DX2                !
 ! A11   A(5,6,18)             122.3445         estimate D2E/DX2                !
 ! A12   A(7,6,18)             108.6595         estimate D2E/DX2                !
 ! A13   A(6,7,8)              105.212          estimate D2E/DX2                !
 ! A14   A(6,7,9)              114.9921         estimate D2E/DX2                !
 ! A15   A(6,7,13)             112.6924         estimate D2E/DX2                !
 ! A16   A(8,7,9)              105.9758         estimate D2E/DX2                !
 ! A17   A(8,7,13)             105.8453         estimate D2E/DX2                !
 ! A18   A(9,7,13)             111.2608         estimate D2E/DX2                !
 ! A19   A(7,9,10)             109.518          estimate D2E/DX2                !
 ! A20   A(7,9,19)             110.1297         estimate D2E/DX2                !
 ! A21   A(7,9,20)             110.1855         estimate D2E/DX2                !
 ! A22   A(10,9,19)            109.9292         estimate D2E/DX2                !
 ! A23   A(10,9,20)            109.0717         estimate D2E/DX2                !
 ! A24   A(19,9,20)            107.9823         estimate D2E/DX2                !
 ! A25   A(9,10,11)            111.1518         estimate D2E/DX2                !
 ! A26   A(9,10,21)            109.9613         estimate D2E/DX2                !
 ! A27   A(9,10,22)            109.153          estimate D2E/DX2                !
 ! A28   A(11,10,21)           109.7903         estimate D2E/DX2                !
 ! A29   A(11,10,22)           108.7772         estimate D2E/DX2                !
 ! A30   A(21,10,22)           107.937          estimate D2E/DX2                !
 ! A31   A(10,11,12)           111.439          estimate D2E/DX2                !
 ! A32   A(10,11,23)           108.9807         estimate D2E/DX2                !
 ! A33   A(10,11,24)           109.8904         estimate D2E/DX2                !
 ! A34   A(12,11,23)           109.1684         estimate D2E/DX2                !
 ! A35   A(12,11,24)           109.7598         estimate D2E/DX2                !
 ! A36   A(23,11,24)           107.512          estimate D2E/DX2                !
 ! A37   A(11,12,13)           111.8933         estimate D2E/DX2                !
 ! A38   A(11,12,25)           109.1649         estimate D2E/DX2                !
 ! A39   A(11,12,26)           109.3769         estimate D2E/DX2                !
 ! A40   A(13,12,25)           109.1696         estimate D2E/DX2                !
 ! A41   A(13,12,26)           109.4185         estimate D2E/DX2                !
 ! A42   A(25,12,26)           107.7244         estimate D2E/DX2                !
 ! A43   A(7,13,12)            105.7922         estimate D2E/DX2                !
 ! A44   A(7,13,14)            111.5187         estimate D2E/DX2                !
 ! A45   A(7,13,15)            113.0796         estimate D2E/DX2                !
 ! A46   A(12,13,14)           107.3264         estimate D2E/DX2                !
 ! A47   A(12,13,15)           108.3962         estimate D2E/DX2                !
 ! A48   A(14,13,15)           110.4124         estimate D2E/DX2                !
 ! A49   A(13,15,16)           117.9684         estimate D2E/DX2                !
 ! A50   A(4,16,15)            127.8115         estimate D2E/DX2                !
 ! A51   A(4,16,27)            113.6744         estimate D2E/DX2                !
 ! A52   A(15,16,27)           118.4143         estimate D2E/DX2                !
 ! D1    D(1,2,4,5)           -172.2188         estimate D2E/DX2                !
 ! D2    D(1,2,4,16)             8.2586         Frozen                          !
 ! D3    D(3,2,4,5)              9.1017         estimate D2E/DX2                !
 ! D4    D(3,2,4,16)          -170.4209         estimate D2E/DX2                !
 ! D5    D(2,4,5,6)           -179.3749         estimate D2E/DX2                !
 ! D6    D(2,4,5,17)             3.9729         estimate D2E/DX2                !
 ! D7    D(16,4,5,6)             0.0959         estimate D2E/DX2                !
 ! D8    D(16,4,5,17)         -176.5563         estimate D2E/DX2                !
 ! D9    D(2,4,16,15)         -145.5873         estimate D2E/DX2                !
 ! D10   D(2,4,16,27)           30.683          estimate D2E/DX2                !
 ! D11   D(5,4,16,15)           34.9421         estimate D2E/DX2                !
 ! D12   D(5,4,16,27)         -148.7876         estimate D2E/DX2                !
 ! D13   D(4,5,6,7)            -24.2592         estimate D2E/DX2                !
 ! D14   D(4,5,6,18)           142.1278         estimate D2E/DX2                !
 ! D15   D(17,5,6,7)           152.4594         Frozen                          !
 ! D16   D(17,5,6,18)          -41.1536         estimate D2E/DX2                !
 ! D17   D(5,6,7,8)           -130.0883         estimate D2E/DX2                !
 ! D18   D(5,6,7,9)            113.7157         estimate D2E/DX2                !
 ! D19   D(5,6,7,13)           -15.2283         estimate D2E/DX2                !
 ! D20   D(18,6,7,8)            62.0269         estimate D2E/DX2                !
 ! D21   D(18,6,7,9)           -54.1692         estimate D2E/DX2                !
 ! D22   D(18,6,7,13)          176.8868         estimate D2E/DX2                !
 ! D23   D(6,7,9,10)           168.6524         estimate D2E/DX2                !
 ! D24   D(6,7,9,19)           -70.3438         estimate D2E/DX2                !
 ! D25   D(6,7,9,20)            48.6738         estimate D2E/DX2                !
 ! D26   D(8,7,9,10)            52.8939         estimate D2E/DX2                !
 ! D27   D(8,7,9,19)           173.8977         estimate D2E/DX2                !
 ! D28   D(8,7,9,20)           -67.0847         estimate D2E/DX2                !
 ! D29   D(13,7,9,10)          -61.6976         estimate D2E/DX2                !
 ! D30   D(13,7,9,19)           59.3062         estimate D2E/DX2                !
 ! D31   D(13,7,9,20)          178.3238         estimate D2E/DX2                !
 ! D32   D(6,7,13,12)         -166.4886         estimate D2E/DX2                !
 ! D33   D(6,7,13,14)          -50.1164         estimate D2E/DX2                !
 ! D34   D(6,7,13,15)           75.0209         Frozen                          !
 ! D35   D(8,7,13,12)          -52.0118         estimate D2E/DX2                !
 ! D36   D(8,7,13,14)           64.3604         estimate D2E/DX2                !
 ! D37   D(8,7,13,15)         -170.5023         estimate D2E/DX2                !
 ! D38   D(9,7,13,12)           62.6609         estimate D2E/DX2                !
 ! D39   D(9,7,13,14)          179.033          estimate D2E/DX2                !
 ! D40   D(9,7,13,15)          -55.8297         estimate D2E/DX2                !
 ! D41   D(7,9,10,11)           54.8123         Frozen                          !
 ! D42   D(7,9,10,21)          176.5997         estimate D2E/DX2                !
 ! D43   D(7,9,10,22)          -65.1709         estimate D2E/DX2                !
 ! D44   D(19,9,10,11)         -66.3128         estimate D2E/DX2                !
 ! D45   D(19,9,10,21)          55.4746         estimate D2E/DX2                !
 ! D46   D(19,9,10,22)         173.704          estimate D2E/DX2                !
 ! D47   D(20,9,10,11)         175.4702         estimate D2E/DX2                !
 ! D48   D(20,9,10,21)         -62.7424         estimate D2E/DX2                !
 ! D49   D(20,9,10,22)          55.487          estimate D2E/DX2                !
 ! D50   D(9,10,11,12)         -52.8228         Frozen                          !
 ! D51   D(9,10,11,23)          67.7145         estimate D2E/DX2                !
 ! D52   D(9,10,11,24)        -174.7152         estimate D2E/DX2                !
 ! D53   D(21,10,11,12)       -174.7097         estimate D2E/DX2                !
 ! D54   D(21,10,11,23)        -54.1725         estimate D2E/DX2                !
 ! D55   D(21,10,11,24)         63.3979         estimate D2E/DX2                !
 ! D56   D(22,10,11,12)         67.3832         estimate D2E/DX2                !
 ! D57   D(22,10,11,23)       -172.0795         estimate D2E/DX2                !
 ! D58   D(22,10,11,24)        -54.5092         estimate D2E/DX2                !
 ! D59   D(10,11,12,13)         56.4497         estimate D2E/DX2                !
 ! D60   D(10,11,12,25)        177.4016         estimate D2E/DX2                !
 ! D61   D(10,11,12,26)        -64.9602         estimate D2E/DX2                !
 ! D62   D(23,11,12,13)        -63.9774         estimate D2E/DX2                !
 ! D63   D(23,11,12,25)         56.9745         estimate D2E/DX2                !
 ! D64   D(23,11,12,26)        174.6128         estimate D2E/DX2                !
 ! D65   D(24,11,12,13)        178.4176         estimate D2E/DX2                !
 ! D66   D(24,11,12,25)        -60.6305         estimate D2E/DX2                !
 ! D67   D(24,11,12,26)         57.0078         estimate D2E/DX2                !
 ! D68   D(11,12,13,7)         -59.7684         estimate D2E/DX2                !
 ! D69   D(11,12,13,14)       -178.9477         estimate D2E/DX2                !
 ! D70   D(11,12,13,15)         61.7914         estimate D2E/DX2                !
 ! D71   D(25,12,13,7)         179.2825         estimate D2E/DX2                !
 ! D72   D(25,12,13,14)         60.1031         estimate D2E/DX2                !
 ! D73   D(25,12,13,15)        -59.1577         estimate D2E/DX2                !
 ! D74   D(26,12,13,7)          61.6175         estimate D2E/DX2                !
 ! D75   D(26,12,13,14)        -57.5618         estimate D2E/DX2                !
 ! D76   D(26,12,13,15)       -176.8227         estimate D2E/DX2                !
 ! D77   D(7,13,15,16)         -67.1604         Frozen                          !
 ! D78   D(12,13,15,16)        175.8727         estimate D2E/DX2                !
 ! D79   D(14,13,15,16)         58.5726         estimate D2E/DX2                !
 ! D80   D(13,15,16,4)           0.2862         estimate D2E/DX2                !
 ! D81   D(13,15,16,27)       -175.8299         estimate D2E/DX2                !
 --------------------------------------------------------------------------------
 Trust Radius=3.00D-01 FncErr=1.00D-07 GrdErr=1.00D-07 EigMax=2.50D+02 EigMin=1.00D-04
 Number of steps in this run=     20 maximum allowed number of steps=    162.
 GradGradGradGradGradGradGradGradGradGradGradGradGradGradGradGradGradGrad

                          Input orientation:                          
 ---------------------------------------------------------------------
 Center     Atomic      Atomic             Coordinates (Angstroms)
 Number     Number       Type             X           Y           Z
 ---------------------------------------------------------------------
      1          8           0       -3.576550   -1.490730   -0.090530
      2          7           0       -3.240040   -0.321550    0.088070
      3          8           0       -4.030250    0.589090    0.338690
      4          6           0       -1.758960    0.015040   -0.040860
      5          6           0       -1.371160    1.308870    0.328440
      6          7           0       -0.087830    1.787660    0.266170
      7          6           0        1.185860    1.005510    0.298540
      8          1           0        1.818060    1.504920    1.078400
      9          6           0        2.012280    1.046510   -1.010490
     10          6           0        3.410000    0.451550   -0.755530
     11          6           0        3.310920   -0.961910   -0.160610
     12          6           0        2.404450   -0.985940    1.089290
     13          6           0        0.982780   -0.438520    0.784480
     14          1           0        0.402680   -0.472040    1.736670
     15          7           0        0.360500   -1.302570   -0.224380
     16          6           0       -0.868010   -1.060480   -0.557460
     17          1           0       -2.129840    1.988590    0.750860
     18          1           0        0.124960    2.748160   -0.014170
     19          1           0        1.495150    0.470510   -1.807290
     20          1           0        2.122460    2.094550   -1.361530
     21          1           0        3.988430    0.420820   -1.704770
     22          1           0        3.959490    1.103590   -0.040260
     23          1           0        2.891930   -1.649880   -0.929400
     24          1           0        4.325130   -1.333140    0.103410
     25          1           0        2.321560   -2.031130    1.460140
     26          1           0        2.869590   -0.377840    1.893430
     27          1           0       -1.364560   -1.745630   -1.261320
 ---------------------------------------------------------------------
                    Distance matrix (angstroms):
                    1          2          3          4          5
     1  O    0.000000
     2  N    1.229682   0.000000
     3  O    2.171572   1.231466   0.000000
     4  C    2.360814   1.524308   2.373257   0.000000
     5  C    3.588459   2.491738   2.754805   1.400274   0.000000
     6  N    4.800650   3.796961   4.121226   2.455428   1.371150
     7  C    5.391024   4.625362   5.232860   3.125410   2.575126
     8  H    6.280297   5.468192   5.965622   4.033306   3.282072
     9  C    6.206362   5.537625   6.208195   4.028196   3.648182
    10  C    7.281934   6.747768   7.521539   5.236358   4.976895
    11  C    6.908097   6.586879   7.519819   5.164538   5.226613
    12  C    6.117119   5.770972   6.667045   4.428677   4.483333
    13  C    4.760281   4.281457   5.136651   2.898972   2.966880
    14  H    4.495627   4.001242   4.767726   2.840695   2.881191
    15  N    3.943816   3.744852   4.813950   2.502376   3.181804
    16  C    2.781965   2.566954   3.677489   1.489097   2.579108
    17  H    3.860903   2.647373   2.395839   2.158535   1.102748
    18  H    5.628072   4.555963   4.695941   3.319610   2.104118
    19  H    5.702269   5.161567   5.928688   3.730544   3.671501
    20  H    6.851889   6.057663   6.558430   4.597168   3.959630
    21  H    7.967981   7.484395   8.276670   5.997145   5.800671
    22  H    7.970252   7.340349   8.015252   5.821135   5.347327
    23  H    6.524589   6.356159   7.384959   5.019187   5.339504
    24  H    7.905631   7.632519   8.576870   6.233342   6.283198
    25  H    6.122443   5.978013   6.961946   4.805253   5.106126
    26  H    6.835740   6.371034   7.138625   5.031829   4.824743
    27  H    2.515675   2.714090   3.888040   2.178310   3.443450
                    6          7          8          9         10
     6  N    0.000000
     7  C    1.495023   0.000000
     8  H    2.090951   1.121280   0.000000
     9  C    2.567027   1.548616   2.147399   0.000000
    10  C    3.881221   2.522842   2.647104   1.540326   0.000000
    11  C    4.392468   2.932139   3.138316   2.538211   1.536755
    12  C    3.818618   2.464979   2.558975   2.948513   2.545755
    13  C    2.524030   1.537076   2.135659   2.546979   3.009195
    14  H    2.740295   2.205616   2.518927   3.527562   4.013484
    15  N    3.160880   2.506371   3.421070   2.977335   3.557880
    16  C    3.065770   3.036352   4.058607   3.597320   4.541678
    17  H    2.108341   3.487823   3.990881   4.598590   5.943192
    18  H    1.022952   2.064007   2.367687   2.729513   4.076214
    19  H    2.922319   2.194631   3.082447   1.110896   2.184768
    20  H    2.762059   2.195236   2.528553   1.110746   2.173579
    21  H    4.729561   3.494211   3.692129   2.186020   1.112017
    22  H    4.116145   2.795966   2.449120   2.176288   1.112972
    23  H    4.703726   3.386681   3.890658   2.837407   2.171321
    24  H    5.407412   3.919487   3.910318   3.500397   2.181825
    25  H    4.670533   3.443880   3.592059   3.958729   3.501085
    26  H    4.010449   2.700422   2.305379   3.346118   2.827883
    27  H    4.055540   4.062829   5.115607   4.388851   5.280137
                   11         12         13         14         15
    11  C    0.000000
    12  C    1.544188   0.000000
    13  C    2.566587   1.553616   0.000000
    14  H    3.506780   2.165705   1.115484   0.000000
    15  N    2.970706   2.450248   1.466838   2.130088   0.000000
    16  C    4.198888   3.664197   2.369190   2.687740   1.295680
    17  H    6.256045   5.433429   3.947201   3.666085   4.240828
    18  H    4.892485   4.511896   3.395383   3.675902   4.063014
    19  H    2.839085   3.367232   2.793945   3.826427   2.633790
    20  H    3.492362   3.946575   3.510082   4.375371   3.992247
    21  H    2.180686   3.506385   3.996093   5.049585   4.280596
    22  H    2.168275   2.839044   3.452405   4.276796   4.333155
    23  H    1.113505   2.180267   2.837187   3.832963   2.650625
    24  H    1.111818   2.186668   3.526401   4.335279   3.978275
    25  H    2.179196   1.112125   2.187523   2.487837   2.685920
    26  H    2.180594   1.110307   2.189407   2.473680   3.411126
    27  H    4.866815   4.506432   3.376957   3.705821   2.060917
                   16         17         18         19         20
    16  C    0.000000
    17  H    3.549753   0.000000
    18  H    3.973272   2.499268   0.000000
    19  H    3.080670   4.689270   3.206305   0.000000
    20  H    4.420820   4.749260   2.496516   1.797144   0.000000
    21  H    5.205341   6.776522   4.816746   2.495882   2.530026
    22  H    5.315586   6.203953   4.172399   3.097766   2.470311
    23  H    3.823988   6.424944   5.276033   2.686585   3.847022
    24  H    5.242117   7.288328   5.857667   3.861698   4.329765
    25  H    3.896951   6.039552   5.462623   4.197291   5.002269
    26  H    4.521340   5.647987   4.576440   4.037835   4.155199
    27  H    1.100641   4.310327   4.895733   3.658866   5.188095
                   21         22         23         24         25
    21  H    0.000000
    22  H    1.799335   0.000000
    23  H    2.468058   3.084129   0.000000
    24  H    2.541507   2.468195   1.794738   0.000000
    25  H    4.336723   3.841938   2.486076   2.518372   0.000000
    26  H    3.851844   2.668646   3.096281   2.497072   1.794838
    27  H    5.791775   6.160726   4.270485   5.865595   4.590788
                   26         27
    26  H    0.000000
    27  H    5.454477   0.000000
 Symmetry turned off by external request.
 Stoichiometry    C9H13N3O2
 Framework group  C1[X(C9H13N3O2)]
 Deg. of freedom    75
 Full point group                 C1      NOp   1
 Rotational constants (GHZ):           1.6862348           0.4019013           0.3568267
 Standard basis: 6-31G(d) (6D, 7F)
   236 basis functions,   444 primitive gaussians,   236 cartesian basis functions
    52 alpha electrons       52 beta electrons
       nuclear repulsion energy       918.5715247521 Hartrees.
 NAtoms=   27 NActive=   27 NUniq=   27 SFac= 1.00D+00 NAtFMM=   60 NAOKFM=F Big=F
 Integral buffers will be    131072 words long.
 Raffenetti 1 integral format.
 Two-electron integral symmetry is turned off.
 One-electron integrals computed using PRISM.
 NBasis=   236 RedAO= T EigKep=  1.32D-03  NBF=   236
 NBsUse=   236 1.00D-06 EigRej= -1.00D+00 NBFU=   236
 ExpMin= 1.61D-01 ExpMax= 5.48D+03 ExpMxC= 8.25D+02 IAcc=3 IRadAn=         5 AccDes= 0.00D+00
 Harris functional with IExCor=  205 and IRadAn=       5 diagonalized for initial guess.
 HarFok:  IExCor=  205 AccDes= 0.00D+00 IRadAn=         5 IDoV= 1 UseB2=F ITyADJ=14
 ICtDFT=  3500011 ScaDFX=  1.000000  1.000000  1.000000  1.000000
 FoFCou: FMM=F IPFlag=           0 FMFlag=      100000 FMFlg1=           0
         NFxFlg=           0 DoJE=T BraDBF=F KetDBF=T FulRan=T
         wScrn=  0.000000 ICntrl=       500 IOpCl=  0 I1Cent=   200000004 NGrid=           0
         NMat0=    1 NMatS0=      1 NMatT0=    0 NMatD0=    1 NMtDS0=    0 NMtDT0=    0
 Symmetry not used in FoFCou.
 Keep R1 ints in memory in canonical form, NReq=397720213.
 Requested convergence on RMS density matrix=1.00D-08 within 128 cycles.
 Requested convergence on MAX density matrix=1.00D-06.
 Requested convergence on             energy=1.00D-06.
 No special actions if energy rises.
 SCF Done:  E(RHF) =  -661.273897792     A.U. after   16 cycles
            NFock= 16  Conv=0.90D-08     -V/T= 2.0037
 ExpMin= 1.61D-01 ExpMax= 5.48D+03 ExpMxC= 8.25D+02 IAcc=3 IRadAn=         5 AccDes= 0.00D+00
 HarFok:  IExCor=  205 AccDes= 0.00D+00 IRadAn=         5 IDoV=-2 UseB2=F ITyADJ=14
 ICtDFT= 12500011 ScaDFX=  1.000000  1.000000  1.000000  1.000000
 Range of M.O.s used for correlation:    15   236
 NBasis=   236 NAE=    52 NBE=    52 NFC=    14 NFV=     0
 NROrb=    222 NOA=    38 NOB=    38 NVA=   184 NVB=   184
 Fully direct method using O(ONN) memory.
 JobTyp=1 Pass  1:  I=  15 to  52 NPSUse=  4 ParTrn=T ParDer=T DoDerP=T.
 Spin components of T(2) and E(2):
     alpha-alpha T2 =       0.9196335616D-01 E2=     -0.2717578217D+00
     alpha-beta  T2 =       0.5006528288D+00 E2=     -0.1494668555D+01
     beta-beta   T2 =       0.9196335616D-01 E2=     -0.2717578217D+00
 ANorm=    0.1297913534D+01
 E2 =    -0.2038184198D+01 EUMP2 =    -0.66331208198977D+03
          IDoAtm=111111111111111111111111111
          Differentiating once with respect to electric field.
                with respect to dipole field.
          Differentiating once with respect to nuclear coordinates.
 Keep R1 ints in memory in canonical form, NReq=397723379.
          There are     1 degrees of freedom in the 1st order CPHF.  IDoFFX=0 NUNeed=     1.
 LinEq1:  Iter=  0 NonCon=     1 RMS=4.58D-03 Max=1.04D-01 NDo=     1
 AX will form     1 AO Fock derivatives at one time.
 LinEq1:  Iter=  1 NonCon=     1 RMS=1.55D-03 Max=3.30D-02 NDo=     1
 LinEq1:  Iter=  2 NonCon=     1 RMS=6.37D-04 Max=1.66D-02 NDo=     1
 LinEq1:  Iter=  3 NonCon=     1 RMS=2.96D-04 Max=9.07D-03 NDo=     1
 LinEq1:  Iter=  4 NonCon=     1 RMS=9.15D-05 Max=2.10D-03 NDo=     1
 LinEq1:  Iter=  5 NonCon=     1 RMS=3.88D-05 Max=2.01D-03 NDo=     1
 LinEq1:  Iter=  6 NonCon=     1 RMS=1.60D-05 Max=6.05D-04 NDo=     1
 LinEq1:  Iter=  7 NonCon=     1 RMS=6.27D-06 Max=1.13D-04 NDo=     1
 LinEq1:  Iter=  8 NonCon=     1 RMS=2.53D-06 Max=6.53D-05 NDo=     1
 LinEq1:  Iter=  9 NonCon=     1 RMS=9.71D-07 Max=2.72D-05 NDo=     1
 LinEq1:  Iter= 10 NonCon=     1 RMS=4.71D-07 Max=1.49D-05 NDo=     1
 LinEq1:  Iter= 11 NonCon=     1 RMS=1.64D-07 Max=5.83D-06 NDo=     1
 LinEq1:  Iter= 12 NonCon=     1 RMS=5.73D-08 Max=9.21D-07 NDo=     1
 LinEq1:  Iter= 13 NonCon=     1 RMS=1.84D-08 Max=3.73D-07 NDo=     1
 LinEq1:  Iter= 14 NonCon=     1 RMS=6.26D-09 Max=1.52D-07 NDo=     1
 LinEq1:  Iter= 15 NonCon=     1 RMS=2.42D-09 Max=5.02D-08 NDo=     1
 LinEq1:  Iter= 16 NonCon=     1 RMS=9.17D-10 Max=1.39D-08 NDo=     1
 LinEq1:  Iter= 17 NonCon=     1 RMS=2.88D-10 Max=4.66D-09 NDo=     1
 LinEq1:  Iter= 18 NonCon=     1 RMS=9.58D-11 Max=1.27D-09 NDo=     1
 LinEq1:  Iter= 19 NonCon=     0 RMS=3.09D-11 Max=6.52D-10 NDo=     1
 Linear equations converged to 1.000D-10 1.000D-09 after    19 iterations.
 End of Minotr F.D. properties file   721 does not exist.
 End of Minotr F.D. properties file   722 does not exist.
 End of Minotr F.D. properties file   788 does not exist.

 **********************************************************************

            Population analysis using the SCF Density.

 **********************************************************************

 Alpha  occ. eigenvalues --  -20.60007 -20.59524 -15.85388 -15.62339 -15.57491
 Alpha  occ. eigenvalues --  -11.35585 -11.30671 -11.30314 -11.29944 -11.27791
 Alpha  occ. eigenvalues --  -11.24528 -11.23816 -11.23441 -11.22855  -1.58632
 Alpha  occ. eigenvalues --   -1.38145  -1.28240  -1.22822  -1.13206  -1.08340
 Alpha  occ. eigenvalues --   -1.01794  -1.00551  -0.93435  -0.88993  -0.84865
 Alpha  occ. eigenvalues --   -0.81538  -0.78137  -0.76823  -0.74128  -0.70863
 Alpha  occ. eigenvalues --   -0.70468  -0.69882  -0.67491  -0.64445  -0.63404
 Alpha  occ. eigenvalues --   -0.61491  -0.60800  -0.57460  -0.56285  -0.54911
 Alpha  occ. eigenvalues --   -0.53142  -0.50723  -0.49032  -0.48511  -0.47722
 Alpha  occ. eigenvalues --   -0.47259  -0.46020  -0.45683  -0.44079  -0.42120
 Alpha  occ. eigenvalues --   -0.40518  -0.33969
 Alpha virt. eigenvalues --    0.06761   0.11575   0.18948   0.21419   0.23127
 Alpha virt. eigenvalues --    0.24115   0.26084   0.27414   0.28576   0.28890
 Alpha virt. eigenvalues --    0.29919   0.31007   0.31888   0.32192   0.33358
 Alpha virt. eigenvalues --    0.33698   0.34233   0.35674   0.37505   0.38551
 Alpha virt. eigenvalues --    0.40774   0.42226   0.44835   0.45441   0.45641
 Alpha virt. eigenvalues --    0.45976   0.49436   0.52950   0.57622   0.58782
 Alpha virt. eigenvalues --    0.63328   0.69138   0.69763   0.72113   0.73920
 Alpha virt. eigenvalues --    0.75096   0.75731   0.75875   0.77497   0.79761
 Alpha virt. eigenvalues --    0.80382   0.83471   0.85131   0.85566   0.88216
 Alpha virt. eigenvalues --    0.88593   0.90428   0.91045   0.91850   0.93798
 Alpha virt. eigenvalues --    0.95825   0.97116   0.98390   1.00174   1.01834
 Alpha virt. eigenvalues --    1.02676   1.05196   1.05971   1.06739   1.08119
 Alpha virt. eigenvalues --    1.09344   1.10457   1.10889   1.11584   1.13211
 Alpha virt. eigenvalues --    1.13720   1.14357   1.14831   1.16248   1.17374
 Alpha virt. eigenvalues --    1.17756   1.19572   1.20601   1.21986   1.22993
 Alpha virt. eigenvalues --    1.23323   1.24535   1.25926   1.27045   1.27506
 Alpha virt. eigenvalues --    1.28902   1.31791   1.32719   1.35266   1.40305
 Alpha virt. eigenvalues --    1.41729   1.44936   1.46777   1.48136   1.51577
 Alpha virt. eigenvalues --    1.53015   1.54747   1.60812   1.62488   1.65947
 Alpha virt. eigenvalues --    1.69419   1.70029   1.71469   1.73999   1.76150
 Alpha virt. eigenvalues --    1.79022   1.81097   1.84167   1.88395   1.92568
 Alpha virt. eigenvalues --    1.93265   1.96632   1.97758   1.98968   1.99781
 Alpha virt. eigenvalues --    2.03339   2.04312   2.05866   2.08699   2.11967
 Alpha virt. eigenvalues --    2.12329   2.15426   2.17745   2.18281   2.18726
 Alpha virt. eigenvalues --    2.21354   2.22250   2.24513   2.24693   2.26973
 Alpha virt. eigenvalues --    2.29210   2.32485   2.34074   2.35836   2.36546
 Alpha virt. eigenvalues --    2.38388   2.39561   2.40906   2.43031   2.45932
 Alpha virt. eigenvalues --    2.48346   2.50226   2.52750   2.56221   2.57513
 Alpha virt. eigenvalues --    2.61317   2.62664   2.66961   2.68009   2.68866
 Alpha virt. eigenvalues --    2.70267   2.70816   2.75254   2.78224   2.80683
 Alpha virt. eigenvalues --    2.83283   2.86716   2.90393   2.91875   2.95543
 Alpha virt. eigenvalues --    2.98018   2.98339   3.02403   3.02670   3.05722
 Alpha virt. eigenvalues --    3.06679   3.11707   3.20168   3.22226   3.27072
 Alpha virt. eigenvalues --    3.28442   3.32997   3.36418   3.43253   3.58060
 Alpha virt. eigenvalues --    4.09041   4.22731   4.32105   4.35983   4.42462
 Alpha virt. eigenvalues --    4.52894   4.59517   4.60161   4.70791   4.77328
 Alpha virt. eigenvalues --    4.94709   4.99195   5.02217   5.10452
          Condensed to atoms (all electrons):
               1          2          3          4          5          6
     1  O    8.298199   0.313257  -0.088955  -0.079558   0.003293  -0.000017
     2  N    0.313257   5.690319   0.307801   0.260879  -0.043170   0.001035
     3  O   -0.088955   0.307801   8.327873  -0.085758   0.007702   0.000427
     4  C   -0.079558   0.260879  -0.085758   5.232720   0.573335  -0.053638
     5  C    0.003293  -0.043170   0.007702   0.573335   4.667463   0.305847
     6  N   -0.000017   0.001035   0.000427  -0.053638   0.305847   7.213993
     7  C    0.000003  -0.000093   0.000001   0.002294  -0.030911   0.198196
     8  H   -0.000000   0.000003  -0.000000  -0.000043   0.001388  -0.053347
     9  C   -0.000000  -0.000003   0.000000   0.000325   0.002449  -0.054039
    10  C   -0.000000   0.000000  -0.000000  -0.000012  -0.000082   0.003278
    11  C   -0.000000  -0.000000  -0.000000  -0.000022   0.000014  -0.000154
    12  C   -0.000000   0.000002  -0.000000   0.000035  -0.000047   0.003542
    13  C   -0.000024  -0.000052  -0.000003  -0.012862   0.000497  -0.042299
    14  H   -0.000006  -0.000034  -0.000000   0.003295   0.006092  -0.005667
    15  N    0.000019   0.001619  -0.000014  -0.060588  -0.004288   0.001910
    16  C    0.004569  -0.029697   0.001850   0.321251  -0.040116  -0.002217
    17  H    0.000086  -0.003019   0.009933  -0.031598   0.381011  -0.035312
    18  H    0.000000  -0.000037   0.000009   0.000681  -0.022889   0.327173
    19  H    0.000000   0.000001   0.000000  -0.000482   0.000262   0.001098
    20  H    0.000000  -0.000000   0.000000  -0.000019   0.000039  -0.002328
    21  H   -0.000000  -0.000000   0.000000   0.000000   0.000001  -0.000055
    22  H   -0.000000   0.000000  -0.000000   0.000000  -0.000003  -0.000099
    23  H    0.000000  -0.000000   0.000000   0.000023  -0.000000  -0.000024
    24  H   -0.000000   0.000000   0.000000   0.000000  -0.000000   0.000004
    25  H    0.000000  -0.000000   0.000000   0.000019  -0.000001  -0.000070
    26  H   -0.000000  -0.000000   0.000000   0.000009  -0.000002  -0.000066
    27  H    0.004461  -0.000100  -0.000018  -0.063841   0.002241   0.000091
               7          8          9         10         11         12
     1  O    0.000003  -0.000000  -0.000000  -0.000000  -0.000000  -0.000000
     2  N   -0.000093   0.000003  -0.000003   0.000000  -0.000000   0.000002
     3  O    0.000001  -0.000000   0.000000  -0.000000  -0.000000  -0.000000
     4  C    0.002294  -0.000043   0.000325  -0.000012  -0.000022   0.000035
     5  C   -0.030911   0.001388   0.002449  -0.000082   0.000014  -0.000047
     6  N    0.198196  -0.053347  -0.054039   0.003278  -0.000154   0.003542
     7  C    4.981094   0.419171   0.339237  -0.049122  -0.007511  -0.063196
     8  H    0.419171   0.554490  -0.062514   0.001803  -0.000406  -0.002646
     9  C    0.339237  -0.062514   5.183589   0.317105  -0.052920  -0.006675
    10  C   -0.049122   0.001803   0.317105   5.126879   0.332751  -0.059697
    11  C   -0.007511  -0.000406  -0.052920   0.332751   5.122793   0.330997
    12  C   -0.063196  -0.002646  -0.006675  -0.059697   0.330997   5.135426
    13  C    0.339134  -0.043144  -0.046611  -0.002377  -0.047812   0.366154
    14  H   -0.039427  -0.000873   0.003844  -0.000394   0.003928  -0.040750
    15  N   -0.057008   0.004158  -0.012973   0.001527  -0.007555  -0.072925
    16  C   -0.003500   0.000092  -0.001253   0.000008  -0.000013   0.003011
    17  H    0.001604   0.000002  -0.000064   0.000001   0.000000   0.000001
    18  H   -0.027359  -0.001824   0.000712  -0.000124   0.000011  -0.000124
    19  H   -0.034967   0.004233   0.384801  -0.032441  -0.002381   0.000689
    20  H   -0.041171  -0.001947   0.397520  -0.037568   0.004160  -0.000348
    21  H    0.004016  -0.000083  -0.035855   0.400258  -0.035935   0.004199
    22  H   -0.004058   0.003519  -0.045606   0.396000  -0.045579  -0.001294
    23  H    0.000386   0.000034  -0.002015  -0.040161   0.396816  -0.036936
    24  H   -0.000139  -0.000094   0.004385  -0.038440   0.400320  -0.037780
    25  H    0.004906   0.000001  -0.000365   0.004100  -0.034160   0.395846
    26  H   -0.004449   0.001731   0.000984  -0.002365  -0.042235   0.394873
    27  H   -0.000402   0.000009  -0.000061   0.000005   0.000003  -0.000020
              13         14         15         16         17         18
     1  O   -0.000024  -0.000006   0.000019   0.004569   0.000086   0.000000
     2  N   -0.000052  -0.000034   0.001619  -0.029697  -0.003019  -0.000037
     3  O   -0.000003  -0.000000  -0.000014   0.001850   0.009933   0.000009
     4  C   -0.012862   0.003295  -0.060588   0.321251  -0.031598   0.000681
     5  C    0.000497   0.006092  -0.004288  -0.040116   0.381011  -0.022889
     6  N   -0.042299  -0.005667   0.001910  -0.002217  -0.035312   0.327173
     7  C    0.339134  -0.039427  -0.057008  -0.003500   0.001604  -0.027359
     8  H   -0.043144  -0.000873   0.004158   0.000092   0.000002  -0.001824
     9  C   -0.046611   0.003844  -0.012973  -0.001253  -0.000064   0.000712
    10  C   -0.002377  -0.000394   0.001527   0.000008   0.000001  -0.000124
    11  C   -0.047812   0.003928  -0.007555  -0.000013   0.000000   0.000011
    12  C    0.366154  -0.040750  -0.072925   0.003011   0.000001  -0.000124
    13  C    5.037538   0.399614   0.236539  -0.070843  -0.000065   0.003500
    14  H    0.399614   0.520713  -0.035680  -0.004976   0.000112   0.000018
    15  N    0.236539  -0.035680   6.922558   0.582789  -0.000077  -0.000116
    16  C   -0.070843  -0.004976   0.582789   4.711234   0.001620  -0.000243
    17  H   -0.000065   0.000112  -0.000077   0.001620   0.393139  -0.001508
    18  H    0.003500   0.000018  -0.000116  -0.000243  -0.001508   0.321796
    19  H   -0.006582   0.000064   0.007036   0.002635   0.000009  -0.000108
    20  H    0.003818  -0.000047   0.000070  -0.000030   0.000000   0.003195
    21  H   -0.000354   0.000009  -0.000022   0.000002  -0.000000  -0.000000
    22  H    0.000335  -0.000045   0.000000  -0.000001  -0.000000   0.000002
    23  H   -0.005633   0.000005   0.006484   0.000024   0.000000   0.000000
    24  H    0.004112  -0.000057   0.000046   0.000006   0.000000  -0.000000
    25  H   -0.034852  -0.002633   0.000449  -0.000066  -0.000000   0.000002
    26  H   -0.044499  -0.000969   0.004128  -0.000078   0.000000  -0.000001
    27  H    0.004901  -0.000188  -0.039117   0.400953  -0.000055   0.000004
              19         20         21         22         23         24
     1  O    0.000000   0.000000  -0.000000  -0.000000   0.000000  -0.000000
     2  N    0.000001  -0.000000  -0.000000   0.000000  -0.000000   0.000000
     3  O    0.000000   0.000000   0.000000  -0.000000   0.000000   0.000000
     4  C   -0.000482  -0.000019   0.000000   0.000000   0.000023   0.000000
     5  C    0.000262   0.000039   0.000001  -0.000003  -0.000000  -0.000000
     6  N    0.001098  -0.002328  -0.000055  -0.000099  -0.000024   0.000004
     7  C   -0.034967  -0.041171   0.004016  -0.004058   0.000386  -0.000139
     8  H    0.004233  -0.001947  -0.000083   0.003519   0.000034  -0.000094
     9  C    0.384801   0.397520  -0.035855  -0.045606  -0.002015   0.004385
    10  C   -0.032441  -0.037568   0.400258   0.396000  -0.040161  -0.038440
    11  C   -0.002381   0.004160  -0.035935  -0.045579   0.396816   0.400320
    12  C    0.000689  -0.000348   0.004199  -0.001294  -0.036936  -0.037780
    13  C   -0.006582   0.003818  -0.000354   0.000335  -0.005633   0.004112
    14  H    0.000064  -0.000047   0.000009  -0.000045   0.000005  -0.000057
    15  N    0.007036   0.000070  -0.000022   0.000000   0.006484   0.000046
    16  C    0.002635  -0.000030   0.000002  -0.000001   0.000024   0.000006
    17  H    0.000009   0.000000  -0.000000  -0.000000   0.000000   0.000000
    18  H   -0.000108   0.003195  -0.000000   0.000002   0.000000  -0.000000
    19  H    0.508633  -0.024187  -0.002600   0.003767   0.001655  -0.000068
    20  H   -0.024187   0.550583  -0.002569  -0.002990  -0.000050  -0.000090
    21  H   -0.002600  -0.002569   0.526615  -0.024734  -0.002829  -0.002039
    22  H    0.003767  -0.002990  -0.024734   0.568135   0.004070  -0.003588
    23  H    0.001655  -0.000050  -0.002829   0.004070   0.511121  -0.025023
    24  H   -0.000068  -0.000090  -0.002039  -0.003588  -0.025023   0.540813
    25  H   -0.000027   0.000011  -0.000086  -0.000082  -0.002131  -0.002364
    26  H    0.000025  -0.000036  -0.000075   0.002473   0.003833  -0.002794
    27  H    0.000073  -0.000000  -0.000000   0.000000  -0.000019  -0.000000
              25         26         27
     1  O    0.000000  -0.000000   0.004461
     2  N   -0.000000  -0.000000  -0.000100
     3  O    0.000000   0.000000  -0.000018
     4  C    0.000019   0.000009  -0.063841
     5  C   -0.000001  -0.000002   0.002241
     6  N   -0.000070  -0.000066   0.000091
     7  C    0.004906  -0.004449  -0.000402
     8  H    0.000001   0.001731   0.000009
     9  C   -0.000365   0.000984  -0.000061
    10  C    0.004100  -0.002365   0.000005
    11  C   -0.034160  -0.042235   0.000003
    12  C    0.395846   0.394873  -0.000020
    13  C   -0.034852  -0.044499   0.004901
    14  H   -0.002633  -0.000969  -0.000188
    15  N    0.000449   0.004128  -0.039117
    16  C   -0.000066  -0.000078   0.400953
    17  H   -0.000000   0.000000  -0.000055
    18  H    0.000002  -0.000001   0.000004
    19  H   -0.000027   0.000025   0.000073
    20  H    0.000011  -0.000036  -0.000000
    21  H   -0.000086  -0.000075  -0.000000
    22  H   -0.000082   0.002473   0.000000
    23  H   -0.002131   0.003833  -0.000019
    24  H   -0.002364  -0.002794  -0.000000
    25  H    0.511751  -0.023105  -0.000008
    26  H   -0.023105   0.559268   0.000001
    27  H   -0.000008   0.000001   0.455039
 Mulliken charges:
               1
     1  O   -0.455327
     2  N    0.501288
     3  O   -0.480848
     4  C   -0.006445
     5  C    0.189875
     6  N   -0.807262
     7  C    0.073271
     8  H    0.176286
     9  C   -0.313995
    10  C   -0.320934
    11  C   -0.315108
    12  C   -0.312337
    13  C   -0.038131
    14  H    0.194053
    15  N   -0.478968
    16  C    0.122990
    17  H    0.284180
    18  H    0.397229
    19  H    0.188863
    20  H    0.153986
    21  H    0.172137
    22  H    0.149778
    23  H    0.190369
    24  H    0.162791
    25  H    0.182864
    26  H    0.153350
    27  H    0.236046
 Sum of Mulliken charges =  -0.00000
 Mulliken charges with hydrogens summed into heavy atoms:
               1
     1  O   -0.455327
     2  N    0.501288
     3  O   -0.480848
     4  C   -0.006445
     5  C    0.474054
     6  N   -0.410033
     7  C    0.249557
     9  C    0.028854
    10  C    0.000981
    11  C    0.038051
    12  C    0.023876
    13  C    0.155922
    15  N   -0.478968
    16  C    0.359036
 Electronic spatial extent (au):  <R**2>=           3112.8959
 Charge=              0.0000 electrons
 Dipole moment (field-independent basis, Debye):
    X=              5.1920    Y=              4.3330    Z=              0.2754  Tot=              6.7681
 Quadrupole moment (field-independent basis, Debye-Ang):
   XX=           -105.0369   YY=            -81.0072   ZZ=            -81.8371
   XY=             -2.2685   XZ=              1.7953   YZ=             -0.2693
 Traceless Quadrupole moment (field-independent basis, Debye-Ang):
   XX=            -15.7432   YY=              8.2865   ZZ=              7.4567
   XY=             -2.2685   XZ=              1.7953   YZ=             -0.2693
 Octapole moment (field-independent basis, Debye-Ang**2):
  XXX=             97.8859  YYY=             36.2741  ZZZ=             -6.1988  XYY=             -0.7872
  XXY=             12.8108  XXZ=             -6.3324  XZZ=             -9.2995  YZZ=             -2.4547
  YYZ=             -1.1772  XYZ=             -2.7076
 Hexadecapole moment (field-independent basis, Debye-Ang**3):
 XXXX=          -3531.4688 YYYY=           -622.4521 ZZZZ=           -300.8869 XXXY=            -55.3719
 XXXZ=             76.7768 YYYX=            -32.5216 YYYZ=              5.6908 ZZZX=             47.4156
 ZZZY=             11.8756 XXYY=           -655.4186 XXZZ=           -541.8297 YYZZ=           -162.6226
 XXYZ=              3.2758 YYXZ=             17.8942 ZZXY=             -0.7812
 N-N= 9.185715247521D+02 E-N=-3.383157968289D+03  KE= 6.588595752991D+02
 Calling FoFJK, ICntrl=  10002127 FMM=F ISym2X=0 I1Cent= 0 IOpClX= 0 NMat=1 NMatS=1 NMatT=0.
 -------------------------------------------------------------------
 Center     Atomic                   Forces (Hartrees/Bohr)
 Number     Number              X              Y              Z
 -------------------------------------------------------------------
      1        8           0.002439915   -0.019765544   -0.004774409
      2        7           0.037645704    0.014557976   -0.001588495
      3        8          -0.005418704    0.014765172    0.004625862
      4        6          -0.001736768    0.013208885    0.011740508
      5        6          -0.001058300   -0.020989699   -0.009238073
      6        7           0.018552005   -0.012380343   -0.002438479
      7        6          -0.003722938    0.006559050    0.002973856
      8        1          -0.008367691   -0.002490379   -0.007755156
      9        6          -0.004261327   -0.000806297   -0.002119213
     10        6           0.002951602   -0.000629732    0.001118749
     11        6          -0.001486112   -0.004659989   -0.002649995
     12        6           0.001291022   -0.008560049   -0.002489665
     13        6           0.011360897   -0.003169281    0.005893481
     14        1           0.000293513    0.005001419   -0.010085101
     15        7          -0.003559081    0.006997631   -0.004249902
     16        6          -0.020075970    0.003163028    0.008418442
     17        1           0.004437192   -0.003097862   -0.012928258
     18        1          -0.016213419   -0.001246905    0.010197525
     19        1           0.002938889    0.006089687    0.007698219
     20        1          -0.003483986   -0.007184185    0.002575556
     21        1          -0.004724354    0.002428037    0.009433022
     22        1          -0.003677575   -0.004052420   -0.007586610
     23        1           0.003820342    0.006166201    0.009332191
     24        1          -0.009297980    0.002657416   -0.002476717
     25        1          -0.000543910    0.010511526   -0.002375727
     26        1          -0.004769592   -0.004881955   -0.004578985
     27        1           0.006666627    0.001808613    0.003327377
 -------------------------------------------------------------------
 Cartesian Forces:  Max     0.037645704 RMS     0.008822496

 GradGradGradGradGradGradGradGradGradGradGradGradGradGradGradGradGradGrad
 Berny optimization.
 FormGI is forming the generalized inverse of G from B-inverse, IUseBI=4.
 Internal  Forces:  Max     0.036659229 RMS     0.006736914
 Search for a local minimum.
 Step number   1 out of a maximum of   20
 All quantities printed in internal units (Hartrees-Bohrs-Radians)
 Mixed Optimization -- RFO/linear search
 Second derivative matrix not updated -- first step.
 ITU=  0
     Eigenvalues ---    0.00232   0.00764   0.01065   0.01149   0.01191
     Eigenvalues ---    0.01518   0.01539   0.01818   0.01974   0.02025
     Eigenvalues ---    0.02681   0.03637   0.04498   0.04690   0.04840
     Eigenvalues ---    0.05094   0.05135   0.05305   0.05899   0.06271
     Eigenvalues ---    0.07221   0.07713   0.07739   0.07904   0.07990
     Eigenvalues ---    0.08053   0.08103   0.10465   0.11751   0.12282
     Eigenvalues ---    0.13719   0.15361   0.15942   0.15966   0.16057
     Eigenvalues ---    0.20051   0.21502   0.22757   0.24999   0.25000
     Eigenvalues ---    0.25000   0.25337   0.26109   0.26650   0.27984
     Eigenvalues ---    0.28097   0.28422   0.29955   0.31074   0.31434
     Eigenvalues ---    0.32026   0.32232   0.32287   0.32376   0.32387
     Eigenvalues ---    0.32408   0.32505   0.32521   0.32568   0.33040
     Eigenvalues ---    0.33380   0.33611   0.34956   0.43870   0.44069
     Eigenvalues ---    0.48680   0.65498   0.90478   0.912191000.00000
     Eigenvalues --- 1000.000001000.000001000.000001000.000001000.00000
     Eigenvalues --- 1000.000001000.000001000.000001000.000001000.00000
     Eigenvalues --- 1000.000001000.000001000.000001000.000001000.00000
     Eigenvalues --- 1000.000001000.000001000.000001000.000001000.00000
     Eigenvalues --- 1000.000001000.000001000.000001000.000001000.00000
     Eigenvalues --- 1000.000001000.000001000.000001000.000001000.00000
     Eigenvalues --- 1000.000001000.000001000.000001000.000001000.00000
     Eigenvalues --- 1000.000001000.000001000.000001000.000001000.00000
     Eigenvalues --- 1000.000001000.000001000.000001000.000001000.00000
     Eigenvalues --- 1000.000001000.000001000.000001000.000001000.00000
     Eigenvalues --- 1000.000001000.000001000.000001000.000001000.00000
     Eigenvalues --- 1000.000001000.000001000.000001000.000001000.00000
     Eigenvalues --- 1000.000001000.000001000.000001000.000001000.00000
     Eigenvalues --- 1000.000001000.000001000.000001000.000001000.00000
     Eigenvalues --- 1000.000001000.000001000.000001000.000001000.00000
     Eigenvalues --- 1000.000001000.000001000.000001000.000001000.00000
     Eigenvalues --- 1000.000001000.000001000.000001000.000001000.00000
     Eigenvalues --- 1000.000001000.000001000.000001000.000001000.00000
     Eigenvalues --- 1000.00000
 RFO step:  Lambda=-2.32874918D-02 EMin= 2.31927018D-03
 Linear search not attempted -- first point.
 Iteration  1 RMS(Cart)=  0.05424388 RMS(Int)=  0.00127574
 Iteration  2 RMS(Cart)=  0.00141255 RMS(Int)=  0.00041307
 Iteration  3 RMS(Cart)=  0.00000218 RMS(Int)=  0.00041306
 Iteration  4 RMS(Cart)=  0.00000000 RMS(Int)=  0.00041306
 Iteration  1 RMS(Cart)=  0.00004066 RMS(Int)=  0.00002874
 Iteration  2 RMS(Cart)=  0.00002515 RMS(Int)=  0.00003187
 Iteration  3 RMS(Cart)=  0.00001569 RMS(Int)=  0.00003638
 Iteration  4 RMS(Cart)=  0.00000989 RMS(Int)=  0.00003988
 Iteration  5 RMS(Cart)=  0.00000634 RMS(Int)=  0.00004230
 Iteration  6 RMS(Cart)=  0.00000418 RMS(Int)=  0.00004394
 Iteration  7 RMS(Cart)=  0.00000287 RMS(Int)=  0.00004505
 Iteration  8 RMS(Cart)=  0.00000208 RMS(Int)=  0.00004581
 Iteration  9 RMS(Cart)=  0.00000159 RMS(Int)=  0.00004635
 Iteration 10 RMS(Cart)=  0.00000128 RMS(Int)=  0.00004674
 Iteration 11 RMS(Cart)=  0.00000106 RMS(Int)=  0.00004703
 Iteration 12 RMS(Cart)=  0.00000089 RMS(Int)=  0.00004725
 Variable       Old X    -DE/DX   Delta X   Delta X   Delta X     New X
                                 (Linear)    (Quad)   (Total)
    R1        2.32376   0.01882   0.00000   0.02012   0.02012   2.34388
    R2        2.32713   0.01534   0.00000   0.01653   0.01653   2.34366
    R3        2.88052  -0.03594   0.00000  -0.11133  -0.11133   2.76920
    R4        2.64613  -0.03666   0.00000  -0.07925  -0.07899   2.56714
    R5        2.81399  -0.02002   0.00000  -0.05606  -0.05582   2.75816
    R6        2.59110  -0.01819   0.00000  -0.03696  -0.03688   2.55422
    R7        2.08389  -0.00991   0.00000  -0.02776  -0.02776   2.05613
    R8        2.82518  -0.01894   0.00000  -0.05527  -0.05523   2.76996
    R9        1.93310  -0.00734   0.00000  -0.01588  -0.01588   1.91722
   R10        2.11891  -0.01122   0.00000  -0.03323  -0.03323   2.08568
   R11        2.92646  -0.01330   0.00000  -0.04544  -0.04553   2.88093
   R12        2.90465  -0.00647   0.00000  -0.01625  -0.01608   2.88857
   R13        2.91079  -0.00482   0.00000  -0.01405  -0.01408   2.89671
   R14        2.09929  -0.01005   0.00000  -0.02884  -0.02884   2.07045
   R15        2.09901  -0.00794   0.00000  -0.02278  -0.02278   2.07623
   R16        2.90405  -0.00192   0.00000  -0.00732  -0.00736   2.89669
   R17        2.10141  -0.01058   0.00000  -0.03047  -0.03047   2.07094
   R18        2.10321  -0.00907   0.00000  -0.02619  -0.02619   2.07702
   R19        2.91809  -0.00900   0.00000  -0.02847  -0.02838   2.88971
   R20        2.10422  -0.01169   0.00000  -0.03383  -0.03383   2.07039
   R21        2.10103  -0.00996   0.00000  -0.02866  -0.02866   2.07237
   R22        2.93591  -0.01024   0.00000  -0.03638  -0.03635   2.89955
   R23        2.10161  -0.01063   0.00000  -0.03063  -0.03063   2.07098
   R24        2.09818  -0.00799   0.00000  -0.02289  -0.02289   2.07529
   R25        2.10796  -0.00891   0.00000  -0.02594  -0.02594   2.08202
   R26        2.77192  -0.00523   0.00000  -0.01018  -0.01070   2.76122
   R27        2.44848  -0.00897   0.00000  -0.01120  -0.01142   2.43706
   R28        2.07991  -0.00626   0.00000  -0.01742  -0.01742   2.06249
    A1        2.16163   0.01059   0.00000   0.03911   0.03869   2.20032
    A2        2.05281  -0.00812   0.00000  -0.02936  -0.02978   2.02303
    A3        2.06850  -0.00246   0.00000  -0.00864  -0.00906   2.05944
    A4        2.03847  -0.00471   0.00000  -0.01672  -0.01685   2.02162
    A5        2.03891  -0.00451   0.00000  -0.01586  -0.01600   2.02291
    A6        2.20577   0.00921   0.00000   0.03255   0.03281   2.23858
    A7        2.17715   0.00540   0.00000   0.01422   0.01411   2.19126
    A8        2.07148  -0.00331   0.00000  -0.01306  -0.01335   2.05813
    A9        2.03318  -0.00201   0.00000  -0.00330  -0.00371   2.02947
   A10        2.23156  -0.00403   0.00000  -0.01151  -0.01187   2.21969
   A11        2.13531  -0.01240   0.00000  -0.06915  -0.07007   2.06525
   A12        1.89647   0.01645   0.00000   0.09150   0.09135   1.98782
   A13        1.83630   0.00002   0.00000  -0.01199  -0.01185   1.82444
   A14        2.00699  -0.00215   0.00000  -0.01139  -0.01143   1.99556
   A15        1.96685   0.00061   0.00000   0.00398   0.00366   1.97051
   A16        1.84963   0.00248   0.00000   0.02298   0.02296   1.87258
   A17        1.84735   0.00014   0.00000   0.00875   0.00841   1.85576
   A18        1.94187  -0.00069   0.00000  -0.00902  -0.00860   1.93327
   A19        1.91145   0.00006   0.00000  -0.00416  -0.00436   1.90709
   A20        1.92213  -0.00068   0.00000  -0.01135  -0.01131   1.91082
   A21        1.92310  -0.00164   0.00000  -0.00884  -0.00879   1.91431
   A22        1.91863  -0.00034   0.00000   0.00692   0.00697   1.92560
   A23        1.90366   0.00306   0.00000   0.02333   0.02332   1.92698
   A24        1.88465  -0.00043   0.00000  -0.00551  -0.00579   1.87886
   A25        1.93997  -0.00102   0.00000   0.00535   0.00532   1.94528
   A26        1.91919  -0.00063   0.00000  -0.00607  -0.00612   1.91307
   A27        1.90508   0.00039   0.00000  -0.00294  -0.00301   1.90207
   A28        1.91620   0.00094   0.00000   0.00740   0.00743   1.92363
   A29        1.89852   0.00158   0.00000   0.01046   0.01046   1.90898
   A30        1.88386  -0.00125   0.00000  -0.01469  -0.01476   1.86910
   A31        1.94498   0.00022   0.00000   0.00406   0.00407   1.94904
   A32        1.90207   0.00082   0.00000   0.00564   0.00565   1.90772
   A33        1.91795   0.00040   0.00000   0.00579   0.00577   1.92372
   A34        1.90535  -0.00082   0.00000  -0.01239  -0.01240   1.89295
   A35        1.91567  -0.00047   0.00000  -0.00047  -0.00052   1.91515
   A36        1.87644  -0.00017   0.00000  -0.00298  -0.00303   1.87341
   A37        1.95291  -0.00268   0.00000  -0.01835  -0.01827   1.93464
   A38        1.90529   0.00260   0.00000   0.01742   0.01730   1.92259
   A39        1.90899   0.00122   0.00000   0.01355   0.01343   1.92242
   A40        1.90537  -0.00002   0.00000  -0.00214  -0.00204   1.90333
   A41        1.90971  -0.00020   0.00000  -0.00563  -0.00557   1.90414
   A42        1.88014  -0.00086   0.00000  -0.00436  -0.00454   1.87561
   A43        1.84642   0.00407   0.00000   0.02576   0.02571   1.87213
   A44        1.94637  -0.00426   0.00000  -0.03576  -0.03638   1.90999
   A45        1.97361   0.00095   0.00000   0.00976   0.01028   1.98389
   A46        1.87320   0.00258   0.00000   0.03525   0.03572   1.90892
   A47        1.89187  -0.00271   0.00000  -0.02645  -0.02660   1.86527
   A48        1.92706  -0.00030   0.00000  -0.00543  -0.00554   1.92152
   A49        2.05894  -0.00443   0.00000  -0.01341  -0.01406   2.04488
   A50        2.23073  -0.00351   0.00000  -0.01859  -0.01828   2.21245
   A51        1.98399   0.00648   0.00000   0.03469   0.03452   2.01852
   A52        2.06672  -0.00281   0.00000  -0.01554  -0.01572   2.05100
    D1       -3.00578  -0.00122   0.00000  -0.00357  -0.00373  -3.00951
    D2        0.14414  -0.00040   0.00000   0.00000  -0.00000   0.14414
    D3        0.15885  -0.00178   0.00000  -0.05541  -0.05548   0.10337
    D4       -2.97441  -0.00096   0.00000  -0.05184  -0.05175  -3.02616
    D5       -3.13068  -0.00181   0.00000  -0.04211  -0.04240   3.11010
    D6        0.06934  -0.00346   0.00000   0.00342   0.00298   0.07232
    D7        0.00167  -0.00280   0.00000  -0.04636  -0.04698  -0.04531
    D8       -3.08149  -0.00445   0.00000  -0.00083  -0.00161  -3.08309
    D9       -2.54098  -0.00230   0.00000   0.00487   0.00445  -2.53652
   D10        0.53552   0.00073   0.00000   0.01502   0.01490   0.55042
   D11        0.60985  -0.00131   0.00000   0.00913   0.00904   0.61890
   D12       -2.59683   0.00172   0.00000   0.01927   0.01949  -2.57734
   D13       -0.42340   0.00260   0.00000   0.04494   0.04502  -0.37838
   D14        2.48060   0.00478   0.00000   0.12004   0.11774   2.59834
   D15        2.66092   0.00416   0.00000   0.00000   0.00000   2.66092
   D16       -0.71827   0.00635   0.00000   0.07510   0.07272  -0.64555
   D17       -2.27047  -0.00166   0.00000  -0.02360  -0.02282  -2.29329
   D18        1.98471  -0.00356   0.00000  -0.03786  -0.03714   1.94757
   D19       -0.26578  -0.00118   0.00000  -0.01825  -0.01799  -0.28377
   D20        1.08257  -0.00071   0.00000  -0.07413  -0.07559   1.00698
   D21       -0.94543  -0.00261   0.00000  -0.08839  -0.08991  -1.03534
   D22        3.08726  -0.00023   0.00000  -0.06879  -0.07076   3.01650
   D23        2.94354   0.00295   0.00000   0.02184   0.02163   2.96517
   D24       -1.22773   0.00214   0.00000   0.02056   0.02039  -1.20734
   D25        0.84952   0.00016   0.00000   0.00117   0.00110   0.85062
   D26        0.92317   0.00247   0.00000   0.02769   0.02754   0.95071
   D27        3.03509   0.00165   0.00000   0.02641   0.02631   3.06139
   D28       -1.17085  -0.00033   0.00000   0.00702   0.00702  -1.16383
   D29       -1.07683   0.00126   0.00000   0.00896   0.00899  -1.06784
   D30        1.03509   0.00045   0.00000   0.00768   0.00775   1.04284
   D31        3.11234  -0.00153   0.00000  -0.01171  -0.01153   3.10080
   D32       -2.90577  -0.00230   0.00000  -0.01041  -0.01016  -2.91593
   D33       -0.87470   0.00095   0.00000   0.02821   0.02795  -0.84674
   D34        1.30936  -0.00211   0.00000   0.00000  -0.00001   1.30935
   D35       -0.90778  -0.00188   0.00000  -0.01759  -0.01752  -0.92530
   D36        1.12330   0.00137   0.00000   0.02103   0.02059   1.14389
   D37       -2.97583  -0.00169   0.00000  -0.00717  -0.00737  -2.98320
   D38        1.09364   0.00078   0.00000   0.00999   0.01005   1.10369
   D39        3.12472   0.00403   0.00000   0.04861   0.04817  -3.11030
   D40       -0.97441   0.00097   0.00000   0.02040   0.02020  -0.95421
   D41        0.95665   0.00046   0.00000   0.00000  -0.00001   0.95665
   D42        3.08225   0.00053   0.00000   0.00879   0.00876   3.09100
   D43       -1.13745  -0.00113   0.00000  -0.01442  -0.01440  -1.15184
   D44       -1.15738   0.00147   0.00000   0.01232   0.01237  -1.14501
   D45        0.96821   0.00155   0.00000   0.02110   0.02113   0.98934
   D46        3.03171  -0.00011   0.00000  -0.00211  -0.00202   3.02968
   D47        3.06253   0.00037   0.00000   0.00102   0.00094   3.06348
   D48       -1.09506   0.00045   0.00000   0.00980   0.00971  -1.08535
   D49        0.96843  -0.00121   0.00000  -0.01340  -0.01345   0.95499
   D50       -0.92193  -0.00094   0.00000   0.00000  -0.00001  -0.92194
   D51        1.18184  -0.00128   0.00000  -0.00916  -0.00917   1.17267
   D52       -3.04936  -0.00076   0.00000  -0.00611  -0.00612  -3.05547
   D53       -3.04926  -0.00010   0.00000  -0.00093  -0.00093  -3.05019
   D54       -0.94549  -0.00044   0.00000  -0.01008  -0.01009  -0.95558
   D55        1.10650   0.00008   0.00000  -0.00703  -0.00705   1.09946
   D56        1.17606  -0.00006   0.00000   0.00643   0.00645   1.18250
   D57       -3.00335  -0.00040   0.00000  -0.00273  -0.00272  -3.00607
   D58       -0.95136   0.00012   0.00000   0.00032   0.00033  -0.95103
   D59        0.98523  -0.00051   0.00000  -0.01300  -0.01299   0.97224
   D60        3.09624  -0.00050   0.00000  -0.01576  -0.01585   3.08039
   D61       -1.13377   0.00067   0.00000  -0.00312  -0.00305  -1.13682
   D62       -1.11662  -0.00114   0.00000  -0.01444  -0.01441  -1.13103
   D63        0.99439  -0.00113   0.00000  -0.01720  -0.01727   0.97712
   D64        3.04757   0.00004   0.00000  -0.00456  -0.00447   3.04310
   D65        3.11398  -0.00018   0.00000  -0.00329  -0.00329   3.11069
   D66       -1.05820  -0.00018   0.00000  -0.00604  -0.00615  -1.06435
   D67        0.99497   0.00100   0.00000   0.00659   0.00665   1.00163
   D68       -1.04315   0.00005   0.00000   0.00042   0.00048  -1.04268
   D69       -3.12323   0.00162   0.00000   0.01107   0.01067  -3.11256
   D70        1.07846   0.00201   0.00000   0.01231   0.01245   1.09092
   D71        3.12907  -0.00148   0.00000  -0.00816  -0.00807   3.12100
   D72        1.04900   0.00009   0.00000   0.00249   0.00212   1.05112
   D73       -1.03250   0.00048   0.00000   0.00372   0.00390  -1.02859
   D74        1.07543  -0.00031   0.00000   0.00159   0.00174   1.07717
   D75       -1.00464   0.00125   0.00000   0.01225   0.01193  -0.99271
   D76       -3.08614   0.00165   0.00000   0.01348   0.01371  -3.07242
   D77       -1.17217   0.00219   0.00000   0.00000  -0.00001  -1.17218
   D78        3.06956  -0.00165   0.00000  -0.02050  -0.02041   3.04915
   D79        1.02228  -0.00299   0.00000  -0.04438  -0.04467   0.97762
   D80        0.00500   0.00509   0.00000   0.01846   0.01862   0.02362
   D81       -3.06881   0.00163   0.00000   0.00629   0.00638  -3.06243
         Item               Value     Threshold  Converged?
 Maximum Force            0.036374     0.000450     NO 
 RMS     Force            0.006830     0.000300     NO 
 Maximum Displacement     0.297897     0.001800     NO 
 RMS     Displacement     0.054643     0.001200     NO 
 Predicted change in Energy=-1.319980D-02
 GradGradGradGradGradGradGradGradGradGradGradGradGradGradGradGradGradGrad

                          Input orientation:                          
 ---------------------------------------------------------------------
 Center     Atomic      Atomic             Coordinates (Angstroms)
 Number     Number       Type             X           Y           Z
 ---------------------------------------------------------------------
      1          8           0       -3.418910   -1.491964   -0.077489
      2          7           0       -3.111387   -0.301823    0.088056
      3          8           0       -3.886624    0.617119    0.392482
      4          6           0       -1.688914    0.018334   -0.058418
      5          6           0       -1.329453    1.284404    0.278186
      6          7           0       -0.071239    1.777462    0.251588
      7          6           0        1.179972    1.015260    0.297238
      8          1           0        1.783265    1.519387    1.071856
      9          6           0        1.984311    1.049884   -0.997368
     10          6           0        3.368728    0.440369   -0.749200
     11          6           0        3.262698   -0.969406   -0.156788
     12          6           0        2.372789   -0.994031    1.086521
     13          6           0        0.983020   -0.423417    0.774658
     14          1           0        0.373016   -0.424931    1.692134
     15          7           0        0.381283   -1.297572   -0.229733
     16          6           0       -0.841606   -1.058145   -0.561974
     17          1           0       -2.094557    1.938491    0.691284
     18          1           0        0.055332    2.763321    0.048199
     19          1           0        1.453573    0.486047   -1.772493
     20          1           0        2.079426    2.087353   -1.346275
     21          1           0        3.933182    0.415093   -1.688209
     22          1           0        3.924688    1.086593   -0.055402
     23          1           0        2.832847   -1.645085   -0.904476
     24          1           0        4.259709   -1.351180    0.093928
     25          1           0        2.263856   -2.021215    1.452659
     26          1           0        2.831112   -0.404081    1.891461
     27          1           0       -1.321087   -1.752256   -1.254439
 ---------------------------------------------------------------------
                    Distance matrix (angstroms):
                    1          2          3          4          5
     1  O    0.000000
     2  N    1.240328   0.000000
     3  O    2.210851   1.240211   0.000000
     4  C    2.296574   1.465396   2.322022   0.000000
     5  C    3.492929   2.393230   2.645270   1.358472   0.000000
     6  N    4.690878   3.686823   3.990414   2.409877   1.351635
     7  C    5.251315   4.493798   5.083107   3.057917   2.523889
     8  H    6.119792   5.314347   5.781287   3.948000   3.220891
     9  C    6.041685   5.382508   6.048706   3.929160   3.558521
    10  C    7.089227   6.575997   7.346755   5.122015   4.882706
    11  C    6.702480   6.413624   7.343811   5.050126   5.133879
    12  C    5.928460   5.617141   6.500596   4.339724   4.421681
    13  C    4.609223   4.153357   4.994218   2.833442   2.917305
    14  H    4.318429   3.837875   4.573784   2.740889   2.796332
    15  N    3.808206   3.645717   4.718922   2.458998   3.138662
    16  C    2.658086   2.479207   3.604113   1.459557   2.536020
    17  H    3.756720   2.533146   2.246510   2.100857   1.088055
    18  H    5.494871   4.407357   4.501525   3.254030   2.039049
    19  H    5.525093   4.992118   5.763853   3.609990   3.547942
    20  H    6.682292   5.891520   6.385814   4.487739   3.860577
    21  H    7.764313   7.300345   8.094409   5.866993   5.684870
    22  H    7.783179   7.173188   7.838214   5.714342   5.268435
    23  H    6.308076   6.174414   7.207702   4.891738   5.225451
    24  H    7.681822   7.445418   8.386065   6.106136   6.182151
    25  H    5.908916   5.806177   6.775927   4.697607   5.021790
    26  H    6.642517   6.210959   6.958287   4.940759   4.771157
    27  H    2.419468   2.666688   3.861123   2.168122   3.401517
                    6          7          8          9         10
     6  N    0.000000
     7  C    1.465798   0.000000
     8  H    2.044169   1.103693   0.000000
     9  C    2.512876   1.524522   2.131324   0.000000
    10  C    3.823972   2.493228   2.644658   1.532875   0.000000
    11  C    4.339031   2.912523   3.145215   2.533452   1.532860
    12  C    3.788345   2.466380   2.581671   2.944673   2.533627
    13  C    2.495783   1.528565   2.122076   2.512623   2.959708
    14  H    2.668908   2.161264   2.480710   3.464791   3.960195
    15  N    3.145199   2.502957   3.405135   2.944403   3.495013
    16  C    3.048936   3.020600   4.025297   3.552345   4.472976
    17  H    2.076796   3.424933   3.918927   4.503147   5.845242
    18  H    1.014547   2.093454   2.362413   2.783889   4.124384
    19  H    2.844241   2.153766   3.044143   1.095633   2.171873
    20  H    2.697139   2.158596   2.501530   1.098692   2.175167
    21  H    4.653413   3.447081   3.668728   2.162943   1.095895
    22  H    4.066814   2.768196   2.458396   2.157246   1.099114
    23  H    4.635086   3.354631   3.875744   2.826924   2.158795
    24  H    5.345126   3.889236   3.915262   3.483314   2.171258
    25  H    4.617920   3.424906   3.593306   3.938582   3.482574
    26  H    3.983962   2.698581   2.338689   3.343116   2.824043
    27  H    4.035982   4.040068   5.074673   4.340937   5.201658
                   11         12         13         14         15
    11  C    0.000000
    12  C    1.529170   0.000000
    13  C    2.522425   1.534378   0.000000
    14  H    3.473504   2.165580   1.101757   0.000000
    15  N    2.900960   2.406400   1.461176   2.110721   0.000000
    16  C    4.125211   3.613030   2.349197   2.637663   1.289638
    17  H    6.154289   5.358459   3.880340   3.560391   4.177339
    18  H    4.925695   4.535021   3.397594   3.601166   4.083422
    19  H    2.828742   3.348066   2.745273   3.741808   2.590600
    20  H    3.486945   3.936938   3.464740   4.295967   3.948173
    21  H    2.170631   3.481319   3.933481   4.980677   4.204327
    22  H    2.162323   2.835731   3.409184   4.237093   4.274383
    23  H    1.095605   2.144666   2.780975   3.779144   2.566361
    24  H    1.096650   2.161773   3.472870   4.303323   3.892277
    25  H    2.166635   1.095916   2.157124   2.486111   2.626439
    26  H    2.168221   1.098194   2.159413   2.466253   3.361466
    27  H    4.777948   4.438437   3.345439   3.648845   2.038339
                   16         17         18         19         20
    16  C    0.000000
    17  H    3.481432   0.000000
    18  H    3.972456   2.390801   0.000000
    19  H    3.019558   4.557304   3.233569   0.000000
    20  H    4.363681   4.647144   2.549205   1.771308   0.000000
    21  H    5.122249   6.657055   4.854587   2.482056   2.519878
    22  H    5.251102   6.124915   4.218301   3.068463   2.464318
    23  H    3.736765   6.298236   5.296812   2.682830   3.833265
    24  H    5.151650   7.180214   5.882856   3.838402   4.318718
    25  H    3.824937   5.937569   5.453611   4.164676   4.974774
    26  H    4.464975   5.584826   4.597282   4.014287   4.153939
    27  H    1.091422   4.243314   4.897125   3.602377   5.129768
                   21         22         23         24         25
    21  H    0.000000
    22  H    1.765515   0.000000
    23  H    2.463596   3.061879   0.000000
    24  H    2.530287   2.465213   1.766104   0.000000
    25  H    4.311299   3.832895   2.453836   2.505699   0.000000
    26  H    3.834011   2.684826   3.058980   2.483750   1.769025
    27  H    5.700255   6.083988   4.170028   5.755367   4.500282
                   26         27
    26  H    0.000000
    27  H    5.380987   0.000000
 Symmetry turned off by external request.
 Stoichiometry    C9H13N3O2
 Framework group  C1[X(C9H13N3O2)]
 Deg. of freedom    75
 Full point group                 C1      NOp   1
 Rotational constants (GHZ):           1.6965441           0.4237295           0.3737461
 Standard basis: 6-31G(d) (6D, 7F)
   236 basis functions,   444 primitive gaussians,   236 cartesian basis functions
    52 alpha electrons       52 beta electrons
       nuclear repulsion energy       933.0684909206 Hartrees.
 NAtoms=   27 NActive=   27 NUniq=   27 SFac= 1.00D+00 NAtFMM=   60 NAOKFM=F Big=F
 Integral buffers will be    131072 words long.
 Raffenetti 1 integral format.
 Two-electron integral symmetry is turned off.
 One-electron integrals computed using PRISM.
 NBasis=   236 RedAO= T EigKep=  1.04D-03  NBF=   236
 NBsUse=   236 1.00D-06 EigRej= -1.00D+00 NBFU=   236
 Initial guess from the checkpoint file:  "/home/alexey/tmp/Gau-1577704.chk"
 B after Tr=     0.054809    0.003322    0.000459
         Rot=    0.999999    0.000792   -0.001099    0.000141 Ang=   0.16 deg.
 ExpMin= 1.61D-01 ExpMax= 5.48D+03 ExpMxC= 8.25D+02 IAcc=3 IRadAn=         5 AccDes= 0.00D+00
 Harris functional with IExCor=  205 and IRadAn=       5 diagonalized for initial guess.
 HarFok:  IExCor=  205 AccDes= 0.00D+00 IRadAn=         5 IDoV= 1 UseB2=F ITyADJ=14
 ICtDFT=  3500011 ScaDFX=  1.000000  1.000000  1.000000  1.000000
 FoFCou: FMM=F IPFlag=           0 FMFlag=      100000 FMFlg1=           0
         NFxFlg=           0 DoJE=T BraDBF=F KetDBF=T FulRan=T
         wScrn=  0.000000 ICntrl=       500 IOpCl=  0 I1Cent=   200000004 NGrid=           0
         NMat0=    1 NMatS0=      1 NMatT0=    0 NMatD0=    1 NMtDS0=    0 NMtDT0=    0
 Symmetry not used in FoFCou.
 Keep R1 ints in memory in canonical form, NReq=397720213.
 Requested convergence on RMS density matrix=1.00D-08 within 128 cycles.
 Requested convergence on MAX density matrix=1.00D-06.
 Requested convergence on             energy=1.00D-06.
 No special actions if energy rises.
 SCF Done:  E(RHF) =  -661.291055399     A.U. after   15 cycles
            NFock= 15  Conv=0.41D-08     -V/T= 2.0025
 ExpMin= 1.61D-01 ExpMax= 5.48D+03 ExpMxC= 8.25D+02 IAcc=3 IRadAn=         5 AccDes= 0.00D+00
 HarFok:  IExCor=  205 AccDes= 0.00D+00 IRadAn=         5 IDoV=-2 UseB2=F ITyADJ=14
 ICtDFT= 12500011 ScaDFX=  1.000000  1.000000  1.000000  1.000000
 Range of M.O.s used for correlation:    15   236
 NBasis=   236 NAE=    52 NBE=    52 NFC=    14 NFV=     0
 NROrb=    222 NOA=    38 NOB=    38 NVA=   184 NVB=   184
 Fully direct method using O(ONN) memory.
 JobTyp=1 Pass  1:  I=  15 to  52 NPSUse=  4 ParTrn=T ParDer=T DoDerP=T.
 Spin components of T(2) and E(2):
     alpha-alpha T2 =       0.9124357487D-01 E2=     -0.2723039440D+00
     alpha-beta  T2 =       0.4923942774D+00 E2=     -0.1489158583D+01
     beta-beta   T2 =       0.9124357487D-01 E2=     -0.2723039440D+00
 ANorm=    0.1294172101D+01
 E2 =    -0.2033766471D+01 EUMP2 =    -0.66332482186995D+03
          IDoAtm=111111111111111111111111111
          Differentiating once with respect to electric field.
                with respect to dipole field.
          Differentiating once with respect to nuclear coordinates.
 Keep R1 ints in memory in canonical form, NReq=397723379.
          There are     1 degrees of freedom in the 1st order CPHF.  IDoFFX=0 NUNeed=     1.
 LinEq1:  Iter=  0 NonCon=     1 RMS=4.55D-03 Max=9.65D-02 NDo=     1
 AX will form     1 AO Fock derivatives at one time.
 LinEq1:  Iter=  1 NonCon=     1 RMS=1.52D-03 Max=2.50D-02 NDo=     1
 LinEq1:  Iter=  2 NonCon=     1 RMS=6.39D-04 Max=1.63D-02 NDo=     1
 LinEq1:  Iter=  3 NonCon=     1 RMS=2.82D-04 Max=7.91D-03 NDo=     1
 LinEq1:  Iter=  4 NonCon=     1 RMS=8.72D-05 Max=1.90D-03 NDo=     1
 LinEq1:  Iter=  5 NonCon=     1 RMS=3.67D-05 Max=1.87D-03 NDo=     1
 LinEq1:  Iter=  6 NonCon=     1 RMS=1.44D-05 Max=5.65D-04 NDo=     1
[...]
    24  H    5.141969   7.160226   5.921089   3.850823   4.317700
    25  H    3.826240   5.909868   5.315027   4.173544   4.983840
    26  H    4.486824   5.586366   4.420720   4.040085   4.183328
    27  H    1.089783   4.252863   5.041954   3.553787   5.104485
                   21         22         23         24         25
    21  H    0.000000
    22  H    1.758643   0.000000
    23  H    2.468753   3.061818   0.000000
    24  H    2.517545   2.459826   1.764469   0.000000
    25  H    4.312269   3.839944   2.444826   2.520222   0.000000
    26  H    3.847179   2.705315   3.060511   2.489518   1.767297
    27  H    5.645963   6.046938   4.115101   5.715781   4.482492
                   26         27
    26  H    0.000000
    27  H    5.384554   0.000000
 Symmetry turned off by external request.
 Stoichiometry    C9H13N3O2
 Framework group  C1[X(C9H13N3O2)]
 Deg. of freedom    75
 Full point group                 C1      NOp   1
 Rotational constants (GHZ):           1.6924310           0.4208445           0.3729579

 **********************************************************************

            Population analysis using the SCF Density.

 **********************************************************************

 Alpha  occ. eigenvalues --  -20.59401 -20.59074 -15.84818 -15.63580 -15.56683
 Alpha  occ. eigenvalues --  -11.34860 -11.29714 -11.29623 -11.28780 -11.27246
 Alpha  occ. eigenvalues --  -11.23509 -11.23130 -11.22810 -11.22121  -1.57247
 Alpha  occ. eigenvalues --   -1.36872  -1.30648  -1.23281  -1.14678  -1.09823
 Alpha  occ. eigenvalues --   -1.02738  -1.01243  -0.94449  -0.89644  -0.85419
 Alpha  occ. eigenvalues --   -0.82449  -0.78418  -0.77475  -0.75066  -0.71739
 Alpha  occ. eigenvalues --   -0.70025  -0.69483  -0.67802  -0.65018  -0.63660
 Alpha  occ. eigenvalues --   -0.62103  -0.60656  -0.57652  -0.57051  -0.55017
 Alpha  occ. eigenvalues --   -0.54446  -0.50757  -0.49825  -0.48704  -0.48112
 Alpha  occ. eigenvalues --   -0.47447  -0.46207  -0.45979  -0.43737  -0.41653
 Alpha  occ. eigenvalues --   -0.40318  -0.34246
 Alpha virt. eigenvalues --    0.07030   0.11692   0.17395   0.21786   0.24147
 Alpha virt. eigenvalues --    0.25464   0.26792   0.28502   0.29036   0.29662
 Alpha virt. eigenvalues --    0.30517   0.31822   0.31937   0.32645   0.34135
 Alpha virt. eigenvalues --    0.34427   0.35735   0.37197   0.38562   0.40166
 Alpha virt. eigenvalues --    0.41222   0.42794   0.45337   0.46361   0.46467
 Alpha virt. eigenvalues --    0.47125   0.48801   0.53504   0.57830   0.59373
 Alpha virt. eigenvalues --    0.63629   0.69611   0.70041   0.72810   0.74247
 Alpha virt. eigenvalues --    0.75004   0.75859   0.76696   0.78395   0.79784
 Alpha virt. eigenvalues --    0.81268   0.84337   0.85853   0.86560   0.88519
 Alpha virt. eigenvalues --    0.89782   0.90332   0.92482   0.92805   0.94386
 Alpha virt. eigenvalues --    0.95910   0.97802   0.99385   1.01937   1.02456
 Alpha virt. eigenvalues --    1.02887   1.05255   1.06551   1.07329   1.08939
 Alpha virt. eigenvalues --    1.09999   1.10254   1.11785   1.12067   1.13911
 Alpha virt. eigenvalues --    1.14351   1.14964   1.15342   1.16609   1.18617
 Alpha virt. eigenvalues --    1.19697   1.20704   1.21453   1.23413   1.24013
 Alpha virt. eigenvalues --    1.24231   1.26484   1.26886   1.27363   1.29251
 Alpha virt. eigenvalues --    1.29924   1.33675   1.35026   1.36323   1.40699
 Alpha virt. eigenvalues --    1.42057   1.46812   1.48425   1.49477   1.53899
 Alpha virt. eigenvalues --    1.54768   1.56648   1.62882   1.63517   1.66096
 Alpha virt. eigenvalues --    1.67922   1.69140   1.73002   1.75210   1.76587
 Alpha virt. eigenvalues --    1.82978   1.84053   1.86725   1.89695   1.93158
 Alpha virt. eigenvalues --    1.95629   1.96725   1.99372   2.00618   2.01778
 Alpha virt. eigenvalues --    2.05032   2.05880   2.08230   2.10120   2.12122
 Alpha virt. eigenvalues --    2.12946   2.15197   2.16998   2.19957   2.21009
 Alpha virt. eigenvalues --    2.23764   2.24791   2.25349   2.28234   2.30259
 Alpha virt. eigenvalues --    2.31944   2.33825   2.35603   2.37349   2.38498
 Alpha virt. eigenvalues --    2.39703   2.41172   2.43545   2.45516   2.49356
 Alpha virt. eigenvalues --    2.50993   2.52963   2.53971   2.55886   2.61631
 Alpha virt. eigenvalues --    2.62912   2.64951   2.68152   2.70042   2.71253
 Alpha virt. eigenvalues --    2.73148   2.73727   2.78696   2.79021   2.83057
 Alpha virt. eigenvalues --    2.86939   2.87564   2.92874   2.93603   2.96496
 Alpha virt. eigenvalues --    3.00046   3.00789   3.03362   3.04390   3.08024
 Alpha virt. eigenvalues --    3.08960   3.14056   3.22037   3.24451   3.27115
 Alpha virt. eigenvalues --    3.31053   3.36752   3.37362   3.51959   3.63637
 Alpha virt. eigenvalues --    4.12278   4.27728   4.34033   4.38674   4.44965
 Alpha virt. eigenvalues --    4.56234   4.61564   4.62093   4.73421   4.78972
 Alpha virt. eigenvalues --    4.98437   5.00837   5.03928   5.11440
          Condensed to atoms (all electrons):
               1          2          3          4          5          6
     1  O    8.314283   0.309247  -0.082233  -0.087202   0.004491  -0.000017
     2  N    0.309247   5.720968   0.301706   0.265933  -0.051475   0.000948
     3  O   -0.082233   0.301706   8.349761  -0.092307   0.005373   0.000686
     4  C   -0.087202   0.265933  -0.092307   5.203102   0.571867  -0.051681
     5  C    0.004491  -0.051475   0.005373   0.571867   4.706795   0.319395
     6  N   -0.000017   0.000948   0.000686  -0.051681   0.319395   7.172674
     7  C    0.000005  -0.000142  -0.000000   0.001926  -0.032916   0.177438
     8  H   -0.000000   0.000003  -0.000000  -0.000099   0.002378  -0.050903
     9  C   -0.000000  -0.000004   0.000000   0.000712   0.001686  -0.060452
    10  C    0.000000   0.000000  -0.000000  -0.000027  -0.000077   0.003625
    11  C   -0.000000  -0.000000  -0.000000  -0.000039   0.000025  -0.000204
    12  C   -0.000000   0.000003  -0.000000  -0.000065  -0.000023   0.003931
    13  C   -0.000032  -0.000080  -0.000004  -0.013553  -0.000902  -0.045739
    14  H   -0.000008  -0.000088   0.000000   0.003207   0.008012  -0.007564
    15  N    0.000131   0.002408  -0.000017  -0.063197  -0.006313   0.001286
    16  C    0.002269  -0.031060   0.002389   0.331148  -0.048897  -0.002446
    17  H    0.000159  -0.006147   0.014476  -0.024550   0.376436  -0.034922
    18  H    0.000001  -0.000056   0.000012   0.002178  -0.032192   0.339073
    19  H    0.000000  -0.000000   0.000000  -0.000824   0.000695  -0.000012
    20  H    0.000000  -0.000000   0.000000  -0.000070   0.000160  -0.000550
    21  H   -0.000000   0.000000   0.000000   0.000000   0.000001  -0.000070
    22  H   -0.000000   0.000000  -0.000000   0.000000  -0.000004  -0.000119
    23  H    0.000000  -0.000000   0.000000   0.000039  -0.000000  -0.000029
    24  H   -0.000000   0.000000   0.000000   0.000000  -0.000000   0.000005
    25  H   -0.000000  -0.000000   0.000000   0.000030  -0.000004  -0.000091
    26  H   -0.000000  -0.000000   0.000000   0.000009  -0.000004  -0.000052
    27  H    0.005189  -0.000953  -0.000009  -0.060429   0.002500   0.000020
               7          8          9         10         11         12
     1  O    0.000005  -0.000000  -0.000000   0.000000  -0.000000  -0.000000
     2  N   -0.000142   0.000003  -0.000004   0.000000  -0.000000   0.000003
     3  O   -0.000000  -0.000000   0.000000  -0.000000  -0.000000  -0.000000
     4  C    0.001926  -0.000099   0.000712  -0.000027  -0.000039  -0.000065
     5  C   -0.032916   0.002378   0.001686  -0.000077   0.000025  -0.000023
     6  N    0.177438  -0.050903  -0.060452   0.003625  -0.000204   0.003931
     7  C    5.019535   0.418704   0.346237  -0.054872  -0.008672  -0.060105
     8  H    0.418704   0.543747  -0.055925   0.000906  -0.000427  -0.002141
     9  C    0.346237  -0.055925   5.158757   0.323272  -0.049999  -0.005364
    10  C   -0.054872   0.000906   0.323272   5.122720   0.336336  -0.060848
    11  C   -0.008672  -0.000427  -0.049999   0.336336   5.119495   0.336169
    12  C   -0.060105  -0.002141  -0.005364  -0.060848   0.336169   5.117781
    13  C    0.345161  -0.039893  -0.059536  -0.000242  -0.051028   0.369447
    14  H   -0.046706  -0.000516   0.004442  -0.000404   0.004137  -0.036081
    15  N   -0.057500   0.004102  -0.015325   0.001661  -0.012760  -0.080786
    16  C   -0.002031   0.000036  -0.001624   0.000000   0.000026   0.003083
    17  H    0.002006  -0.000056  -0.000067   0.000001   0.000000  -0.000001
    18  H   -0.023845  -0.005109   0.001820  -0.000095   0.000004  -0.000126
    19  H   -0.036719   0.004463   0.389896  -0.032286  -0.002314   0.000716
    20  H   -0.041273  -0.002033   0.399670  -0.035585   0.003932  -0.000400
    21  H    0.004579  -0.000074  -0.036153   0.402538  -0.034927   0.004337
    22  H   -0.004795   0.003595  -0.046788   0.397591  -0.045667  -0.001048
    23  H    0.000549   0.000040  -0.001931  -0.039034   0.399285  -0.037898
    24  H   -0.000126  -0.000101   0.004338  -0.038248   0.402234  -0.038782
    25  H    0.005044  -0.000019  -0.000439   0.004185  -0.033489   0.398483
    26  H   -0.004042   0.001785   0.000939  -0.002206  -0.041324   0.396865
    27  H   -0.000401   0.000010  -0.000065   0.000007   0.000009  -0.000035
              13         14         15         16         17         18
     1  O   -0.000032  -0.000008   0.000131   0.002269   0.000159   0.000001
     2  N   -0.000080  -0.000088   0.002408  -0.031060  -0.006147  -0.000056
     3  O   -0.000004   0.000000  -0.000017   0.002389   0.014476   0.000012
     4  C   -0.013553   0.003207  -0.063197   0.331148  -0.024550   0.002178
     5  C   -0.000902   0.008012  -0.006313  -0.048897   0.376436  -0.032192
     6  N   -0.045739  -0.007564   0.001286  -0.002446  -0.034922   0.339073
     7  C    0.345161  -0.046706  -0.057500  -0.002031   0.002006  -0.023845
     8  H   -0.039893  -0.000516   0.004102   0.000036  -0.000056  -0.005109
     9  C   -0.059536   0.004442  -0.015325  -0.001624  -0.000067   0.001820
    10  C   -0.000242  -0.000404   0.001661   0.000000   0.000001  -0.000095
    11  C   -0.051028   0.004137  -0.012760   0.000026   0.000000   0.000004
    12  C    0.369447  -0.036081  -0.080786   0.003083  -0.000001  -0.000126
    13  C    5.048184   0.400439   0.244818  -0.072188  -0.000039   0.002860
    14  H    0.400439   0.530735  -0.037415  -0.005252   0.000158  -0.000082
    15  N    0.244818  -0.037415   6.947369   0.583305  -0.000096  -0.000113
    16  C   -0.072188  -0.005252   0.583305   4.716150   0.002132  -0.000168
    17  H   -0.000039   0.000158  -0.000096   0.002132   0.385036  -0.003218
    18  H    0.002860  -0.000082  -0.000113  -0.000168  -0.003218   0.319854
    19  H   -0.007580   0.000113   0.007892   0.002999   0.000011  -0.000144
    20  H    0.004279  -0.000065   0.000135  -0.000037   0.000003   0.000467
    21  H   -0.000420   0.000010  -0.000033   0.000003  -0.000000   0.000002
    22  H    0.000060  -0.000057   0.000016  -0.000002   0.000000  -0.000000
    23  H   -0.007326  -0.000001   0.008249   0.000064   0.000000   0.000000
    24  H    0.004701  -0.000055   0.000139   0.000007   0.000000  -0.000000
    25  H   -0.035609  -0.002767   0.000076  -0.000026  -0.000000   0.000002
    26  H   -0.047200  -0.001063   0.004814  -0.000086   0.000000  -0.000000
    27  H    0.005139  -0.000189  -0.040465   0.401684  -0.000069   0.000001
              19         20         21         22         23         24
     1  O    0.000000   0.000000  -0.000000  -0.000000   0.000000  -0.000000
     2  N   -0.000000  -0.000000   0.000000   0.000000  -0.000000   0.000000
     3  O    0.000000   0.000000   0.000000  -0.000000   0.000000   0.000000
     4  C   -0.000824  -0.000070   0.000000   0.000000   0.000039   0.000000
     5  C    0.000695   0.000160   0.000001  -0.000004  -0.000000  -0.000000
     6  N   -0.000012  -0.000550  -0.000070  -0.000119  -0.000029   0.000005
     7  C   -0.036719  -0.041273   0.004579  -0.004795   0.000549  -0.000126
     8  H    0.004463  -0.002033  -0.000074   0.003595   0.000040  -0.000101
     9  C    0.389896   0.399670  -0.036153  -0.046788  -0.001931   0.004338
    10  C   -0.032286  -0.035585   0.402538   0.397591  -0.039034  -0.038248
    11  C   -0.002314   0.003932  -0.034927  -0.045667   0.399285   0.402234
    12  C    0.000716  -0.000400   0.004337  -0.001048  -0.037898  -0.038782
    13  C   -0.007580   0.004279  -0.000420   0.000060  -0.007326   0.004701
    14  H    0.000113  -0.000065   0.000010  -0.000057  -0.000001  -0.000055
    15  N    0.007892   0.000135  -0.000033   0.000016   0.008249   0.000139
    16  C    0.002999  -0.000037   0.000003  -0.000002   0.000064   0.000007
    17  H    0.000011   0.000003  -0.000000   0.000000   0.000000   0.000000
    18  H   -0.000144   0.000467   0.000002  -0.000000   0.000000  -0.000000
    19  H    0.505052  -0.024217  -0.002783   0.003953   0.001518  -0.000065
    20  H   -0.024217   0.537220  -0.002637  -0.003004  -0.000047  -0.000081
    21  H   -0.002783  -0.002637   0.523879  -0.027422  -0.002927  -0.002218
    22  H    0.003953  -0.003004  -0.027422   0.572071   0.004156  -0.003666
    23  H    0.001518  -0.000047  -0.002927   0.004156   0.499863  -0.025497
    24  H   -0.000065  -0.000081  -0.002218  -0.003666  -0.025497   0.538151
    25  H   -0.000027   0.000012  -0.000088  -0.000079  -0.002349  -0.002242
    26  H    0.000019  -0.000030  -0.000082   0.002385   0.004062  -0.003077
    27  H    0.000080   0.000000  -0.000000   0.000000  -0.000032  -0.000000
              25         26         27
     1  O   -0.000000  -0.000000   0.005189
     2  N   -0.000000  -0.000000  -0.000953
     3  O    0.000000   0.000000  -0.000009
     4  C    0.000030   0.000009  -0.060429
     5  C   -0.000004  -0.000004   0.002500
     6  N   -0.000091  -0.000052   0.000020
     7  C    0.005044  -0.004042  -0.000401
     8  H   -0.000019   0.001785   0.000010
     9  C   -0.000439   0.000939  -0.000065
    10  C    0.004185  -0.002206   0.000007
    11  C   -0.033489  -0.041324   0.000009
    12  C    0.398483   0.396865  -0.000035
    13  C   -0.035609  -0.047200   0.005139
    14  H   -0.002767  -0.001063  -0.000189
    15  N    0.000076   0.004814  -0.040465
    16  C   -0.000026  -0.000086   0.401684
    17  H   -0.000000   0.000000  -0.000069
    18  H    0.000002  -0.000000   0.000001
    19  H   -0.000027   0.000019   0.000080
    20  H    0.000012  -0.000030   0.000000
    21  H   -0.000088  -0.000082  -0.000000
    22  H   -0.000079   0.002385   0.000000
    23  H   -0.002349   0.004062  -0.000032
    24  H   -0.002242  -0.003077  -0.000000
    25  H    0.506572  -0.024173  -0.000010
    26  H   -0.024173   0.561513   0.000001
    27  H   -0.000010   0.000001   0.444818
 Mulliken charges:
               1
     1  O   -0.466282
     2  N    0.488790
     3  O   -0.499832
     4  C    0.013890
     5  C    0.172990
     6  N   -0.764231
     7  C    0.052964
     8  H    0.177527
     9  C   -0.298100
    10  C   -0.328917
    11  C   -0.320801
    12  C   -0.307114
    13  C   -0.043716
    14  H    0.187058
    15  N   -0.492380
    16  C    0.118520
    17  H    0.288747
    18  H    0.398875
    19  H    0.189563
    20  H    0.164152
    21  H    0.174486
    22  H    0.148825
    23  H    0.199248
    24  H    0.164585
    25  H    0.187006
    26  H    0.150948
    27  H    0.243200
 Sum of Mulliken charges =  -0.00000
 Mulliken charges with hydrogens summed into heavy atoms:
               1
     1  O   -0.466282
     2  N    0.488790
     3  O   -0.499832
     4  C    0.013890
     5  C    0.461737
     6  N   -0.365356
     7  C    0.230491
     9  C    0.055616
    10  C   -0.005607
    11  C    0.043032
    12  C    0.030840
    13  C    0.143341
    15  N   -0.492380
    16  C    0.361719
 Electronic spatial extent (au):  <R**2>=           2996.5633
 Charge=             -0.0000 electrons
 Dipole moment (field-independent basis, Debye):
    X=              5.3019    Y=              4.6391    Z=              1.3042  Tot=              7.1647
 Quadrupole moment (field-independent basis, Debye-Ang):
   XX=           -105.6877   YY=            -80.2235   ZZ=            -80.9609
   XY=             -2.2673   XZ=              1.0716   YZ=              2.8156
 Traceless Quadrupole moment (field-independent basis, Debye-Ang):
   XX=            -16.7303   YY=              8.7338   ZZ=              7.9965
   XY=             -2.2673   XZ=              1.0716   YZ=              2.8156
 Octapole moment (field-independent basis, Debye-Ang**2):
  XXX=             89.8479  YYY=             34.5864  ZZZ=             -0.0852  XYY=             -3.2927
  XXY=             11.2856  XXZ=             -1.2790  XZZ=            -11.0047  YZZ=             -0.2058
  YYZ=              9.8109  XYZ=             -1.5077
 Hexadecapole moment (field-independent basis, Debye-Ang**3):
 XXXX=          -3366.1497 YYYY=           -608.7993 ZZZZ=           -301.2143 XXXY=            -38.4672
 XXXZ=             41.0912 YYYX=            -21.4437 YYYZ=             30.0860 ZZZX=             28.3701
 ZZZY=             11.5052 XXYY=           -627.9976 XXZZ=           -519.9275 YYZZ=           -154.4490
 XXYZ=             -0.9066 YYXZ=             10.6866 ZZXY=              1.6538
 N-N= 9.319978956923D+02 E-N=-3.410686795510D+03  KE= 6.596278143261D+02
 Unable to Open any file for archive entry.
 1\1\GINC-LOTUS\FOpt\RMP2-FC\6-31G(d)\C9H13N3O2\ALEXEY\02-Jul-2023\0\\#
 MP2/6-31G* SCF=Tight Opt=(ModRedun, MaxCycle=20 ) NoSymm\\MolName:\\0,
 1\O,-3.4629310601,-1.4555778933,-0.219794844\N,-3.1125374559,-0.277414
 6321,-0.010716372\O,-3.9071653239,0.6474862793,0.2436953309\C,-1.68794
 35117,-0.0015899033,-0.0567346768\C,-1.310848093,1.2696235135,0.277576
 2156\N,-0.0651203953,1.7849841748,0.2284609059\C,1.1924120474,1.037270
 8481,0.275862488\H,1.8126086078,1.5714917769,1.0123899462\C,1.96480899
 18,1.0247879592,-1.0410018718\C,3.349064056,0.4122719144,-0.7983823653
 \C,3.2603251984,-0.9748512872,-0.1564344475\C,2.4001014967,-0.96268662
 96,1.1093968488\C,1.0093908024,-0.3989460051,0.7994507517\H,0.38695334
 55,-0.3590792037,1.7084810821\N,0.3983896001,-1.2931648787,-0.18230595
 61\C,-0.8336492596,-1.0813543713,-0.5224919725\H,-2.0768133979,1.92261
 93876,0.6873795675\H,-0.0007723351,2.7307570209,0.5876620318\H,1.40531
 51006,0.4430849386,-1.7809789826\H,2.055534558,2.0478681438,-1.4258964
 195\H,3.9019103735,0.3575388747,-1.7431374825\H,3.9206707254,1.0832278
 15,-0.141310806\H,2.8143373366,-1.6780549859,-0.8666193482\H,4.2664930
 533,-1.3422942652,0.0777632431\H,2.286860535,-1.9789118747,1.50159285\
 H,2.8768446246,-0.3600864206,1.8948616821\H,-1.2852096206,-1.804990296
 2,-1.200777399\\Version=ES64L-G16RevC.02\HF=-661.2959801\MP2=-663.3314
 69\RMSD=6.505e-09\RMSF=1.861e-03\Dipole=1.9160486,1.6153135,0.4836088\
 PG=C01 [X(C9H13N3O2)]\\@
 The archive entry for this job was punched.


 LORD, MAN... WERE YE BUT WHYLES WHERE I AM, 
 THE GENTILES YE WAD NE'ER ENVY 'EM.        
 IT'S TRUE, THEY NEEDNA STARVE OR SWEAT,     
 THRO' WINTER'S CAULD OR SIMMER'S HEAT...  
 THEY'VE NAE SAIR WARK TO CRAZE THEIR BANES, 
 AND FILL AULD AGE WITH GRIPS AN' GRANES...  
                                             
 BUT HUMAN BODIES ARE SIC FOOLS              
 FOR A' THEIR COLLEGES AND SCHOOLS,           
 THAT WHEN NAE REAL ILLS PERPLEX THEM,       
 THEY MAK ENOW THEMSELVES TO VEX THEM,       
 AN' AYE THE LESS THEY HAE TO STURT THEM,    
 IN LIKE PROPORTION LESS WILL HURT THEM....  
                                             
                (ROBERT BURNS 'THE TWA DOGS')
 Job cpu time:       0 days  1 hours  5 minutes 56.1 seconds.
 Elapsed time:       0 days  0 hours 20 minutes  6.1 seconds.
 File lengths (MBytes):  RWF=     31 Int=      0 D2E=      0 Chk=      7 Scr=      1
 Normal termination of Gaussian 16 at Sun Jul  2 21:05:13 2023.
