 Entering Gaussian System, Link 0=g16
 Initial command:
 /home/alexey/programs//g16/l1.exe "/home/alexey/tmp/Gau-1575072.inp" -scrdir="/home/alexey/tmp/"
 Entering Link 1 = /home/alexey/programs//g16/l1.exe PID=   1575074.
  
 Copyright (c) 1988-2021, Gaussian, Inc.  All Rights Reserved.
  
 This is part of the Gaussian(R) 16 program.  It is based on
 the Gaussian(R) 09 system (copyright 2009, Gaussian, Inc.),
 the Gaussian(R) 03 system (copyright 2003, Gaussian, Inc.),
 the Gaussian(R) 98 system (copyright 1998, Gaussian, Inc.),
 the Gaussian(R) 94 system (copyright 1995, Gaussian, Inc.),
 the Gaussian 92(TM) system (copyright 1992, Gaussian, Inc.),
 the Gaussian 90(TM) system (copyright 1990, Gaussian, Inc.),
 the Gaussian 88(TM) system (copyright 1988, Gaussian, Inc.),
 the Gaussian 86(TM) system (copyright 1986, Carnegie Mellon
 University), and the Gaussian 82(TM) system (copyright 1983,
 Carnegie Mellon University). Gaussian is a federally registered
 trademark of Gaussian, Inc.
  
 This software contains proprietary and confidential information,
 including trade secrets, belonging to Gaussian, Inc.
  
 This software is provided under written license and may be
 used, copied, transmitted, or stored only in accord with that
 written license.
  
 The following legend is applicable only to US Government
 contracts under FAR:
  
                    RESTRICTED RIGHTS LEGEND
  
 Use, reproduction and disclosure by the US Government is
 subject to restrictions as set forth in subparagraphs (a)
 and (c) of the Commercial Computer Software - Restricted
 Rights clause in FAR 52.227-19.
  
 Gaussian, Inc.
 340 Quinnipiac St., Bldg. 40, Wallingford CT 06492
  
  
 ---------------------------------------------------------------
 Warning -- This program may not be used in any manner that
 competes with the business of Gaussian, Inc. or will provide
 assistance to any competitor of Gaussian, Inc.  The licensee
 of this program is prohibited from giving any competitor of
 Gaussian, Inc. access to this program.  By using this program,
 the user acknowledges that Gaussian, Inc. is engaged in the
 business of creating and licensing software in the field of
 computational chemistry and represents and warrants to the
 licensee that it is not a competitor of Gaussian, Inc. and that
 it will not use this program in any manner prohibited above.
 ---------------------------------------------------------------
  

 Cite this work as:
 Gaussian 16, Revision C.02,
 M. J. Frisch, G. W. Trucks, H. B. Schlegel, G. E. Scuseria, 
 M. A. Robb, J. R. Cheeseman, G. Scalmani, V. Barone, 
 G. A. Petersson, H. Nakatsuji, X. Li, M. Caricato, A. V. Marenich, 
 J. Bloino, B. G. Janesko, R. Gomperts, B. Mennucci, H. P. Hratchian, 
 J. V. Ortiz, A. F. Izmaylov, J. L. Sonnenberg, D. Williams-Young, 
 F. Ding, F. Lipparini, F. Egidi, J. Goings, B. Peng, A. Petrone, 
 T. Henderson, D. Ranasinghe, V. G. Zakrzewski, J. Gao, N. Rega, 
 G. Zheng, W. Liang, M. Hada, M. Ehara, K. Toyota, R. Fukuda, 
 J. Hasegawa, M. Ishida, T. Nakajima, Y. Honda, O. Kitao, H. Nakai, 
 T. Vreven, K. Throssell, J. A. Montgomery, Jr., J. E. Peralta, 
 F. Ogliaro, M. J. Bearpark, J. J. Heyd, E. N. Brothers, K. N. Kudin, 
 V. N. Staroverov, T. A. Keith, R. Kobayashi, J. Normand, 
 K. Raghavachari, A. P. Rendell, J. C. Burant, S. S. Iyengar, 
 J. Tomasi, M. Cossi, J. M. Millam, M. Klene, C. Adamo, R. Cammi, 
 J. W. Ochterski, R. L. Martin, K. Morokuma, O. Farkas, 
 J. B. Foresman, and D. J. Fox, Gaussian, Inc., Wallingford CT, 2019.
 
 ******************************************
 Gaussian 16:  ES64L-G16RevC.02  7-Dec-2021
                 2-Jul-2023 
 ******************************************
 %mem=8GB
 %NPROCS=4
 Will use up to    4 processors via shared memory.
 %NoSave
 ---------------------------------------------------------
 #MP2/6-31G* SCF=Tight Opt=(ModRedun, MaxCycle=20 ) NoSymm
 ---------------------------------------------------------
 1/6=20,18=120,19=15,38=1/1,3;
 2/9=110,12=2,15=1,17=6,18=5,40=1/2;
 3/5=1,6=6,7=1,11=9,25=1,30=1,71=1/1,2,3;
 4//1;
 5/5=2,32=2,38=5/2;
 8/6=4,10=2/1;
 9/15=2,16=-3/6;
 10/5=1,31=1/2;
 6/7=2,8=2,9=2,10=2/1;
 7/12=2,30=1/1,2,3,16;
 1/6=20,18=20,19=15/3(2);
 2/9=110,15=1/2;
 99//99;
 2/9=110,15=1/2;
 3/5=1,6=6,7=1,11=9,25=1,30=1,71=1/1,2,3;
 4/5=5,16=3,69=1/1;
 5/5=2,32=2,38=5/2;
 8/6=4,10=2/1;
 9/15=2,16=-3/6;
 10/5=1,31=1/2;
 7/12=2,30=1/1,2,3,16;
 1/6=20,18=20,19=15/3(-8);
 2/9=110,15=1/2;
 6/7=2,8=2,9=2,10=2/1;
 99/9=10/99;
 --------
 MolName:
 --------
 Symbolic Z-matrix:
 Charge =  0 Multiplicity = 1
 8                    0    -3.60322  -1.4643   -0.14686 
 7                    0    -3.25258  -0.29775   0.02216 
 8                    0    -4.03753   0.63083   0.21786 
 6                    0    -1.75851   0.00905  -0.04034 
 6                    0    -1.37193   1.31218   0.2942 
 7                    0    -0.08309   1.77776   0.342 
 6                    0     1.19342   0.99952   0.33716 
 1                    0     1.84484   1.49649   1.1024 
 6                    0     1.98327   1.04798  -0.99444 
 6                    0     3.38959   0.45701  -0.77921 
 6                    0     3.31201  -0.95874  -0.18633 
 6                    0     2.43997  -0.98978   1.08747 
 6                    0     1.00931  -0.44827   0.81735 
 1                    0     0.44682  -0.48581   1.77976 
 7                    0     0.36666  -1.31385  -0.17525 
 6                    0    -0.86941  -1.09589  -0.48779 
 1                    0    -2.15381   2.03117   0.59024 
 1                    0     0.14315   2.75245   0.12955 
 1                    0     1.44648   0.47309  -1.77885 
 1                    0     2.07992   2.09762  -1.34457 
 1                    0     3.94214   0.43139  -1.74389 
 1                    0     3.95596   1.10886  -0.07707 
 1                    0     2.87589  -1.64629  -0.94586 
 1                    0     4.33451  -1.32634   0.04934 
 1                    0     2.37106  -2.03609   1.45793 
 1                    0     2.9226   -0.38112   1.88069 
 1                    0    -1.3685   -1.81917  -1.15065 
 
 The following ModRedundant input section has been read:
 D      17       5       6       7 F                                           
 D       1       2       4      16 F                                           
 D       7      13      15      16 F                                           
 D       7       9      10      11 F                                           
 D       9      10      11      12 F                                           
 D       6       7      13      15 F                                           
 

 GradGradGradGradGradGradGradGradGradGradGradGradGradGradGradGradGradGrad
 Berny optimization.
 Initialization pass.
                           ----------------------------
                           !    Initial Parameters    !
                           ! (Angstroms and Degrees)  !
 --------------------------                            --------------------------
 ! Name  Definition              Value          Derivative Info.                !
 --------------------------------------------------------------------------------
 ! R1    R(1,2)                  1.2298         estimate D2E/DX2                !
 ! R2    R(2,3)                  1.2315         estimate D2E/DX2                !
 ! R3    R(2,4)                  1.5265         estimate D2E/DX2                !
 ! R4    R(4,5)                  1.3998         estimate D2E/DX2                !
 ! R5    R(4,16)                 1.4871         estimate D2E/DX2                !
 ! R6    R(5,6)                  1.3712         estimate D2E/DX2                !
 ! R7    R(5,17)                 1.1027         estimate D2E/DX2                !
 ! R8    R(6,7)                  1.495          estimate D2E/DX2                !
 ! R9    R(6,18)                 1.0229         estimate D2E/DX2                !
 ! R10   R(7,8)                  1.1211         estimate D2E/DX2                !
 ! R11   R(7,9)                  1.549          estimate D2E/DX2                !
 ! R12   R(7,13)                 1.5364         estimate D2E/DX2                !
 ! R13   R(9,10)                 1.5406         estimate D2E/DX2                !
 ! R14   R(9,19)                 1.1108         estimate D2E/DX2                !
 ! R15   R(9,20)                 1.1107         estimate D2E/DX2                !
 ! R16   R(10,11)                1.5368         estimate D2E/DX2                !
 ! R17   R(10,21)                1.112          estimate D2E/DX2                !
 ! R18   R(10,22)                1.113          estimate D2E/DX2                !
 ! R19   R(11,12)                1.544          estimate D2E/DX2                !
 ! R20   R(11,23)                1.1135         estimate D2E/DX2                !
 ! R21   R(11,24)                1.1118         estimate D2E/DX2                !
 ! R22   R(12,13)                1.5534         estimate D2E/DX2                !
 ! R23   R(12,25)                1.1121         estimate D2E/DX2                !
 ! R24   R(12,26)                1.1102         estimate D2E/DX2                !
 ! R25   R(13,14)                1.1154         estimate D2E/DX2                !
 ! R26   R(13,15)                1.4654         estimate D2E/DX2                !
 ! R27   R(15,16)                1.2935         estimate D2E/DX2                !
 ! R28   R(16,27)                1.1007         estimate D2E/DX2                !
 ! A1    A(1,2,3)              123.7341         estimate D2E/DX2                !
 ! A2    A(1,2,4)              117.6508         estimate D2E/DX2                !
 ! A3    A(3,2,4)              118.6062         estimate D2E/DX2                !
 ! A4    A(2,4,5)              116.59           estimate D2E/DX2                !
 ! A5    A(2,4,16)             116.6243         estimate D2E/DX2                !
 ! A6    A(5,4,16)             126.7604         estimate D2E/DX2                !
 ! A7    A(4,5,6)              125.7323         estimate D2E/DX2                !
 ! A8    A(4,5,17)             118.3813         estimate D2E/DX2                !
 ! A9    A(6,5,17)             115.8317         estimate D2E/DX2                !
 ! A10   A(5,6,7)              128.7327         estimate D2E/DX2                !
 ! A11   A(5,6,18)             121.6137         estimate D2E/DX2                !
 ! A12   A(7,6,18)             107.848          estimate D2E/DX2                !
 ! A13   A(6,7,8)              105.2572         estimate D2E/DX2                !
 ! A14   A(6,7,9)              114.953          estimate D2E/DX2                !
 ! A15   A(6,7,13)             112.7799         estimate D2E/DX2                !
 ! A16   A(8,7,9)              106.0588         estimate D2E/DX2                !
 ! A17   A(8,7,13)             105.9028         estimate D2E/DX2                !
 ! A18   A(9,7,13)             111.0547         estimate D2E/DX2                !
 ! A19   A(7,9,10)             109.474          estimate D2E/DX2                !
 ! A20   A(7,9,19)             110.1481         estimate D2E/DX2                !
 ! A21   A(7,9,20)             110.1773         estimate D2E/DX2                !
 ! A22   A(10,9,19)            109.9533         estimate D2E/DX2                !
 ! A23   A(10,9,20)            109.0943         estimate D2E/DX2                !
 ! A24   A(19,9,20)            107.9705         estimate D2E/DX2                !
 ! A25   A(9,10,11)            111.1739         estimate D2E/DX2                !
 ! A26   A(9,10,21)            109.9521         estimate D2E/DX2                !
 ! A27   A(9,10,22)            109.1479         estimate D2E/DX2                !
 ! A28   A(11,10,21)           109.787          estimate D2E/DX2                !
 ! A29   A(11,10,22)           108.775          estimate D2E/DX2                !
 ! A30   A(21,10,22)           107.934          estimate D2E/DX2                !
 ! A31   A(10,11,12)           111.4257         estimate D2E/DX2                !
 ! A32   A(10,11,23)           108.9931         estimate D2E/DX2                !
 ! A33   A(10,11,24)           109.8721         estimate D2E/DX2                !
 ! A34   A(12,11,23)           109.2156         estimate D2E/DX2                !
 ! A35   A(12,11,24)           109.7484         estimate D2E/DX2                !
 ! A36   A(23,11,24)           107.4959         estimate D2E/DX2                !
 ! A37   A(11,12,13)           111.6972         estimate D2E/DX2                !
 ! A38   A(11,12,25)           109.1918         estimate D2E/DX2                !
 ! A39   A(11,12,26)           109.4442         estimate D2E/DX2                !
 ! A40   A(13,12,25)           109.1983         estimate D2E/DX2                !
 ! A41   A(13,12,26)           109.4812         estimate D2E/DX2                !
 ! A42   A(25,12,26)           107.7422         estimate D2E/DX2                !
 ! A43   A(7,13,12)            105.8117         estimate D2E/DX2                !
 ! A44   A(7,13,14)            111.2124         estimate D2E/DX2                !
 ! A45   A(7,13,15)            113.4188         estimate D2E/DX2                !
 ! A46   A(12,13,14)           107.6193         estimate D2E/DX2                !
 ! A47   A(12,13,15)           108.4075         estimate D2E/DX2                !
 ! A48   A(14,13,15)           110.0852         estimate D2E/DX2                !
 ! A49   A(13,15,16)           118.8956         estimate D2E/DX2                !
 ! A50   A(4,16,15)            128.5961         estimate D2E/DX2                !
 ! A51   A(4,16,27)            113.4735         estimate D2E/DX2                !
 ! A52   A(15,16,27)           117.9098         estimate D2E/DX2                !
 ! D1    D(1,2,4,5)           -173.4434         estimate D2E/DX2                !
 ! D2    D(1,2,4,16)             8.2587         Frozen                          !
 ! D3    D(3,2,4,5)              7.6001         estimate D2E/DX2                !
 ! D4    D(3,2,4,16)          -170.6978         estimate D2E/DX2                !
 ! D5    D(2,4,5,6)            177.8258         estimate D2E/DX2                !
 ! D6    D(2,4,5,17)             0.6366         estimate D2E/DX2                !
 ! D7    D(16,4,5,6)            -4.0736         estimate D2E/DX2                !
 ! D8    D(16,4,5,17)          178.7372         estimate D2E/DX2                !
 ! D9    D(2,4,16,15)         -151.1527         estimate D2E/DX2                !
 ! D10   D(2,4,16,27)           27.1417         estimate D2E/DX2                !
 ! D11   D(5,4,16,15)           30.7473         estimate D2E/DX2                !
 ! D12   D(5,4,16,27)         -150.9583         estimate D2E/DX2                !
 ! D13   D(4,5,6,7)            -13.7928         estimate D2E/DX2                !
 ! D14   D(4,5,6,18)           148.9691         estimate D2E/DX2                !
 ! D15   D(17,5,6,7)           163.4597         Frozen                          !
 ! D16   D(17,5,6,18)          -33.7784         estimate D2E/DX2                !
 ! D17   D(5,6,7,8)           -137.6063         estimate D2E/DX2                !
 ! D18   D(5,6,7,9)            106.0873         estimate D2E/DX2                !
 ! D19   D(5,6,7,13)           -22.6079         estimate D2E/DX2                !
 ! D20   D(18,6,7,8)            57.7681         estimate D2E/DX2                !
 ! D21   D(18,6,7,9)           -58.5382         estimate D2E/DX2                !
 ! D22   D(18,6,7,13)          172.7665         estimate D2E/DX2                !
 ! D23   D(6,7,9,10)           168.633          estimate D2E/DX2                !
 ! D24   D(6,7,9,19)           -70.35           estimate D2E/DX2                !
 ! D25   D(6,7,9,20)            48.6593         estimate D2E/DX2                !
 ! D26   D(8,7,9,10)            52.7857         estimate D2E/DX2                !
 ! D27   D(8,7,9,19)           173.8027         estimate D2E/DX2                !
 ! D28   D(8,7,9,20)           -67.188          estimate D2E/DX2                !
 ! D29   D(13,7,9,10)          -61.8183         estimate D2E/DX2                !
 ! D30   D(13,7,9,19)           59.1987         estimate D2E/DX2                !
 ! D31   D(13,7,9,20)          178.208          estimate D2E/DX2                !
 ! D32   D(6,7,13,12)         -166.2727         estimate D2E/DX2                !
 ! D33   D(6,7,13,14)          -49.6974         estimate D2E/DX2                !
 ! D34   D(6,7,13,15)           75.0216         Frozen                          !
 ! D35   D(8,7,13,12)          -51.6638         estimate D2E/DX2                !
 ! D36   D(8,7,13,14)           64.9115         estimate D2E/DX2                !
 ! D37   D(8,7,13,15)         -170.3695         estimate D2E/DX2                !
 ! D38   D(9,7,13,12)           63.0375         estimate D2E/DX2                !
 ! D39   D(9,7,13,14)          179.6128         estimate D2E/DX2                !
 ! D40   D(9,7,13,15)          -55.6682         estimate D2E/DX2                !
 ! D41   D(7,9,10,11)           54.8122         Frozen                          !
 ! D42   D(7,9,10,21)          176.6039         estimate D2E/DX2                !
 ! D43   D(7,9,10,22)          -65.1788         estimate D2E/DX2                !
 ! D44   D(19,9,10,11)         -66.3228         estimate D2E/DX2                !
 ! D45   D(19,9,10,21)          55.4689         estimate D2E/DX2                !
 ! D46   D(19,9,10,22)         173.6862         estimate D2E/DX2                !
 ! D47   D(20,9,10,11)         175.447          estimate D2E/DX2                !
 ! D48   D(20,9,10,21)         -62.7613         estimate D2E/DX2                !
 ! D49   D(20,9,10,22)          55.456          estimate D2E/DX2                !
 ! D50   D(9,10,11,12)         -52.8225         Frozen                          !
 ! D51   D(9,10,11,23)          67.7734         estimate D2E/DX2                !
 ! D52   D(9,10,11,24)        -174.679          estimate D2E/DX2                !
 ! D53   D(21,10,11,12)       -174.7103         estimate D2E/DX2                !
 ! D54   D(21,10,11,23)        -54.1144         estimate D2E/DX2                !
 ! D55   D(21,10,11,24)         63.4332         estimate D2E/DX2                !
 ! D56   D(22,10,11,12)         67.3895         estimate D2E/DX2                !
 ! D57   D(22,10,11,23)       -172.0146         estimate D2E/DX2                !
 ! D58   D(22,10,11,24)        -54.467          estimate D2E/DX2                !
 ! D59   D(10,11,12,13)         56.5489         estimate D2E/DX2                !
 ! D60   D(10,11,12,25)        177.4285         estimate D2E/DX2                !
 ! D61   D(10,11,12,26)        -64.8572         estimate D2E/DX2                !
 ! D62   D(23,11,12,13)        -63.9163         estimate D2E/DX2                !
 ! D63   D(23,11,12,25)         56.9633         estimate D2E/DX2                !
 ! D64   D(23,11,12,26)        174.6776         estimate D2E/DX2                !
 ! D65   D(24,11,12,13)        178.477          estimate D2E/DX2                !
 ! D66   D(24,11,12,25)        -60.6434         estimate D2E/DX2                !
 ! D67   D(24,11,12,26)         57.0709         estimate D2E/DX2                !
 ! D68   D(11,12,13,7)         -60.1329         estimate D2E/DX2                !
 ! D69   D(11,12,13,14)       -179.1129         estimate D2E/DX2                !
 ! D70   D(11,12,13,15)         61.8455         estimate D2E/DX2                !
 ! D71   D(25,12,13,7)         178.9912         estimate D2E/DX2                !
 ! D72   D(25,12,13,14)         60.0112         estimate D2E/DX2                !
 ! D73   D(25,12,13,15)        -59.0303         estimate D2E/DX2                !
 ! D74   D(26,12,13,7)          61.2517         estimate D2E/DX2                !
 ! D75   D(26,12,13,14)        -57.7283         estimate D2E/DX2                !
 ! D76   D(26,12,13,15)       -176.7698         estimate D2E/DX2                !
 ! D77   D(7,13,15,16)         -67.1595         Frozen                          !
 ! D78   D(12,13,15,16)        175.6407         estimate D2E/DX2                !
 ! D79   D(14,13,15,16)         58.1658         estimate D2E/DX2                !
 ! D80   D(13,15,16,4)           4.742          estimate D2E/DX2                !
 ! D81   D(13,15,16,27)       -173.4877         estimate D2E/DX2                !
 --------------------------------------------------------------------------------
 Trust Radius=3.00D-01 FncErr=1.00D-07 GrdErr=1.00D-07 EigMax=2.50D+02 EigMin=1.00D-04
 Number of steps in this run=     20 maximum allowed number of steps=    162.
 GradGradGradGradGradGradGradGradGradGradGradGradGradGradGradGradGradGrad

                          Input orientation:                          
 ---------------------------------------------------------------------
 Center     Atomic      Atomic             Coordinates (Angstroms)
 Number     Number       Type             X           Y           Z
 ---------------------------------------------------------------------
      1          8           0       -3.603220   -1.464300   -0.146860
      2          7           0       -3.252580   -0.297750    0.022160
      3          8           0       -4.037530    0.630830    0.217860
      4          6           0       -1.758510    0.009050   -0.040340
      5          6           0       -1.371930    1.312180    0.294200
      6          7           0       -0.083090    1.777760    0.342000
      7          6           0        1.193420    0.999520    0.337160
      8          1           0        1.844840    1.496490    1.102400
      9          6           0        1.983270    1.047980   -0.994440
     10          6           0        3.389590    0.457010   -0.779210
     11          6           0        3.312010   -0.958740   -0.186330
     12          6           0        2.439970   -0.989780    1.087470
     13          6           0        1.009310   -0.448270    0.817350
     14          1           0        0.446820   -0.485810    1.779760
     15          7           0        0.366660   -1.313850   -0.175250
     16          6           0       -0.869410   -1.095890   -0.487790
     17          1           0       -2.153810    2.031170    0.590240
     18          1           0        0.143150    2.752450    0.129550
     19          1           0        1.446480    0.473090   -1.778850
     20          1           0        2.079920    2.097620   -1.344570
     21          1           0        3.942140    0.431390   -1.743890
     22          1           0        3.955960    1.108860   -0.077070
     23          1           0        2.875890   -1.646290   -0.945860
     24          1           0        4.334510   -1.326340    0.049340
     25          1           0        2.371060   -2.036090    1.457930
     26          1           0        2.922600   -0.381120    1.880690
     27          1           0       -1.368500   -1.819170   -1.150650
 ---------------------------------------------------------------------
                    Distance matrix (angstroms):
                    1          2          3          4          5
     1  O    0.000000
     2  N    1.229778   0.000000
     3  O    2.170533   1.231546   0.000000
     4  C    2.363274   1.526525   2.376386   0.000000
     5  C    3.589155   2.490527   2.752361   1.399825   0.000000
     6  N    4.810536   3.802066   4.119278   2.466080   1.371189
     7  C    5.414096   4.642095   5.245284   3.136467   2.584690
     8  H    6.325210   5.510890   6.011161   4.062322   3.321862
     9  C    6.183754   5.500781   6.155787   3.998825   3.603854
    10  C    7.279470   6.732776   7.495764   5.220108   4.955360
    11  C    6.933798   6.601077   7.530328   5.164117   5.227550
    12  C    6.186185   5.832574   6.733543   4.460589   4.523149
    13  C    4.820524   4.338051   5.195617   2.933531   3.007187
    14  H    4.590439   4.100010   4.878095   2.901918   2.957619
    15  N    3.972831   3.764350   4.830446   2.506913   3.184197
    16  C    2.779510   2.564484   3.676478   1.487146   2.581247
    17  H    3.855180   2.637021   2.376556   2.154730   1.102689
    18  H    5.647360   4.565768   4.689046   3.342367   2.096892
    19  H    5.649455   5.091070   5.838330   3.675556   3.597922
    20  H    6.813212   6.003441   6.481964   4.560338   3.900994
    21  H    7.942078   7.444097   8.219694   5.964718   5.759248
    22  H    7.985438   7.345165   8.013200   5.819459   5.344679
    23  H    6.530726   6.349312   7.371221   5.003777   5.322994
    24  H    7.941353   7.656544   8.599417   6.238285   6.291677
    25  H    6.212432   6.058761   7.051260   4.845695   5.155109
    26  H    6.918856   6.449336   7.227203   5.074976   4.881312
    27  H    2.475379   2.690717   3.872860   2.174232   3.448617
                    6          7          8          9         10
     6  N    0.000000
     7  C    1.495045   0.000000
     8  H    2.091467   1.121124   0.000000
     9  C    2.566806   1.548990   2.148735   0.000000
    10  C    3.880850   2.522650   2.647117   1.540554   0.000000
    11  C    4.392524   2.932106   3.137127   2.538802   1.536839
    12  C    3.818486   2.464582   2.556549   2.948795   2.545481
    13  C    2.524778   1.536416   2.135756   2.543609   3.005706
    14  H    2.733442   2.201071   2.518490   3.522694   4.012123
    15  N    3.166682   2.509537   3.422779   2.977036   3.555112
    16  C    3.092687   3.053941   4.076309   3.604255   4.542632
    17  H    2.100886   3.511737   4.066619   4.537985   5.923061
    18  H    1.022908   2.054004   2.328008   2.748566   4.078512
    19  H    2.922286   2.195146   3.083446   1.110829   2.185227
    20  H    2.761420   2.195432   2.530668   1.110710   2.174044
    21  H    4.729284   3.494138   3.692489   2.186099   1.112014
    22  H    4.115455   2.795562   2.449129   2.176414   1.112962
    23  H    4.705132   3.387795   3.890437   2.838701   2.171527
    24  H    5.407058   3.919045   3.908422   3.500743   2.181675
    25  H    4.670504   3.443529   3.589210   3.959291   3.501106
    26  H    4.007805   2.697909   2.300592   3.345301   2.827651
    27  H    4.100998   4.089257   5.137644   4.413537   5.287569
                   11         12         13         14         15
    11  C    0.000000
    12  C    1.544015   0.000000
    13  C    2.563275   1.553379   0.000000
    14  H    3.506920   2.169308   1.115364   0.000000
    15  N    2.966701   2.449101   1.465429   2.124651   0.000000
    16  C    4.194516   3.666701   2.377476   2.691922   1.293467
    17  H    6.278361   5.520525   4.025485   3.809649   4.257687
    18  H    4.890234   4.494138   3.386430   3.647155   4.083829
    19  H    2.840151   3.367908   2.789315   3.818706   2.632622
    20  H    3.492979   3.946707   3.507372   4.370648   3.992580
    21  H    2.180715   3.506114   3.991897   5.047240   4.276745
    22  H    2.168313   2.838779   3.450708   4.278417   4.331540
    23  H    1.113468   2.180702   2.833422   3.830940   2.645863
    24  H    1.111835   2.186382   3.523890   4.337623   3.974221
    25  H    2.179372   1.112094   2.187665   2.491915   2.684498
    26  H    2.181251   1.110224   2.189950   2.480047   3.410235
    27  H    4.855659   4.494609   3.377332   3.696017   2.053663
                   16         17         18         19         20
    16  C    0.000000
    17  H    3.548286   0.000000
    18  H    4.026923   2.451225   0.000000
    19  H    3.080890   4.582825   3.245942   0.000000
    20  H    4.430703   4.655360   2.520498   1.796926   0.000000
    21  H    5.202056   6.720719   4.830054   2.496253   2.530542
    22  H    5.321072   6.214921   4.157114   3.098023   2.470573
    23  H    3.813140   6.417258   5.288978   2.688653   3.848298
    24  H    5.236640   7.325554   5.848971   3.862764   4.330088
    25  H    3.894926   6.145725   5.445943   4.198521   5.002632
    26  H    4.527685   5.766658   4.539944   4.037430   4.154102
    27  H    1.100731   4.297968   4.982340   3.684183   5.222112
                   21         22         23         24         25
    21  H    0.000000
    22  H    1.799290   0.000000
    23  H    2.467893   3.084185   0.000000
    24  H    2.541504   2.467687   1.794537   0.000000
    25  H    4.336865   3.841724   2.486967   2.518533   0.000000
    26  H    3.851910   2.668464   3.097131   2.498154   1.794951
    27  H    5.798263   6.170560   4.252843   5.848690   4.564653
                   26         27
    26  H    0.000000
    27  H    5.447068   0.000000
 Symmetry turned off by external request.
 Stoichiometry    C9H13N3O2
 Framework group  C1[X(C9H13N3O2)]
 Deg. of freedom    75
 Full point group                 C1      NOp   1
 Rotational constants (GHZ):           1.6804409           0.4006322           0.3555343
 Standard basis: 6-31G(d) (6D, 7F)
   236 basis functions,   444 primitive gaussians,   236 cartesian basis functions
    52 alpha electrons       52 beta electrons
       nuclear repulsion energy       917.7909120657 Hartrees.
 NAtoms=   27 NActive=   27 NUniq=   27 SFac= 1.00D+00 NAtFMM=   60 NAOKFM=F Big=F
 Integral buffers will be    131072 words long.
 Raffenetti 1 integral format.
 Two-electron integral symmetry is turned off.
 One-electron integrals computed using PRISM.
 NBasis=   236 RedAO= T EigKep=  1.28D-03  NBF=   236
 NBsUse=   236 1.00D-06 EigRej= -1.00D+00 NBFU=   236
 ExpMin= 1.61D-01 ExpMax= 5.48D+03 ExpMxC= 8.25D+02 IAcc=3 IRadAn=         5 AccDes= 0.00D+00
 Harris functional with IExCor=  205 and IRadAn=       5 diagonalized for initial guess.
 HarFok:  IExCor=  205 AccDes= 0.00D+00 IRadAn=         5 IDoV= 1 UseB2=F ITyADJ=14
 ICtDFT=  3500011 ScaDFX=  1.000000  1.000000  1.000000  1.000000
 FoFCou: FMM=F IPFlag=           0 FMFlag=      100000 FMFlg1=           0
         NFxFlg=           0 DoJE=T BraDBF=F KetDBF=T FulRan=T
         wScrn=  0.000000 ICntrl=       500 IOpCl=  0 I1Cent=   200000004 NGrid=           0
         NMat0=    1 NMatS0=      1 NMatT0=    0 NMatD0=    1 NMtDS0=    0 NMtDT0=    0
 Symmetry not used in FoFCou.
 Keep R1 ints in memory in canonical form, NReq=397720213.
 Requested convergence on RMS density matrix=1.00D-08 within 128 cycles.
 Requested convergence on MAX density matrix=1.00D-06.
 Requested convergence on             energy=1.00D-06.
 No special actions if energy rises.
 SCF Done:  E(RHF) =  -661.279053538     A.U. after   16 cycles
            NFock= 16  Conv=0.85D-08     -V/T= 2.0037
 ExpMin= 1.61D-01 ExpMax= 5.48D+03 ExpMxC= 8.25D+02 IAcc=3 IRadAn=         5 AccDes= 0.00D+00
 HarFok:  IExCor=  205 AccDes= 0.00D+00 IRadAn=         5 IDoV=-2 UseB2=F ITyADJ=14
 ICtDFT= 12500011 ScaDFX=  1.000000  1.000000  1.000000  1.000000
 Range of M.O.s used for correlation:    15   236
 NBasis=   236 NAE=    52 NBE=    52 NFC=    14 NFV=     0
 NROrb=    222 NOA=    38 NOB=    38 NVA=   184 NVB=   184
 Fully direct method using O(ONN) memory.
 JobTyp=1 Pass  1:  I=  15 to  52 NPSUse=  4 ParTrn=T ParDer=T DoDerP=T.
 Spin components of T(2) and E(2):
     alpha-alpha T2 =       0.9196035416D-01 E2=     -0.2717480795D+00
     alpha-beta  T2 =       0.4999715279D+00 E2=     -0.1494024728D+01
     beta-beta   T2 =       0.9196035416D-01 E2=     -0.2717480795D+00
 ANorm=    0.1297648734D+01
 E2 =    -0.2037520887D+01 EUMP2 =    -0.66331657442453D+03
          IDoAtm=111111111111111111111111111
          Differentiating once with respect to electric field.
                with respect to dipole field.
          Differentiating once with respect to nuclear coordinates.
 Keep R1 ints in memory in canonical form, NReq=397723379.
          There are     1 degrees of freedom in the 1st order CPHF.  IDoFFX=0 NUNeed=     1.
 LinEq1:  Iter=  0 NonCon=     1 RMS=4.60D-03 Max=1.09D-01 NDo=     1
 AX will form     1 AO Fock derivatives at one time.
 LinEq1:  Iter=  1 NonCon=     1 RMS=1.56D-03 Max=3.17D-02 NDo=     1
 LinEq1:  Iter=  2 NonCon=     1 RMS=6.39D-04 Max=1.76D-02 NDo=     1
 LinEq1:  Iter=  3 NonCon=     1 RMS=2.94D-04 Max=9.04D-03 NDo=     1
 LinEq1:  Iter=  4 NonCon=     1 RMS=9.05D-05 Max=2.08D-03 NDo=     1
 LinEq1:  Iter=  5 NonCon=     1 RMS=3.78D-05 Max=1.92D-03 NDo=     1
 LinEq1:  Iter=  6 NonCon=     1 RMS=1.55D-05 Max=5.92D-04 NDo=     1
 LinEq1:  Iter=  7 NonCon=     1 RMS=6.02D-06 Max=1.06D-04 NDo=     1
 LinEq1:  Iter=  8 NonCon=     1 RMS=2.41D-06 Max=6.22D-05 NDo=     1
 LinEq1:  Iter=  9 NonCon=     1 RMS=9.10D-07 Max=2.60D-05 NDo=     1
 LinEq1:  Iter= 10 NonCon=     1 RMS=4.46D-07 Max=1.50D-05 NDo=     1
 LinEq1:  Iter= 11 NonCon=     1 RMS=1.57D-07 Max=5.77D-06 NDo=     1
 LinEq1:  Iter= 12 NonCon=     1 RMS=5.51D-08 Max=8.11D-07 NDo=     1
 LinEq1:  Iter= 13 NonCon=     1 RMS=1.76D-08 Max=3.78D-07 NDo=     1
 LinEq1:  Iter= 14 NonCon=     1 RMS=5.73D-09 Max=1.57D-07 NDo=     1
 LinEq1:  Iter= 15 NonCon=     1 RMS=2.15D-09 Max=5.02D-08 NDo=     1
 LinEq1:  Iter= 16 NonCon=     1 RMS=8.13D-10 Max=1.26D-08 NDo=     1
 LinEq1:  Iter= 17 NonCon=     1 RMS=2.68D-10 Max=4.00D-09 NDo=     1
 LinEq1:  Iter= 18 NonCon=     1 RMS=9.14D-11 Max=1.03D-09 NDo=     1
 LinEq1:  Iter= 19 NonCon=     0 RMS=3.01D-11 Max=3.92D-10 NDo=     1
 Linear equations converged to 1.000D-10 1.000D-09 after    19 iterations.
 End of Minotr F.D. properties file   721 does not exist.
 End of Minotr F.D. properties file   722 does not exist.
 End of Minotr F.D. properties file   788 does not exist.

 **********************************************************************

            Population analysis using the SCF Density.

 **********************************************************************

 Alpha  occ. eigenvalues --  -20.59891 -20.59435 -15.85318 -15.63023 -15.57068
 Alpha  occ. eigenvalues --  -11.35779 -11.30530 -11.30151 -11.30038 -11.27733
 Alpha  occ. eigenvalues --  -11.24595 -11.23858 -11.23421 -11.22855  -1.58534
 Alpha  occ. eigenvalues --   -1.38040  -1.28457  -1.22778  -1.13255  -1.08362
 Alpha  occ. eigenvalues --   -1.01810  -1.00633  -0.93538  -0.88977  -0.84916
 Alpha  occ. eigenvalues --   -0.81542  -0.78064  -0.76909  -0.74265  -0.71035
 Alpha  occ. eigenvalues --   -0.70385  -0.69812  -0.67431  -0.64403  -0.63306
 Alpha  occ. eigenvalues --   -0.61561  -0.60548  -0.57446  -0.56407  -0.54899
 Alpha  occ. eigenvalues --   -0.53421  -0.50740  -0.49212  -0.48488  -0.47741
 Alpha  occ. eigenvalues --   -0.47613  -0.46098  -0.45713  -0.44033  -0.42105
 Alpha  occ. eigenvalues --   -0.40173  -0.33841
 Alpha virt. eigenvalues --    0.07178   0.11726   0.18458   0.21396   0.23333
 Alpha virt. eigenvalues --    0.24174   0.26205   0.27646   0.28573   0.28873
 Alpha virt. eigenvalues --    0.29957   0.31033   0.31867   0.32238   0.33355
 Alpha virt. eigenvalues --    0.33747   0.34207   0.35517   0.37552   0.38572
 Alpha virt. eigenvalues --    0.40689   0.41919   0.44656   0.45332   0.45719
 Alpha virt. eigenvalues --    0.45859   0.49630   0.53122   0.57623   0.58944
 Alpha virt. eigenvalues --    0.63285   0.69136   0.69426   0.72161   0.73986
 Alpha virt. eigenvalues --    0.74989   0.75741   0.75836   0.77640   0.79472
 Alpha virt. eigenvalues --    0.80474   0.83623   0.85201   0.85329   0.88061
 Alpha virt. eigenvalues --    0.88979   0.90163   0.90896   0.91823   0.93876
 Alpha virt. eigenvalues --    0.95388   0.97165   0.98670   1.00290   1.01929
 Alpha virt. eigenvalues --    1.02720   1.05138   1.06351   1.06930   1.08552
 Alpha virt. eigenvalues --    1.09479   1.10463   1.11134   1.11828   1.13258
 Alpha virt. eigenvalues --    1.13792   1.14276   1.15220   1.16345   1.17358
 Alpha virt. eigenvalues --    1.17865   1.19842   1.21001   1.22207   1.23042
 Alpha virt. eigenvalues --    1.23587   1.24345   1.25831   1.27223   1.27400
 Alpha virt. eigenvalues --    1.29403   1.31184   1.32909   1.35625   1.39917
 Alpha virt. eigenvalues --    1.42538   1.45695   1.47206   1.48683   1.52301
 Alpha virt. eigenvalues --    1.53838   1.55092   1.61038   1.61423   1.65932
 Alpha virt. eigenvalues --    1.68948   1.70223   1.72490   1.73611   1.77043
 Alpha virt. eigenvalues --    1.78462   1.79581   1.84266   1.88953   1.92732
 Alpha virt. eigenvalues --    1.93625   1.96275   1.97577   1.98965   2.00471
 Alpha virt. eigenvalues --    2.03110   2.04015   2.05906   2.08747   2.11931
 Alpha virt. eigenvalues --    2.12675   2.14391   2.17766   2.18856   2.19120
 Alpha virt. eigenvalues --    2.21001   2.22057   2.24239   2.24984   2.26622
 Alpha virt. eigenvalues --    2.29047   2.32411   2.33866   2.35740   2.35855
 Alpha virt. eigenvalues --    2.38356   2.39771   2.41328   2.43066   2.46172
 Alpha virt. eigenvalues --    2.48577   2.50333   2.51389   2.56689   2.57251
 Alpha virt. eigenvalues --    2.60918   2.62689   2.66294   2.68395   2.68790
 Alpha virt. eigenvalues --    2.69907   2.70445   2.74895   2.77583   2.80837
 Alpha virt. eigenvalues --    2.84362   2.86660   2.90143   2.91555   2.95387
 Alpha virt. eigenvalues --    2.97726   2.98441   3.02244   3.03160   3.05652
 Alpha virt. eigenvalues --    3.06856   3.12269   3.19576   3.22555   3.27187
 Alpha virt. eigenvalues --    3.29969   3.33545   3.36958   3.43415   3.59284
 Alpha virt. eigenvalues --    4.09659   4.23105   4.32119   4.36149   4.42894
 Alpha virt. eigenvalues --    4.52740   4.59784   4.59951   4.70843   4.77439
 Alpha virt. eigenvalues --    4.95881   4.99221   5.02557   5.10088
          Condensed to atoms (all electrons):
               1          2          3          4          5          6
     1  O    8.299168   0.313366  -0.089448  -0.079395   0.003442  -0.000014
     2  N    0.313366   5.685108   0.308514   0.264087  -0.045107   0.000912
     3  O   -0.089448   0.308514   8.330079  -0.086917   0.007918   0.000453
     4  C   -0.079395   0.264087  -0.086917   5.240868   0.568879  -0.049297
     5  C    0.003442  -0.045107   0.007918   0.568879   4.669157   0.306865
     6  N   -0.000014   0.000912   0.000453  -0.049297   0.306865   7.198803
     7  C    0.000003  -0.000093   0.000001   0.003555  -0.029817   0.197773
     8  H   -0.000000   0.000002  -0.000000  -0.000135   0.001986  -0.051245
     9  C   -0.000000  -0.000003   0.000000   0.000414   0.001988  -0.055444
    10  C   -0.000000   0.000000  -0.000000  -0.000016  -0.000071   0.003316
    11  C   -0.000000  -0.000000  -0.000000  -0.000017   0.000015  -0.000154
    12  C   -0.000000   0.000002  -0.000000  -0.000054  -0.000103   0.003565
    13  C   -0.000021  -0.000034  -0.000003  -0.011321   0.000507  -0.043142
    14  H   -0.000004  -0.000051   0.000000   0.003143   0.005299  -0.005614
    15  N    0.000119   0.001644  -0.000014  -0.061054  -0.003837   0.001895
    16  C    0.003841  -0.027852   0.001908   0.319561  -0.040696  -0.001669
    17  H    0.000113  -0.003762   0.011323  -0.028675   0.378612  -0.034409
    18  H    0.000000  -0.000035   0.000008   0.000813  -0.023767   0.327821
    19  H    0.000000   0.000001   0.000000  -0.000663   0.000499   0.000824
    20  H    0.000000  -0.000000   0.000000  -0.000024   0.000034  -0.001967
    21  H   -0.000000  -0.000000   0.000000   0.000000   0.000001  -0.000058
    22  H   -0.000000   0.000000  -0.000000  -0.000000  -0.000002  -0.000099
    23  H    0.000000  -0.000000   0.000000   0.000024  -0.000000  -0.000024
    24  H    0.000000   0.000000   0.000000   0.000000  -0.000000   0.000004
    25  H    0.000000  -0.000000   0.000000   0.000019  -0.000001  -0.000070
    26  H    0.000000  -0.000000   0.000000   0.000007  -0.000001  -0.000066
    27  H    0.005006  -0.000205  -0.000007  -0.065305   0.002190   0.000062
               7          8          9         10         11         12
     1  O    0.000003  -0.000000  -0.000000  -0.000000  -0.000000  -0.000000
     2  N   -0.000093   0.000002  -0.000003   0.000000  -0.000000   0.000002
     3  O    0.000001  -0.000000   0.000000  -0.000000  -0.000000  -0.000000
     4  C    0.003555  -0.000135   0.000414  -0.000016  -0.000017  -0.000054
     5  C   -0.029817   0.001986   0.001988  -0.000071   0.000015  -0.000103
     6  N    0.197773  -0.051245  -0.055444   0.003316  -0.000154   0.003565
     7  C    4.994677   0.417700   0.340136  -0.049269  -0.007633  -0.063737
     8  H    0.417700   0.549761  -0.061344   0.001603  -0.000359  -0.002775
     9  C    0.340136  -0.061344   5.182464   0.317610  -0.052973  -0.006395
    10  C   -0.049269   0.001603   0.317610   5.126769   0.332766  -0.059991
    11  C   -0.007633  -0.000359  -0.052973   0.332766   5.123550   0.330771
    12  C   -0.063737  -0.002775  -0.006395  -0.059991   0.330771   5.136274
    13  C    0.335148  -0.041324  -0.049031  -0.001968  -0.047914   0.367582
    14  H   -0.039995  -0.000922   0.003868  -0.000392   0.003946  -0.040694
    15  N   -0.057737   0.004089  -0.012973   0.001495  -0.007693  -0.073714
    16  C   -0.002715   0.000047  -0.001028  -0.000013  -0.000001   0.002680
    17  H    0.001476  -0.000012  -0.000064   0.000001   0.000000   0.000001
    18  H   -0.027996  -0.002337   0.000809  -0.000123   0.000011  -0.000131
    19  H   -0.034953   0.004146   0.385478  -0.032490  -0.002306   0.000652
    20  H   -0.041484  -0.001879   0.397325  -0.037453   0.004146  -0.000356
    21  H    0.004032  -0.000081  -0.035838   0.400186  -0.035875   0.004206
    22  H   -0.004155   0.003512  -0.045670   0.395991  -0.045612  -0.001250
    23  H    0.000412   0.000034  -0.002006  -0.040107   0.396745  -0.036720
    24  H   -0.000140  -0.000096   0.004391  -0.038466   0.400301  -0.037847
    25  H    0.004947  -0.000002  -0.000367   0.004097  -0.034007   0.395604
    26  H   -0.004453   0.001651   0.001020  -0.002390  -0.042276   0.394759
    27  H   -0.000402   0.000009  -0.000060   0.000005   0.000004  -0.000019
              13         14         15         16         17         18
     1  O   -0.000021  -0.000004   0.000119   0.003841   0.000113   0.000000
     2  N   -0.000034  -0.000051   0.001644  -0.027852  -0.003762  -0.000035
     3  O   -0.000003   0.000000  -0.000014   0.001908   0.011323   0.000008
     4  C   -0.011321   0.003143  -0.061054   0.319561  -0.028675   0.000813
     5  C    0.000507   0.005299  -0.003837  -0.040696   0.378612  -0.023767
     6  N   -0.043142  -0.005614   0.001895  -0.001669  -0.034409   0.327821
     7  C    0.335148  -0.039995  -0.057737  -0.002715   0.001476  -0.027996
     8  H   -0.041324  -0.000922   0.004089   0.000047  -0.000012  -0.002337
     9  C   -0.049031   0.003868  -0.012973  -0.001028  -0.000064   0.000809
    10  C   -0.001968  -0.000392   0.001495  -0.000013   0.000001  -0.000123
    11  C   -0.047914   0.003946  -0.007693  -0.000001   0.000000   0.000011
    12  C    0.367582  -0.040694  -0.073714   0.002680   0.000001  -0.000131
    13  C    5.028217   0.401227   0.238565  -0.070245  -0.000045   0.003595
    14  H    0.401227   0.519957  -0.035873  -0.004822   0.000079   0.000013
    15  N    0.238565  -0.035873   6.931101   0.586212  -0.000065  -0.000118
    16  C   -0.070245  -0.004822   0.586212   4.703196   0.001649  -0.000224
    17  H   -0.000045   0.000079  -0.000065   0.001649   0.388320  -0.001723
    18  H    0.003595   0.000013  -0.000118  -0.000224  -0.001723   0.323342
    19  H   -0.006395   0.000065   0.007013   0.002580   0.000010  -0.000123
    20  H    0.003845  -0.000049   0.000076  -0.000030  -0.000001   0.003019
    21  H   -0.000368   0.000009  -0.000027   0.000002  -0.000000  -0.000000
    22  H    0.000325  -0.000045   0.000002  -0.000001   0.000000   0.000002
    23  H   -0.005782   0.000007   0.006672   0.000049   0.000000   0.000000
    24  H    0.004133  -0.000058   0.000046   0.000005   0.000000  -0.000000
    25  H   -0.034592  -0.002649   0.000641  -0.000063  -0.000000   0.000002
    26  H   -0.044693  -0.000926   0.004165  -0.000064   0.000000  -0.000001
    27  H    0.004893  -0.000179  -0.039538   0.401811  -0.000057   0.000003
              19         20         21         22         23         24
     1  O    0.000000   0.000000  -0.000000  -0.000000   0.000000   0.000000
     2  N    0.000001  -0.000000  -0.000000   0.000000  -0.000000   0.000000
     3  O    0.000000   0.000000   0.000000  -0.000000   0.000000   0.000000
     4  C   -0.000663  -0.000024   0.000000  -0.000000   0.000024   0.000000
     5  C    0.000499   0.000034   0.000001  -0.000002  -0.000000  -0.000000
     6  N    0.000824  -0.001967  -0.000058  -0.000099  -0.000024   0.000004
     7  C   -0.034953  -0.041484   0.004032  -0.004155   0.000412  -0.000140
     8  H    0.004146  -0.001879  -0.000081   0.003512   0.000034  -0.000096
     9  C    0.385478   0.397325  -0.035838  -0.045670  -0.002006   0.004391
    10  C   -0.032490  -0.037453   0.400186   0.395991  -0.040107  -0.038466
    11  C   -0.002306   0.004146  -0.035875  -0.045612   0.396745   0.400301
    12  C    0.000652  -0.000356   0.004206  -0.001250  -0.036720  -0.037847
    13  C   -0.006395   0.003845  -0.000368   0.000325  -0.005782   0.004133
    14  H    0.000065  -0.000049   0.000009  -0.000045   0.000007  -0.000058
    15  N    0.007013   0.000076  -0.000027   0.000002   0.006672   0.000046
    16  C    0.002580  -0.000030   0.000002  -0.000001   0.000049   0.000005
    17  H    0.000010  -0.000001  -0.000000   0.000000   0.000000   0.000000
    18  H   -0.000123   0.003019  -0.000000   0.000002   0.000000  -0.000000
    19  H    0.507391  -0.024083  -0.002596   0.003759   0.001643  -0.000069
    20  H   -0.024083   0.550488  -0.002599  -0.002975  -0.000050  -0.000090
    21  H   -0.002596  -0.002599   0.526274  -0.024708  -0.002818  -0.002053
    22  H    0.003759  -0.002975  -0.024708   0.568601   0.004064  -0.003595
    23  H    0.001643  -0.000050  -0.002818   0.004064   0.510063  -0.025003
    24  H   -0.000069  -0.000090  -0.002053  -0.003595  -0.025003   0.540966
    25  H   -0.000027   0.000011  -0.000086  -0.000082  -0.002106  -0.002372
    26  H    0.000023  -0.000035  -0.000074   0.002468   0.003823  -0.002776
    27  H    0.000076  -0.000000  -0.000000   0.000000  -0.000021  -0.000000
              25         26         27
     1  O    0.000000   0.000000   0.005006
     2  N   -0.000000  -0.000000  -0.000205
     3  O    0.000000   0.000000  -0.000007
     4  C    0.000019   0.000007  -0.065305
     5  C   -0.000001  -0.000001   0.002190
     6  N   -0.000070  -0.000066   0.000062
     7  C    0.004947  -0.004453  -0.000402
     8  H   -0.000002   0.001651   0.000009
     9  C   -0.000367   0.001020  -0.000060
    10  C    0.004097  -0.002390   0.000005
    11  C   -0.034007  -0.042276   0.000004
    12  C    0.395604   0.394759  -0.000019
    13  C   -0.034592  -0.044693   0.004893
    14  H   -0.002649  -0.000926  -0.000179
    15  N    0.000641   0.004165  -0.039538
    16  C   -0.000063  -0.000064   0.401811
    17  H   -0.000000   0.000000  -0.000057
    18  H    0.000002  -0.000001   0.000003
    19  H   -0.000027   0.000023   0.000076
    20  H    0.000011  -0.000035  -0.000000
    21  H   -0.000086  -0.000074  -0.000000
    22  H   -0.000082   0.002468   0.000000
    23  H   -0.002106   0.003823  -0.000021
    24  H   -0.002372  -0.002776  -0.000000
    25  H    0.510773  -0.023095  -0.000009
    26  H   -0.023095   0.560255   0.000001
    27  H   -0.000009   0.000001   0.453514
 Mulliken charges:
               1
     1  O   -0.456175
     2  N    0.503507
     3  O   -0.483817
     4  C   -0.018497
     5  C    0.196012
     6  N   -0.799020
     7  C    0.064720
     8  H    0.177974
     9  C   -0.312306
    10  C   -0.321089
    11  C   -0.315434
    12  C   -0.312310
    13  C   -0.031161
    14  H    0.194658
    15  N   -0.491092
    16  C    0.125883
    17  H    0.287232
    18  H    0.397137
    19  H    0.189545
    20  H    0.154130
    21  H    0.172471
    22  H    0.149470
    23  H    0.191101
    24  H    0.162720
    25  H    0.183433
    26  H    0.152677
    27  H    0.238230
 Sum of Mulliken charges =  -0.00000
 Mulliken charges with hydrogens summed into heavy atoms:
               1
     1  O   -0.456175
     2  N    0.503507
     3  O   -0.483817
     4  C   -0.018497
     5  C    0.483243
     6  N   -0.401883
     7  C    0.242695
     9  C    0.031370
    10  C    0.000852
    11  C    0.038386
    12  C    0.023800
    13  C    0.163497
    15  N   -0.491092
    16  C    0.364113
 Electronic spatial extent (au):  <R**2>=           3122.4596
 Charge=             -0.0000 electrons
 Dipole moment (field-independent basis, Debye):
    X=              5.3026    Y=              4.4505    Z=              0.4070  Tot=              6.9347
 Quadrupole moment (field-independent basis, Debye-Ang):
   XX=           -105.3158   YY=            -80.5043   ZZ=            -82.1220
   XY=             -2.0491   XZ=              1.2824   YZ=             -0.0934
 Traceless Quadrupole moment (field-independent basis, Debye-Ang):
   XX=            -16.0017   YY=              8.8097   ZZ=              7.1920
   XY=             -2.0491   XZ=              1.2824   YZ=             -0.0934
 Octapole moment (field-independent basis, Debye-Ang**2):
  XXX=            100.3353  YYY=             36.7821  ZZZ=             -5.7436  XYY=             -1.1618
  XXY=             12.2836  XXZ=             -2.8295  XZZ=             -8.6818  YZZ=             -2.7933
  YYZ=             -0.0478  XYZ=             -1.9151
 Hexadecapole moment (field-independent basis, Debye-Ang**3):
 XXXX=          -3553.2039 YYYY=           -620.7781 ZZZZ=           -298.8901 XXXY=            -47.1992
 XXXZ=             46.8976 YYYX=            -25.6041 YYYZ=              8.9261 ZZZX=             31.8692
 ZZZY=              9.6834 XXYY=           -656.6549 XXZZ=           -542.9386 YYZZ=           -163.9181
 XXYZ=              2.5455 YYXZ=             13.3563 ZZXY=              1.1625
 N-N= 9.177909120657D+02 E-N=-3.381592056328D+03  KE= 6.588558155311D+02
 Calling FoFJK, ICntrl=  10002127 FMM=F ISym2X=0 I1Cent= 0 IOpClX= 0 NMat=1 NMatS=1 NMatT=0.
 -------------------------------------------------------------------
 Center     Atomic                   Forces (Hartrees/Bohr)
 Number     Number              X              Y              Z
 -------------------------------------------------------------------
      1        8           0.002464738   -0.019422121   -0.003755365
      2        7           0.038717381    0.014249043   -0.001890489
      3        8          -0.005359407    0.015437293    0.004083075
      4        6          -0.002650115    0.010252313    0.010307884
      5        6           0.001998214   -0.017708924   -0.006874496
      6        7           0.015577853   -0.011611895   -0.004688194
      7        6          -0.004219075    0.005757962    0.002672389
      8        1          -0.009483859   -0.001937756   -0.007735962
      9        6          -0.004007336   -0.000200474   -0.002110345
     10        6           0.002884587   -0.000774344    0.001022492
     11        6          -0.001183355   -0.004637832   -0.002510597
     12        6           0.000974206   -0.008633101   -0.002752343
     13        6           0.009380093   -0.002318117    0.005268853
     14        1           0.000685256    0.004644736   -0.009854900
     15        7          -0.000885177    0.003157029   -0.000985763
     16        6          -0.020809415    0.005781588    0.005624457
     17        1           0.006453639   -0.005033321   -0.008841917
     18        1          -0.017147171   -0.001501757    0.007851461
     19        1           0.003044390    0.005958088    0.007712699
     20        1          -0.003330183   -0.007269909    0.002577302
     21        1          -0.004502799    0.002410354    0.009550238
     22        1          -0.003871780   -0.003999983   -0.007477090
     23        1           0.003914540    0.006147586    0.009326990
     24        1          -0.009343111    0.002642652   -0.002263246
     25        1          -0.000696901    0.010569518   -0.002396678
     26        1          -0.004767847   -0.004834521   -0.004452080
     27        1           0.006162634    0.002875891    0.002591626
 -------------------------------------------------------------------
 Cartesian Forces:  Max     0.038717381 RMS     0.008485615

 GradGradGradGradGradGradGradGradGradGradGradGradGradGradGradGradGradGrad
 Berny optimization.
 FormGI is forming the generalized inverse of G from B-inverse, IUseBI=4.
 Internal  Forces:  Max     0.037187983 RMS     0.006827681
 Search for a local minimum.
 Step number   1 out of a maximum of   20
 All quantities printed in internal units (Hartrees-Bohrs-Radians)
 Mixed Optimization -- RFO/linear search
 Second derivative matrix not updated -- first step.
 ITU=  0
     Eigenvalues ---    0.00231   0.00768   0.01063   0.01153   0.01197
     Eigenvalues ---    0.01527   0.01545   0.01726   0.01974   0.02015
     Eigenvalues ---    0.02684   0.03653   0.04504   0.04693   0.04838
     Eigenvalues ---    0.05082   0.05137   0.05303   0.05891   0.06266
     Eigenvalues ---    0.07218   0.07705   0.07728   0.07881   0.07993
     Eigenvalues ---    0.08051   0.08071   0.10462   0.11741   0.12274
     Eigenvalues ---    0.13587   0.15192   0.15851   0.15985   0.16003
     Eigenvalues ---    0.20026   0.21809   0.22981   0.24987   0.25000
     Eigenvalues ---    0.25000   0.25355   0.26174   0.26650   0.27981
     Eigenvalues ---    0.28087   0.28440   0.29747   0.31426   0.31450
     Eigenvalues ---    0.32039   0.32236   0.32288   0.32379   0.32388
     Eigenvalues ---    0.32407   0.32512   0.32525   0.32576   0.33239
     Eigenvalues ---    0.33387   0.33601   0.35138   0.43877   0.44181
     Eigenvalues ---    0.48927   0.66418   0.90445   0.911791000.00000
     Eigenvalues --- 1000.000001000.000001000.000001000.000001000.00000
     Eigenvalues --- 1000.000001000.000001000.000001000.000001000.00000
     Eigenvalues --- 1000.000001000.000001000.000001000.000001000.00000
     Eigenvalues --- 1000.000001000.000001000.000001000.000001000.00000
     Eigenvalues --- 1000.000001000.000001000.000001000.000001000.00000
     Eigenvalues --- 1000.000001000.000001000.000001000.000001000.00000
     Eigenvalues --- 1000.000001000.000001000.000001000.000001000.00000
     Eigenvalues --- 1000.000001000.000001000.000001000.000001000.00000
     Eigenvalues --- 1000.000001000.000001000.000001000.000001000.00000
     Eigenvalues --- 1000.000001000.000001000.000001000.000001000.00000
     Eigenvalues --- 1000.000001000.000001000.000001000.000001000.00000
     Eigenvalues --- 1000.000001000.000001000.000001000.000001000.00000
     Eigenvalues --- 1000.000001000.000001000.000001000.000001000.00000
     Eigenvalues --- 1000.000001000.000001000.000001000.000001000.00000
     Eigenvalues --- 1000.000001000.000001000.000001000.000001000.00000
     Eigenvalues --- 1000.000001000.000001000.000001000.000001000.00000
     Eigenvalues --- 1000.000001000.000001000.000001000.000001000.00000
     Eigenvalues --- 1000.000001000.000001000.000001000.000001000.00000
     Eigenvalues --- 1000.00000
 RFO step:  Lambda=-2.34441206D-02 EMin= 2.31197243D-03
 Linear search not attempted -- first point.
 Iteration  1 RMS(Cart)=  0.05396443 RMS(Int)=  0.00116769
 Iteration  2 RMS(Cart)=  0.00121860 RMS(Int)=  0.00036202
 Iteration  3 RMS(Cart)=  0.00000145 RMS(Int)=  0.00036202
 Iteration  4 RMS(Cart)=  0.00000000 RMS(Int)=  0.00036202
 Iteration  1 RMS(Cart)=  0.00004483 RMS(Int)=  0.00003398
 Iteration  2 RMS(Cart)=  0.00002760 RMS(Int)=  0.00003750
 Iteration  3 RMS(Cart)=  0.00001732 RMS(Int)=  0.00004279
 Iteration  4 RMS(Cart)=  0.00001118 RMS(Int)=  0.00004713
 Iteration  5 RMS(Cart)=  0.00000754 RMS(Int)=  0.00005034
 Iteration  6 RMS(Cart)=  0.00000538 RMS(Int)=  0.00005268
 Iteration  7 RMS(Cart)=  0.00000408 RMS(Int)=  0.00005440
 Iteration  8 RMS(Cart)=  0.00000325 RMS(Int)=  0.00005571
 Iteration  9 RMS(Cart)=  0.00000268 RMS(Int)=  0.00005673
 Iteration 10 RMS(Cart)=  0.00000226 RMS(Int)=  0.00005754
 Iteration 11 RMS(Cart)=  0.00000192 RMS(Int)=  0.00005820
 Iteration 12 RMS(Cart)=  0.00000165 RMS(Int)=  0.00005874
 Iteration 13 RMS(Cart)=  0.00000141 RMS(Int)=  0.00005920
 Iteration 14 RMS(Cart)=  0.00000121 RMS(Int)=  0.00005958
 Iteration 15 RMS(Cart)=  0.00000104 RMS(Int)=  0.00005991
 Iteration 16 RMS(Cart)=  0.00000089 RMS(Int)=  0.00006019
 Variable       Old X    -DE/DX   Delta X   Delta X   Delta X     New X
                                 (Linear)    (Quad)   (Total)
    R1        2.32394   0.01824   0.00000   0.01950   0.01950   2.34344
    R2        2.32728   0.01570   0.00000   0.01692   0.01692   2.34421
    R3        2.88471  -0.03719   0.00000  -0.11588  -0.11588   2.76883
    R4        2.64529  -0.03544   0.00000  -0.07666  -0.07641   2.56887
    R5        2.81030  -0.02107   0.00000  -0.05968  -0.05942   2.75088
    R6        2.59117  -0.02276   0.00000  -0.04500  -0.04492   2.54625
    R7        2.08378  -0.01023   0.00000  -0.02864  -0.02864   2.05514
    R8        2.82523  -0.01938   0.00000  -0.05516  -0.05523   2.77000
    R9        1.93302  -0.00685   0.00000  -0.01483  -0.01483   1.91819
   R10        2.11862  -0.01165   0.00000  -0.03447  -0.03447   2.08415
   R11        2.92717  -0.01307   0.00000  -0.04455  -0.04462   2.88255
   R12        2.90341  -0.00521   0.00000  -0.01166  -0.01158   2.89183
   R13        2.91122  -0.00473   0.00000  -0.01430  -0.01432   2.89690
   R14        2.09916  -0.01000   0.00000  -0.02869  -0.02869   2.07047
   R15        2.09894  -0.00797   0.00000  -0.02286  -0.02286   2.07607
   R16        2.90420  -0.00187   0.00000  -0.00729  -0.00732   2.89688
   R17        2.10140  -0.01058   0.00000  -0.03046  -0.03046   2.07095
   R18        2.10319  -0.00903   0.00000  -0.02607  -0.02607   2.07712
   R19        2.91777  -0.00903   0.00000  -0.02867  -0.02861   2.88916
   R20        2.10415  -0.01169   0.00000  -0.03381  -0.03381   2.07034
   R21        2.10106  -0.00995   0.00000  -0.02862  -0.02862   2.07244
   R22        2.93546  -0.01045   0.00000  -0.03643  -0.03641   2.89905
   R23        2.10155  -0.01070   0.00000  -0.03081  -0.03081   2.07074
   R24        2.09802  -0.00790   0.00000  -0.02263  -0.02263   2.07538
   R25        2.10773  -0.00901   0.00000  -0.02619  -0.02619   2.08154
   R26        2.76926  -0.00524   0.00000  -0.01038  -0.01083   2.75843
   R27        2.44430  -0.00680   0.00000  -0.00865  -0.00877   2.43553
   R28        2.08008  -0.00624   0.00000  -0.01737  -0.01737   2.06271
    A1        2.15957   0.01084   0.00000   0.03986   0.03959   2.19916
    A2        2.05339  -0.00786   0.00000  -0.02852  -0.02879   2.02461
    A3        2.07007  -0.00297   0.00000  -0.01065  -0.01091   2.05916
    A4        2.03488  -0.00656   0.00000  -0.02223  -0.02247   2.01241
    A5        2.03548  -0.00349   0.00000  -0.01079  -0.01105   2.02442
    A6        2.21239   0.01002   0.00000   0.03245   0.03275   2.24514
    A7        2.19444   0.00584   0.00000   0.01579   0.01604   2.21048
    A8        2.06614  -0.00326   0.00000  -0.01095  -0.01113   2.05501
    A9        2.02164  -0.00253   0.00000  -0.00568  -0.00592   2.01573
   A10        2.24681  -0.00492   0.00000  -0.01701  -0.01724   2.22957
   A11        2.12256  -0.01251   0.00000  -0.06903  -0.06995   2.05261
   A12        1.88230   0.01757   0.00000   0.09849   0.09851   1.98082
   A13        1.83709  -0.00107   0.00000  -0.01617  -0.01603   1.82106
   A14        2.00631  -0.00138   0.00000  -0.01223  -0.01229   1.99401
   A15        1.96838   0.00078   0.00000   0.00308   0.00275   1.97113
   A16        1.85107   0.00258   0.00000   0.02335   0.02328   1.87436
   A17        1.84835   0.00060   0.00000   0.01507   0.01474   1.86310
   A18        1.93827  -0.00116   0.00000  -0.00922  -0.00885   1.92942
   A19        1.91068   0.00011   0.00000  -0.00441  -0.00457   1.90611
   A20        1.92245  -0.00072   0.00000  -0.01245  -0.01242   1.91003
   A21        1.92296  -0.00163   0.00000  -0.00768  -0.00765   1.91530
   A22        1.91905  -0.00037   0.00000   0.00617   0.00618   1.92523
   A23        1.90405   0.00304   0.00000   0.02395   0.02393   1.92799
   A24        1.88444  -0.00040   0.00000  -0.00517  -0.00543   1.87901
   A25        1.94035  -0.00093   0.00000   0.00543   0.00539   1.94574
   A26        1.91903  -0.00067   0.00000  -0.00655  -0.00658   1.91244
   A27        1.90499   0.00033   0.00000  -0.00294  -0.00302   1.90197
   A28        1.91615   0.00085   0.00000   0.00725   0.00728   1.92342
   A29        1.89848   0.00166   0.00000   0.01093   0.01093   1.90941
   A30        1.88380  -0.00123   0.00000  -0.01461  -0.01468   1.86912
   A31        1.94475   0.00047   0.00000   0.00462   0.00463   1.94938
   A32        1.90229   0.00071   0.00000   0.00586   0.00587   1.90816
   A33        1.91763   0.00038   0.00000   0.00545   0.00543   1.92306
   A34        1.90617  -0.00102   0.00000  -0.01353  -0.01354   1.89263
   A35        1.91547  -0.00046   0.00000  -0.00005  -0.00010   1.91537
   A36        1.87616  -0.00010   0.00000  -0.00270  -0.00275   1.87341
   A37        1.94948  -0.00281   0.00000  -0.01803  -0.01797   1.93151
   A38        1.90576   0.00256   0.00000   0.01709   0.01697   1.92273
   A39        1.91016   0.00130   0.00000   0.01331   0.01322   1.92338
   A40        1.90587   0.00008   0.00000  -0.00282  -0.00271   1.90316
   A41        1.91081  -0.00020   0.00000  -0.00503  -0.00496   1.90584
   A42        1.88046  -0.00086   0.00000  -0.00406  -0.00423   1.87623
   A43        1.84676   0.00430   0.00000   0.02427   0.02424   1.87100
   A44        1.94102  -0.00427   0.00000  -0.03280  -0.03332   1.90771
   A45        1.97953   0.00094   0.00000   0.01083   0.01131   1.99084
   A46        1.87831   0.00235   0.00000   0.03175   0.03214   1.91045
   A47        1.89207  -0.00351   0.00000  -0.02753  -0.02767   1.86440
   A48        1.92135   0.00043   0.00000  -0.00395  -0.00396   1.91738
   A49        2.07512  -0.00580   0.00000  -0.01610  -0.01674   2.05838
   A50        2.24443  -0.00451   0.00000  -0.02071  -0.02052   2.22390
   A51        1.98049   0.00598   0.00000   0.03075   0.03050   2.01098
   A52        2.05791  -0.00141   0.00000  -0.00937  -0.00962   2.04830
    D1       -3.02716  -0.00091   0.00000  -0.01876  -0.01851  -3.04567
    D2        0.14414   0.00011   0.00000   0.00000  -0.00000   0.14414
    D3        0.13265  -0.00182   0.00000  -0.06008  -0.05996   0.07269
    D4       -2.97924  -0.00080   0.00000  -0.04133  -0.04144  -3.02068
    D5        3.10365  -0.00026   0.00000  -0.00730  -0.00742   3.09623
    D6        0.01111  -0.00149   0.00000   0.01436   0.01424   0.02536
    D7       -0.07110  -0.00170   0.00000  -0.02921  -0.02977  -0.10086
    D8        3.11955  -0.00293   0.00000  -0.00756  -0.00810   3.11145
    D9       -2.63811  -0.00215   0.00000  -0.01690  -0.01728  -2.65539
   D10        0.47371   0.00054   0.00000   0.01077   0.01061   0.48432
   D11        0.53664  -0.00065   0.00000   0.00522   0.00538   0.54202
   D12       -2.63472   0.00203   0.00000   0.03288   0.03327  -2.60145
   D13       -0.24073   0.00091   0.00000   0.02132   0.02139  -0.21934
   D14        2.60000   0.00426   0.00000   0.09442   0.09238   2.69238
   D15        2.85291   0.00208   0.00000   0.00000   0.00000   2.85291
   D16       -0.58954   0.00543   0.00000   0.07310   0.07099  -0.51855
   D17       -2.40168  -0.00104   0.00000  -0.01269  -0.01198  -2.41366
   D18        1.85157  -0.00277   0.00000  -0.02419  -0.02356   1.82801
   D19       -0.39458  -0.00057   0.00000  -0.00274  -0.00253  -0.39712
   D20        1.00824  -0.00034   0.00000  -0.05707  -0.05833   0.94992
   D21       -1.02169  -0.00206   0.00000  -0.06857  -0.06992  -1.09160
   D22        3.01535   0.00013   0.00000  -0.04711  -0.04888   2.96646
   D23        2.94320   0.00254   0.00000   0.02348   0.02327   2.96647
   D24       -1.22784   0.00170   0.00000   0.02042   0.02025  -1.20758
   D25        0.84927  -0.00027   0.00000   0.00149   0.00141   0.85068
   D26        0.92128   0.00291   0.00000   0.03472   0.03462   0.95590
   D27        3.03343   0.00207   0.00000   0.03166   0.03160   3.06503
   D28       -1.17265   0.00011   0.00000   0.01273   0.01276  -1.15989
   D29       -1.07893   0.00135   0.00000   0.00853   0.00856  -1.07037
   D30        1.03321   0.00051   0.00000   0.00547   0.00554   1.03875
   D31        3.11032  -0.00146   0.00000  -0.01346  -0.01330   3.09701
   D32       -2.90201  -0.00140   0.00000  -0.01192  -0.01168  -2.91368
   D33       -0.86738   0.00169   0.00000   0.02302   0.02283  -0.84455
   D34        1.30937  -0.00041   0.00000   0.00000  -0.00001   1.30936
   D35       -0.90170  -0.00193   0.00000  -0.02078  -0.02073  -0.92243
   D36        1.13292   0.00116   0.00000   0.01416   0.01379   1.14671
   D37       -2.97351  -0.00095   0.00000  -0.00887  -0.00906  -2.98257
   D38        1.10021   0.00087   0.00000   0.01057   0.01063   1.11085
   D39        3.13483   0.00396   0.00000   0.04551   0.04515  -3.10321
   D40       -0.97159   0.00185   0.00000   0.02248   0.02230  -0.94929
   D41        0.95665   0.00057   0.00000   0.00000  -0.00000   0.95665
   D42        3.08232   0.00057   0.00000   0.00832   0.00829   3.09061
   D43       -1.13758  -0.00113   0.00000  -0.01505  -0.01503  -1.15261
   D44       -1.15755   0.00162   0.00000   0.01431   0.01437  -1.14318
   D45        0.96811   0.00162   0.00000   0.02264   0.02266   0.99078
   D46        3.03140  -0.00007   0.00000  -0.00074  -0.00065   3.03074
   D47        3.06213   0.00051   0.00000   0.00265   0.00259   3.06472
   D48       -1.09539   0.00051   0.00000   0.01098   0.01089  -1.08450
   D49        0.96789  -0.00119   0.00000  -0.01240  -0.01243   0.95546
   D50       -0.92193  -0.00084   0.00000   0.00000  -0.00000  -0.92193
   D51        1.18287  -0.00135   0.00000  -0.01008  -0.01009   1.17278
   D52       -3.04872  -0.00083   0.00000  -0.00676  -0.00678  -3.05550
   D53       -3.04927   0.00005   0.00000  -0.00028  -0.00028  -3.04955
   D54       -0.94447  -0.00046   0.00000  -0.01037  -0.01037  -0.95485
   D55        1.10712   0.00005   0.00000  -0.00705  -0.00706   1.10006
   D56        1.17617   0.00007   0.00000   0.00679   0.00681   1.18298
   D57       -3.00222  -0.00044   0.00000  -0.00330  -0.00328  -3.00550
   D58       -0.95063   0.00008   0.00000   0.00002   0.00003  -0.95060
   D59        0.98696  -0.00069   0.00000  -0.01208  -0.01207   0.97489
   D60        3.09671  -0.00068   0.00000  -0.01573  -0.01583   3.08088
   D61       -1.13197   0.00053   0.00000  -0.00299  -0.00292  -1.13489
   D62       -1.11555  -0.00120   0.00000  -0.01340  -0.01336  -1.12891
   D63        0.99420  -0.00119   0.00000  -0.01704  -0.01712   0.97708
   D64        3.04870   0.00002   0.00000  -0.00430  -0.00421   3.04449
   D65        3.11501  -0.00021   0.00000  -0.00215  -0.00214   3.11287
   D66       -1.05843  -0.00020   0.00000  -0.00580  -0.00590  -1.06433
   D67        0.99608   0.00101   0.00000   0.00695   0.00701   1.00309
   D68       -1.04952   0.00004   0.00000  -0.00004   0.00001  -1.04951
   D69       -3.12611   0.00160   0.00000   0.00960   0.00924  -3.11687
   D70        1.07941   0.00171   0.00000   0.01169   0.01180   1.09120
   D71        3.12399  -0.00141   0.00000  -0.00799  -0.00790   3.11608
   D72        1.04739   0.00015   0.00000   0.00166   0.00133   1.04873
   D73       -1.03027   0.00026   0.00000   0.00375   0.00389  -1.02639
   D74        1.06904  -0.00030   0.00000   0.00147   0.00160   1.07065
   D75       -1.00755   0.00125   0.00000   0.01111   0.01084  -0.99671
   D76       -3.08522   0.00137   0.00000   0.01320   0.01339  -3.07182
   D77       -1.17215   0.00310   0.00000   0.00000  -0.00001  -1.17216
   D78        3.06551  -0.00050   0.00000  -0.01850  -0.01840   3.04711
   D79        1.01518  -0.00152   0.00000  -0.03844  -0.03868   0.97650
   D80        0.08276   0.00318   0.00000   0.01429   0.01423   0.09699
   D81       -3.02793   0.00029   0.00000  -0.01499  -0.01476  -3.04269
         Item               Value     Threshold  Converged?
 Maximum Force            0.037188     0.000450     NO 
 RMS     Force            0.006937     0.000300     NO 
 Maximum Displacement     0.284505     0.001800     NO 
 RMS     Displacement     0.054195     0.001200     NO 
 Predicted change in Energy=-1.309895D-02
 GradGradGradGradGradGradGradGradGradGradGradGradGradGradGradGradGradGrad

                          Input orientation:                          
 ---------------------------------------------------------------------
 Center     Atomic      Atomic             Coordinates (Angstroms)
 Number     Number       Type             X           Y           Z
 ---------------------------------------------------------------------
      1          8           0       -3.458251   -1.452390   -0.159494
      2          7           0       -3.122903   -0.271362    0.015307
      3          8           0       -3.886976    0.675410    0.257507
      4          6           0       -1.684972    0.003627   -0.044304
      5          6           0       -1.323764    1.277381    0.263943
      6          7           0       -0.069059    1.764206    0.329129
      7          6           0        1.187154    1.008900    0.337613
      8          1           0        1.807105    1.518413    1.094188
      9          6           0        1.951914    1.050233   -0.981559
     10          6           0        3.345967    0.446737   -0.775599
     11          6           0        3.264738   -0.964699   -0.182956
     12          6           0        2.412606   -0.996562    1.086029
     13          6           0        1.011406   -0.435497    0.811547
     14          1           0        0.423682   -0.444102    1.743115
     15          7           0        0.390258   -1.314201   -0.174748
     16          6           0       -0.842301   -1.098986   -0.483876
     17          1           0       -2.110699    1.971933    0.548662
     18          1           0        0.058088    2.759197    0.173651
     19          1           0        1.400717    0.483900   -1.740432
     20          1           0        2.030744    2.088339   -1.332369
     21          1           0        3.881808    0.425674   -1.731330
     22          1           0        3.919432    1.094844   -0.097914
     23          1           0        2.816389   -1.641609   -0.918528
     24          1           0        4.271011   -1.341221    0.036981
     25          1           0        2.320361   -2.024819    1.453358
     26          1           0        2.889884   -0.404413    1.878311
     27          1           0       -1.325319   -1.816934   -1.149232
 ---------------------------------------------------------------------
                    Distance matrix (angstroms):
                    1          2          3          4          5
     1  O    0.000000
     2  N    1.240097   0.000000
     3  O    2.210255   1.240502   0.000000
     4  C    2.297341   1.465202   2.321897   0.000000
     5  C    3.490986   2.386907   2.632957   1.359388   0.000000
     6  N    4.698070   3.683474   3.970780   2.418731   1.347417
     7  C    5.280611   4.507720   5.085708   3.066845   2.526306
     8  H    6.174251   5.354649   5.816636   3.973077   3.248038
     9  C    6.017375   5.337988   5.980670   3.898817   3.511829
    10  C    7.091097   6.556483   7.309929   5.103086   4.855616
    11  C    6.740695   6.428217   7.350577   5.045444   5.126499
    12  C    6.018811   5.684560   6.570136   4.366713   4.450518
    13  C    4.685598   4.213484   5.053239   2.862825   2.947345
    14  H    4.439141   3.948852   4.694903   2.800313   2.864442
    15  N    3.851020   3.669596   4.737101   2.461761   3.137932
    16  C    2.659570   2.476952   3.601135   1.455704   2.537353
    17  H    3.747449   2.518213   2.218311   2.099305   1.087536
    18  H    5.496644   4.396370   4.462369   3.267863   2.028164
    19  H    5.464261   4.910822   5.655805   3.553729   3.474180
    20  H    6.636375   5.826190   6.288361   4.451031   3.802445
    21  H    7.737846   7.252763   8.023207   5.832085   5.639548
    22  H    7.805280   7.174525   7.825743   5.709901   5.258837
    23  H    6.323215   6.166426   7.189349   4.871685   5.201885
    24  H    7.732559   7.470946   8.406438   6.106469   6.181432
    25  H    6.026718   5.896756   6.874034   4.732893   5.059534
    26  H    6.749054   6.296197   7.051161   4.979182   4.815543
    27  H    2.379469   2.641260   3.840935   2.159783   3.401742
                    6          7          8          9         10
     6  N    0.000000
     7  C    1.465821   0.000000
     8  H    2.041011   1.102882   0.000000
     9  C    2.512368   1.525379   2.132812   0.000000
    10  C    3.823421   2.493139   2.648148   1.532974   0.000000
    11  C    4.338589   2.912463   3.149863   2.534013   1.532963
    12  C    3.788588   2.466523   2.586851   2.945594   2.533758
    13  C    2.497764   1.530289   2.128565   2.511410   2.957624
    14  H    2.668103   2.160912   2.487254   3.463001   3.959452
    15  N    3.153007   2.508855   3.411944   2.946228   3.492583
    16  C    3.075182   3.039196   4.044801   3.560122   4.473919
    17  H    2.063889   3.442064   3.981516   4.438010   5.818513
    18  H    1.015061   2.089309   2.333665   2.800293   4.130217
    19  H    2.842975   2.153951   3.044740   1.095646   2.171700
    20  H    2.697186   2.160017   2.502600   1.098611   2.175928
    21  H    4.652581   3.447004   3.671787   2.162573   1.095898
    22  H    4.066752   2.768106   2.462202   2.157300   1.099164
    23  H    4.634871   3.355219   3.880131   2.827950   2.159182
    24  H    5.344645   3.888910   3.919952   3.483488   2.170895
    25  H    4.618434   3.425273   3.598184   3.939609   3.482629
    26  H    3.982238   2.696386   2.341905   3.342849   2.824129
    27  H    4.072874   4.063073   5.096033   4.357639   5.204298
                   11         12         13         14         15
    11  C    0.000000
    12  C    1.528878   0.000000
    13  C    2.519245   1.534111   0.000000
    14  H    3.471652   2.166285   1.101504   0.000000
    15  N    2.895661   2.404236   1.459700   2.106274   0.000000
    16  C    4.120237   3.615179   2.356813   2.644064   1.288829
    17  H    6.168824   5.437004   3.951249   3.699599   4.192468
    18  H    4.927187   4.525695   3.394377   3.585806   4.101742
    19  H    2.828205   3.347323   2.740338   3.735088   2.589509
    20  H    3.487826   3.938411   3.464848   4.295871   3.950767
    21  H    2.170570   3.481210   3.930273   4.978645   4.200123
    22  H    2.162770   2.836586   3.409644   4.240047   4.273695
    23  H    1.095577   2.144149   2.775937   3.774044   2.558616
    24  H    1.096689   2.161703   3.470636   4.303214   3.886619
    25  H    2.166385   1.095789   2.156671   2.485964   2.623168
    26  H    2.168700   1.098246   2.160470   2.470224   3.360194
    27  H    4.767453   4.431872   3.348627   3.648197   2.036065
                   16         17         18         19         20
    16  C    0.000000
    17  H    3.479297   0.000000
    18  H    4.016045   2.337532   0.000000
    19  H    3.019203   4.447947   3.262413   0.000000
    20  H    4.374170   4.550096   2.570898   1.771348   0.000000
    21  H    5.118392   6.595409   4.867763   2.481791   2.519933
    22  H    5.256991   6.127791   4.213525   3.068394   2.465371
    23  H    3.724161   6.283830   5.307369   2.682804   3.834190
    24  H    5.145477   7.208677   5.880546   3.837819   4.319236
    25  H    3.822627   6.035462   5.444478   4.164098   4.976165
    26  H    4.471193   5.693929   4.575299   4.012733   4.154564
    27  H    1.091538   4.225539   4.960324   3.615885   5.152461
                   21         22         23         24         25
    21  H    0.000000
    22  H    1.765574   0.000000
    23  H    2.463620   3.062398   0.000000
    24  H    2.529886   2.464998   1.766114   0.000000
    25  H    4.311064   3.833505   2.453312   2.505687   0.000000
    26  H    3.834380   2.685741   3.059144   2.485079   1.769366
    27  H    5.699324   6.090248   4.151831   5.740411   4.484158
                   26         27
    26  H    0.000000
    27  H    5.378584   0.000000
 Symmetry turned off by external request.
 Stoichiometry    C9H13N3O2
 Framework group  C1[X(C9H13N3O2)]
 Deg. of freedom    75
 Full point group                 C1      NOp   1
 Rotational constants (GHZ):           1.6929859           0.4223312           0.3725664
 Standard basis: 6-31G(d) (6D, 7F)
   236 basis functions,   444 primitive gaussians,   236 cartesian basis functions
    52 alpha electrons       52 beta electrons
       nuclear repulsion energy       932.4872729621 Hartrees.
 NAtoms=   27 NActive=   27 NUniq=   27 SFac= 1.00D+00 NAtFMM=   60 NAOKFM=F Big=F
 Integral buffers will be    131072 words long.
 Raffenetti 1 integral format.
 Two-electron integral symmetry is turned off.
 One-electron integrals computed using PRISM.
 NBasis=   236 RedAO= T EigKep=  1.01D-03  NBF=   236
 NBsUse=   236 1.00D-06 EigRej= -1.00D+00 NBFU=   236
 Initial guess from the checkpoint file:  "/home/alexey/tmp/Gau-1575074.chk"
 B after Tr=     0.055371    0.004655   -0.000265
         Rot=    1.000000   -0.000038   -0.000364    0.000758 Ang=  -0.10 deg.
 ExpMin= 1.61D-01 ExpMax= 5.48D+03 ExpMxC= 8.25D+02 IAcc=3 IRadAn=         5 AccDes= 0.00D+00
 Harris functional with IExCor=  205 and IRadAn=       5 diagonalized for initial guess.
 HarFok:  IExCor=  205 AccDes= 0.00D+00 IRadAn=         5 IDoV= 1 UseB2=F ITyADJ=14
 ICtDFT=  3500011 ScaDFX=  1.000000  1.000000  1.000000  1.000000
 FoFCou: FMM=F IPFlag=           0 FMFlag=      100000 FMFlg1=           0
         NFxFlg=           0 DoJE=T BraDBF=F KetDBF=T FulRan=T
         wScrn=  0.000000 ICntrl=       500 IOpCl=  0 I1Cent=   200000004 NGrid=           0
         NMat0=    1 NMatS0=      1 NMatT0=    0 NMatD0=    1 NMtDS0=    0 NMtDT0=    0
 Symmetry not used in FoFCou.
 Keep R1 ints in memory in canonical form, NReq=397720213.
 Requested convergence on RMS density matrix=1.00D-08 within 128 cycles.
 Requested convergence on MAX density matrix=1.00D-06.
 Requested convergence on             energy=1.00D-06.
 No special actions if energy rises.
 SCF Done:  E(RHF) =  -661.296053263     A.U. after   15 cycles
            NFock= 15  Conv=0.39D-08     -V/T= 2.0024
 ExpMin= 1.61D-01 ExpMax= 5.48D+03 ExpMxC= 8.25D+02 IAcc=3 IRadAn=         5 AccDes= 0.00D+00
 HarFok:  IExCor=  205 AccDes= 0.00D+00 IRadAn=         5 IDoV=-2 UseB2=F ITyADJ=14
 ICtDFT= 12500011 ScaDFX=  1.000000  1.000000  1.000000  1.000000
 Range of M.O.s used for correlation:    15   236
 NBasis=   236 NAE=    52 NBE=    52 NFC=    14 NFV=     0
 NROrb=    222 NOA=    38 NOB=    38 NVA=   184 NVB=   184
 Fully direct method using O(ONN) memory.
 JobTyp=1 Pass  1:  I=  15 to  52 NPSUse=  4 ParTrn=T ParDer=T DoDerP=T.
 Spin components of T(2) and E(2):
     alpha-alpha T2 =       0.9123555301D-01 E2=     -0.2723137904D+00
     alpha-beta  T2 =       0.4916127335D+00 E2=     -0.1488386955D+01
     beta-beta   T2 =       0.9123555301D-01 E2=     -0.2723137904D+00
 ANorm=    0.1293863918D+01
 E2 =    -0.2033014536D+01 EUMP2 =    -0.66332906779922D+03
          IDoAtm=111111111111111111111111111
          Differentiating once with respect to electric field.
                with respect to dipole field.
          Differentiating once with respect to nuclear coordinates.
 Keep R1 ints in memory in canonical form, NReq=397723379.
          There are     1 degrees of freedom in the 1st order CPHF.  IDoFFX=0 NUNeed=     1.
 LinEq1:  Iter=  0 NonCon=     1 RMS=4.56D-03 Max=1.01D-01 NDo=     1
 AX will form     1 AO Fock derivatives at one time.
 LinEq1:  Iter=  1 NonCon=     1 RMS=1.53D-03 Max=2.68D-02 NDo=     1
 LinEq1:  Iter=  2 NonCon=     1 RMS=6.40D-04 Max=1.71D-02 NDo=     1
 LinEq1:  Iter=  3 NonCon=     1 RMS=2.80D-04 Max=8.04D-03 NDo=     1
[...]
    26  H    2.175613   1.098803   2.166375   2.497228   3.364280
    27  H    4.730860   4.424523   3.354586   3.654808   2.031164
                   16         17         18         19         20
    16  C    0.000000
    17  H    3.468127   0.000000
    18  H    4.075693   2.233222   0.000000
    19  H    2.989529   4.418152   3.554732   0.000000
    20  H    4.365393   4.553278   2.929320   1.768041   0.000000
    21  H    5.097806   6.586311   5.114351   2.498753   2.522133
    22  H    5.243871   6.115776   4.318375   3.070122   2.461593
    23  H    3.703895   6.261662   5.429620   2.704768   3.843071
    24  H    5.138105   7.191236   5.931771   3.850136   4.317460
    25  H    3.823626   6.007769   5.341427   4.172358   4.984402
    26  H    4.490941   5.692485   4.450881   4.037721   4.182613
    27  H    1.089707   4.234636   5.064462   3.569249   5.127063
                   21         22         23         24         25
    21  H    0.000000
    22  H    1.758769   0.000000
    23  H    2.469128   3.062069   0.000000
    24  H    2.517494   2.459907   1.764562   0.000000
    25  H    4.312087   3.839626   2.444456   2.519867   0.000000
    26  H    3.846825   2.704671   3.060443   2.490691   1.767643
    27  H    5.650039   6.054278   4.102816   5.705404   4.468337
                   26         27
    26  H    0.000000
    27  H    5.381564   0.000000
 Symmetry turned off by external request.
 Stoichiometry    C9H13N3O2
 Framework group  C1[X(C9H13N3O2)]
 Deg. of freedom    75
 Full point group                 C1      NOp   1
 Rotational constants (GHZ):           1.6878876           0.4197398           0.3721960

 **********************************************************************

            Population analysis using the SCF Density.

 **********************************************************************

 Alpha  occ. eigenvalues --  -20.59300 -20.58970 -15.84758 -15.63922 -15.56363
 Alpha  occ. eigenvalues --  -11.34947 -11.29626 -11.29614 -11.28678 -11.27186
 Alpha  occ. eigenvalues --  -11.23611 -11.23163 -11.22749 -11.22100  -1.57162
 Alpha  occ. eigenvalues --   -1.36771  -1.30851  -1.23171  -1.14687  -1.09818
 Alpha  occ. eigenvalues --   -1.02777  -1.01274  -0.94470  -0.89670  -0.85489
 Alpha  occ. eigenvalues --   -0.82453  -0.78534  -0.77433  -0.75162  -0.71925
 Alpha  occ. eigenvalues --   -0.69880  -0.69447  -0.67800  -0.64951  -0.63729
 Alpha  occ. eigenvalues --   -0.62198  -0.60452  -0.57693  -0.57043  -0.55051
 Alpha  occ. eigenvalues --   -0.54514  -0.50762  -0.49983  -0.48671  -0.48106
 Alpha  occ. eigenvalues --   -0.47403  -0.46158  -0.46028  -0.43699  -0.41662
 Alpha  occ. eigenvalues --   -0.40069  -0.34011
 Alpha virt. eigenvalues --    0.07312   0.11772   0.17319   0.21822   0.24156
 Alpha virt. eigenvalues --    0.25673   0.26941   0.28613   0.29039   0.29636
 Alpha virt. eigenvalues --    0.30639   0.31798   0.31968   0.32712   0.34060
 Alpha virt. eigenvalues --    0.34400   0.35788   0.37243   0.38594   0.40242
 Alpha virt. eigenvalues --    0.41331   0.42590   0.45225   0.46247   0.46630
 Alpha virt. eigenvalues --    0.47043   0.48917   0.53809   0.57744   0.59394
 Alpha virt. eigenvalues --    0.63795   0.69613   0.70005   0.72847   0.74277
 Alpha virt. eigenvalues --    0.74898   0.75834   0.76695   0.78528   0.79620
 Alpha virt. eigenvalues --    0.81300   0.84567   0.85792   0.86137   0.88538
 Alpha virt. eigenvalues --    0.89687   0.90634   0.92320   0.92829   0.94460
 Alpha virt. eigenvalues --    0.95751   0.97936   0.99545   1.01867   1.02495
 Alpha virt. eigenvalues --    1.03034   1.05722   1.06824   1.07656   1.08994
 Alpha virt. eigenvalues --    1.10154   1.10804   1.11855   1.12283   1.13920
 Alpha virt. eigenvalues --    1.14649   1.14972   1.15493   1.16754   1.18698
 Alpha virt. eigenvalues --    1.19504   1.21096   1.22072   1.23796   1.24259
 Alpha virt. eigenvalues --    1.24529   1.26353   1.26851   1.27440   1.29407
 Alpha virt. eigenvalues --    1.29947   1.33446   1.35593   1.36752   1.40896
 Alpha virt. eigenvalues --    1.41853   1.47764   1.48818   1.49742   1.53739
 Alpha virt. eigenvalues --    1.55413   1.57597   1.61576   1.63674   1.65801
 Alpha virt. eigenvalues --    1.67832   1.69004   1.73022   1.75136   1.76760
 Alpha virt. eigenvalues --    1.81997   1.84385   1.87392   1.90347   1.93391
 Alpha virt. eigenvalues --    1.95816   1.96988   1.99602   2.01203   2.02460
 Alpha virt. eigenvalues --    2.04961   2.05872   2.08330   2.09729   2.12376
 Alpha virt. eigenvalues --    2.13133   2.15198   2.17677   2.20052   2.21508
 Alpha virt. eigenvalues --    2.23300   2.24629   2.25423   2.28257   2.29851
 Alpha virt. eigenvalues --    2.32089   2.34034   2.35212   2.36703   2.38522
 Alpha virt. eigenvalues --    2.39960   2.41540   2.43801   2.45589   2.48245
 Alpha virt. eigenvalues --    2.50832   2.52214   2.53433   2.55619   2.61702
 Alpha virt. eigenvalues --    2.62549   2.64982   2.67935   2.70263   2.70776
 Alpha virt. eigenvalues --    2.72683   2.73208   2.77990   2.78616   2.83422
 Alpha virt. eigenvalues --    2.88132   2.88213   2.92936   2.93350   2.96259
 Alpha virt. eigenvalues --    2.99759   3.01167   3.03923   3.05025   3.07830
 Alpha virt. eigenvalues --    3.09197   3.14480   3.21642   3.24920   3.27308
 Alpha virt. eigenvalues --    3.32493   3.37324   3.38181   3.52161   3.64933
 Alpha virt. eigenvalues --    4.13051   4.27977   4.34558   4.38782   4.45681
 Alpha virt. eigenvalues --    4.56283   4.61776   4.62133   4.73490   4.79285
 Alpha virt. eigenvalues --    4.99072   5.00900   5.04506   5.11247
          Condensed to atoms (all electrons):
               1          2          3          4          5          6
     1  O    8.315307   0.308152  -0.082440  -0.086388   0.004595  -0.000016
     2  N    0.308152   5.721504   0.301420   0.265331  -0.052862   0.000959
     3  O   -0.082440   0.301420   8.352320  -0.092584   0.004402   0.000742
     4  C   -0.086388   0.265331  -0.092584   5.214424   0.565151  -0.048725
     5  C    0.004595  -0.052862   0.004402   0.565151   4.708460   0.318224
     6  N   -0.000016   0.000959   0.000742  -0.048725   0.318224   7.186761
     7  C    0.000004  -0.000144   0.000001   0.003449  -0.031602   0.171491
     8  H   -0.000000   0.000003  -0.000000  -0.000194   0.002746  -0.050895
     9  C   -0.000000  -0.000004   0.000000   0.000797   0.001183  -0.060916
    10  C    0.000000   0.000000   0.000000  -0.000032  -0.000067   0.003681
    11  C   -0.000000  -0.000000  -0.000000  -0.000033   0.000026  -0.000199
    12  C   -0.000000   0.000003  -0.000000  -0.000095  -0.000114   0.003922
    13  C   -0.000028  -0.000058  -0.000004  -0.012533  -0.000581  -0.046401
    14  H   -0.000006  -0.000104   0.000001   0.002966   0.007119  -0.007312
    15  N    0.000274   0.002399  -0.000016  -0.063242  -0.006289   0.001425
    16  C    0.001496  -0.028891   0.002470   0.330479  -0.049363  -0.002208
    17  H    0.000195  -0.006806   0.016235  -0.023489   0.375199  -0.034469
    18  H    0.000001  -0.000052   0.000011   0.001758  -0.031648   0.338972
    19  H    0.000000  -0.000002   0.000000  -0.001036   0.000947  -0.000193
    20  H    0.000000  -0.000000   0.000000  -0.000078   0.000170  -0.000488
    21  H   -0.000000   0.000000   0.000000   0.000000   0.000001  -0.000074
    22  H   -0.000000   0.000000  -0.000000   0.000000  -0.000004  -0.000119
    23  H    0.000000  -0.000000   0.000000   0.000040   0.000000  -0.000030
    24  H    0.000000   0.000000   0.000000   0.000000  -0.000000   0.000006
    25  H    0.000000  -0.000000   0.000000   0.000026  -0.000001  -0.000091
    26  H    0.000000  -0.000000   0.000000   0.000008  -0.000003  -0.000054
    27  H    0.005696  -0.000931   0.000004  -0.061929   0.002370   0.000017
               7          8          9         10         11         12
     1  O    0.000004  -0.000000  -0.000000   0.000000  -0.000000  -0.000000
     2  N   -0.000144   0.000003  -0.000004   0.000000  -0.000000   0.000003
     3  O    0.000001  -0.000000   0.000000   0.000000  -0.000000  -0.000000
     4  C    0.003449  -0.000194   0.000797  -0.000032  -0.000033  -0.000095
     5  C   -0.031602   0.002746   0.001183  -0.000067   0.000026  -0.000114
     6  N    0.171491  -0.050895  -0.060916   0.003681  -0.000199   0.003922
     7  C    5.017896   0.418654   0.348534  -0.054815  -0.008835  -0.060569
     8  H    0.418654   0.540977  -0.055428   0.000829  -0.000378  -0.002203
     9  C    0.348534  -0.055428   5.157938   0.324142  -0.050187  -0.005353
    10  C   -0.054815   0.000829   0.324142   5.120949   0.336665  -0.060953
    11  C   -0.008835  -0.000378  -0.050187   0.336665   5.119668   0.336109
    12  C   -0.060569  -0.002203  -0.005353  -0.060953   0.336109   5.118219
    13  C    0.342151  -0.038882  -0.059993  -0.000238  -0.050907   0.370816
    14  H   -0.046751  -0.000616   0.004437  -0.000404   0.004168  -0.036183
    15  N   -0.057726   0.003996  -0.014956   0.001618  -0.012905  -0.081431
    16  C   -0.001796   0.000022  -0.001448  -0.000015   0.000031   0.002834
    17  H    0.001775  -0.000049  -0.000066   0.000001   0.000000  -0.000000
    18  H   -0.022129  -0.004792   0.001589  -0.000088   0.000003  -0.000119
    19  H   -0.036779   0.004414   0.390054  -0.032181  -0.002265   0.000700
    20  H   -0.041785  -0.002044   0.399592  -0.035459   0.003930  -0.000406
    21  H    0.004592  -0.000074  -0.036269   0.402494  -0.034909   0.004344
    22  H   -0.004831   0.003579  -0.046883   0.397676  -0.045549  -0.001033
    23  H    0.000561   0.000037  -0.001944  -0.039015   0.399231  -0.037877
    24  H   -0.000128  -0.000102   0.004363  -0.038346   0.402288  -0.038752
    25  H    0.005096  -0.000021  -0.000432   0.004190  -0.033436   0.398372
    26  H   -0.003989   0.001732   0.000955  -0.002223  -0.041408   0.396774
    27  H   -0.000404   0.000009  -0.000061   0.000007   0.000011  -0.000036
              13         14         15         16         17         18
     1  O   -0.000028  -0.000006   0.000274   0.001496   0.000195   0.000001
     2  N   -0.000058  -0.000104   0.002399  -0.028891  -0.006806  -0.000052
     3  O   -0.000004   0.000001  -0.000016   0.002470   0.016235   0.000011
     4  C   -0.012533   0.002966  -0.063242   0.330479  -0.023489   0.001758
     5  C   -0.000581   0.007119  -0.006289  -0.049363   0.375199  -0.031648
     6  N   -0.046401  -0.007312   0.001425  -0.002208  -0.034469   0.338972
     7  C    0.342151  -0.046751  -0.057726  -0.001796   0.001775  -0.022129
     8  H   -0.038882  -0.000616   0.003996   0.000022  -0.000049  -0.004792
     9  C   -0.059993   0.004437  -0.014956  -0.001448  -0.000066   0.001589
    10  C   -0.000238  -0.000404   0.001618  -0.000015   0.000001  -0.000088
    11  C   -0.050907   0.004168  -0.012905   0.000031   0.000000   0.000003
    12  C    0.370816  -0.036183  -0.081431   0.002834  -0.000000  -0.000119
    13  C    5.043466   0.401661   0.245010  -0.071867  -0.000017   0.002853
    14  H    0.401661   0.529312  -0.037524  -0.004834   0.000122  -0.000105
    15  N    0.245010  -0.037524   6.956499   0.584473  -0.000088  -0.000122
    16  C   -0.071867  -0.004834   0.584473   4.711314   0.002067  -0.000185
    17  H   -0.000017   0.000122  -0.000088   0.002067   0.379712  -0.002957
    18  H    0.002853  -0.000105  -0.000122  -0.000185  -0.002957   0.313762
    19  H   -0.007561   0.000111   0.007820   0.003007   0.000013  -0.000147
    20  H    0.004301  -0.000066   0.000131  -0.000036   0.000003   0.000585
    21  H   -0.000427   0.000010  -0.000037   0.000004  -0.000000   0.000002
    22  H    0.000056  -0.000056   0.000017  -0.000002   0.000000   0.000000
    23  H   -0.007429   0.000001   0.008431   0.000087   0.000000   0.000000
    24  H    0.004701  -0.000056   0.000138   0.000007   0.000000  -0.000000
    25  H   -0.035568  -0.002795   0.000236  -0.000022  -0.000000   0.000002
    26  H   -0.047287  -0.001054   0.004856  -0.000073   0.000000  -0.000000
    27  H    0.005108  -0.000179  -0.040351   0.402602  -0.000073   0.000001
              19         20         21         22         23         24
     1  O    0.000000   0.000000  -0.000000  -0.000000   0.000000   0.000000
     2  N   -0.000002  -0.000000   0.000000   0.000000  -0.000000   0.000000
     3  O    0.000000   0.000000   0.000000  -0.000000   0.000000   0.000000
     4  C   -0.001036  -0.000078   0.000000   0.000000   0.000040   0.000000
     5  C    0.000947   0.000170   0.000001  -0.000004   0.000000  -0.000000
     6  N   -0.000193  -0.000488  -0.000074  -0.000119  -0.000030   0.000006
     7  C   -0.036779  -0.041785   0.004592  -0.004831   0.000561  -0.000128
     8  H    0.004414  -0.002044  -0.000074   0.003579   0.000037  -0.000102
     9  C    0.390054   0.399592  -0.036269  -0.046883  -0.001944   0.004363
    10  C   -0.032181  -0.035459   0.402494   0.397676  -0.039015  -0.038346
    11  C   -0.002265   0.003930  -0.034909  -0.045549   0.399231   0.402288
    12  C    0.000700  -0.000406   0.004344  -0.001033  -0.037877  -0.038752
    13  C   -0.007561   0.004301  -0.000427   0.000056  -0.007429   0.004701
    14  H    0.000111  -0.000066   0.000010  -0.000056   0.000001  -0.000056
    15  N    0.007820   0.000131  -0.000037   0.000017   0.008431   0.000138
    16  C    0.003007  -0.000036   0.000004  -0.000002   0.000087   0.000007
    17  H    0.000013   0.000003  -0.000000   0.000000   0.000000   0.000000
    18  H   -0.000147   0.000585   0.000002   0.000000   0.000000  -0.000000
    19  H    0.504945  -0.024452  -0.002784   0.003956   0.001515  -0.000066
    20  H   -0.024452   0.538993  -0.002665  -0.002995  -0.000046  -0.000082
    21  H   -0.002784  -0.002665   0.523978  -0.027414  -0.002912  -0.002232
    22  H    0.003956  -0.002995  -0.027414   0.571799   0.004146  -0.003660
    23  H    0.001515  -0.000046  -0.002912   0.004146   0.499312  -0.025467
    24  H   -0.000066  -0.000082  -0.002232  -0.003660  -0.025467   0.538184
    25  H   -0.000028   0.000012  -0.000087  -0.000080  -0.002333  -0.002268
    26  H    0.000019  -0.000030  -0.000082   0.002383   0.004065  -0.003054
    27  H    0.000082   0.000000  -0.000000   0.000000  -0.000034  -0.000000
              25         26         27
     1  O    0.000000   0.000000   0.005696
     2  N   -0.000000  -0.000000  -0.000931
     3  O    0.000000   0.000000   0.000004
     4  C    0.000026   0.000008  -0.061929
     5  C   -0.000001  -0.000003   0.002370
     6  N   -0.000091  -0.000054   0.000017
     7  C    0.005096  -0.003989  -0.000404
     8  H   -0.000021   0.001732   0.000009
     9  C   -0.000432   0.000955  -0.000061
    10  C    0.004190  -0.002223   0.000007
    11  C   -0.033436  -0.041408   0.000011
    12  C    0.398372   0.396774  -0.000036
    13  C   -0.035568  -0.047287   0.005108
    14  H   -0.002795  -0.001054  -0.000179
    15  N    0.000236   0.004856  -0.040351
    16  C   -0.000022  -0.000073   0.402602
    17  H   -0.000000   0.000000  -0.000073
    18  H    0.000002  -0.000000   0.000001
    19  H   -0.000028   0.000019   0.000082
    20  H    0.000012  -0.000030   0.000000
    21  H   -0.000087  -0.000082  -0.000000
    22  H   -0.000080   0.002383   0.000000
    23  H   -0.002333   0.004065  -0.000034
    24  H   -0.002268  -0.003054  -0.000000
    25  H    0.506315  -0.024136  -0.000011
    26  H   -0.024136   0.562024   0.000001
    27  H   -0.000011   0.000001   0.441966
 Mulliken charges:
               1
     1  O   -0.466842
     2  N    0.490083
     3  O   -0.502563
     4  C    0.005929
     5  C    0.181941
     6  N   -0.774010
     7  C    0.058077
     8  H    0.178683
     9  C   -0.299646
    10  C   -0.328415
    11  C   -0.321119
    12  C   -0.306968
    13  C   -0.040340
    14  H    0.188135
    15  N   -0.502633
    16  C    0.119848
    17  H    0.292694
    18  H    0.402805
    19  H    0.189910
    20  H    0.162916
    21  H    0.174540
    22  H    0.149014
    23  H    0.199662
    24  H    0.164527
    25  H    0.187060
    26  H    0.150578
    27  H    0.246136
 Sum of Mulliken charges =  -0.00000
 Mulliken charges with hydrogens summed into heavy atoms:
               1
     1  O   -0.466842
     2  N    0.490083
     3  O   -0.502563
     4  C    0.005929
     5  C    0.474635
     6  N   -0.371205
     7  C    0.236759
     9  C    0.053179
    10  C   -0.004861
    11  C    0.043070
    12  C    0.030671
    13  C    0.147795
    15  N   -0.502633
    16  C    0.365984
 Electronic spatial extent (au):  <R**2>=           3002.9214
 Charge=             -0.0000 electrons
 Dipole moment (field-independent basis, Debye):
    X=              5.3650    Y=              4.7373    Z=              1.3180  Tot=              7.2776
 Quadrupole moment (field-independent basis, Debye-Ang):
   XX=           -105.9938   YY=            -79.6744   ZZ=            -81.1950
   XY=             -2.0358   XZ=              0.4394   YZ=              2.3915
 Traceless Quadrupole moment (field-independent basis, Debye-Ang):
   XX=            -17.0394   YY=              9.2800   ZZ=              7.7594
   XY=             -2.0358   XZ=              0.4394   YZ=              2.3915
 Octapole moment (field-independent basis, Debye-Ang**2):
  XXX=             91.5762  YYY=             35.5657  ZZZ=             -0.6761  XYY=             -4.0208
  XXY=             10.4780  XXZ=              1.9587  XZZ=            -10.4272  YZZ=             -0.1953
  YYZ=              9.1361  XYZ=             -0.6149
 Hexadecapole moment (field-independent basis, Debye-Ang**3):
 XXXX=          -3380.1952 YYYY=           -604.4789 ZZZZ=           -301.5234 XXXY=            -29.6617
 XXXZ=             13.3653 YYYX=            -15.0586 YYYZ=             27.7780 ZZZX=             15.0733
 ZZZY=              9.0489 XXYY=           -628.3252 XXZZ=           -522.0010 YYZZ=           -155.4277
 XXYZ=             -2.8553 YYXZ=              6.0353 ZZXY=              3.2718
 N-N= 9.315223931230D+02 E-N=-3.409753162837D+03  KE= 6.596289058755D+02
 Unable to Open any file for archive entry.
 1\1\GINC-LOTUS\FOpt\RMP2-FC\6-31G(d)\C9H13N3O2\ALEXEY\02-Jul-2023\0\\#
 MP2/6-31G* SCF=Tight Opt=(ModRedun, MaxCycle=20 ) NoSymm\\MolName:\\0,
 1\O,-3.4902017422,-1.4206962531,-0.2987438481\N,-3.1192775619,-0.25347
 19111,-0.0658661713\O,-3.903558958,0.6907287764,0.148774684\C,-1.68678
 88278,-0.0144416026,-0.0321892057\C,-1.3064475852,1.2639343149,0.27791
 5482\N,-0.0604351828,1.7682298316,0.306197338\C,1.1990617337,1.0303788
 995,0.3168301978\H,1.8334637064,1.5619141544,1.0426822302\C,1.93745723
 71,1.0294209073,-1.0200579012\C,3.3294652383,0.4202190919,-0.816479848
 8\C,3.2616885321,-0.9712607972,-0.1815151456\C,2.4338337283,-0.9702266
 529,1.105566471\C,1.0328143199,-0.4123675747,0.8318341667\H,0.43300654
 2,-0.3814448986,1.7559101167\N,0.4041923031,-1.3069444932,-0.136393695
 8\C,-0.836029811,-1.1117904146,-0.4537857246\H,-2.0951311103,1.9584346
 54,0.5543247597\H,-0.0011461141,2.7325159271,0.6118353508\H,1.36056690
 54,0.4493494506,-1.7480388541\H,2.0153427667,2.0547988288,-1.401963314
 1\H,3.8580228144,0.3736782287,-1.7754829731\H,3.9150879386,1.089220142
 9,-0.1698642459\H,2.7999024766,-1.6715731401,-0.8844596831\H,4.2748428
 033,-1.3364755484,0.024353366\H,2.3349887114,-1.9892029204,1.494265162
 3\H,2.9270075734,-0.3694676065,1.8822494449\H,-1.2927084375,-1.8514593
 949,-1.1108981588\\Version=ES64L-G16RevC.02\HF=-661.2991287\MP2=-663.3
 33864\RMSD=9.765e-09\RMSF=9.319e-04\Dipole=1.9515493,1.6632462,0.48641
 19\PG=C01 [X(C9H13N3O2)]\\@
 The archive entry for this job was punched.


 I WANT IT ALL - RICH, THIN, AND CHOCOLATE.
 Job cpu time:       0 days  1 hours  8 minutes 52.4 seconds.
 Elapsed time:       0 days  0 hours 20 minutes 40.9 seconds.
 File lengths (MBytes):  RWF=     36 Int=      0 D2E=      0 Chk=      7 Scr=      1
 Normal termination of Gaussian 16 at Sun Jul  2 20:44:44 2023.
