 Entering Gaussian System, Link 0=g16
 Initial command:
 /home/alexey/programs//g16/l1.exe "/home/alexey/tmp/Gau-1567555.inp" -scrdir="/home/alexey/tmp/"
 Entering Link 1 = /home/alexey/programs//g16/l1.exe PID=   1567557.
  
 Copyright (c) 1988-2021, Gaussian, Inc.  All Rights Reserved.
  
 This is part of the Gaussian(R) 16 program.  It is based on
 the Gaussian(R) 09 system (copyright 2009, Gaussian, Inc.),
 the Gaussian(R) 03 system (copyright 2003, Gaussian, Inc.),
 the Gaussian(R) 98 system (copyright 1998, Gaussian, Inc.),
 the Gaussian(R) 94 system (copyright 1995, Gaussian, Inc.),
 the Gaussian 92(TM) system (copyright 1992, Gaussian, Inc.),
 the Gaussian 90(TM) system (copyright 1990, Gaussian, Inc.),
 the Gaussian 88(TM) system (copyright 1988, Gaussian, Inc.),
 the Gaussian 86(TM) system (copyright 1986, Carnegie Mellon
 University), and the Gaussian 82(TM) system (copyright 1983,
 Carnegie Mellon University). Gaussian is a federally registered
 trademark of Gaussian, Inc.
  
 This software contains proprietary and confidential information,
 including trade secrets, belonging to Gaussian, Inc.
  
 This software is provided under written license and may be
 used, copied, transmitted, or stored only in accord with that
 written license.
  
 The following legend is applicable only to US Government
 contracts under FAR:
  
                    RESTRICTED RIGHTS LEGEND
  
 Use, reproduction and disclosure by the US Government is
 subject to restrictions as set forth in subparagraphs (a)
 and (c) of the Commercial Computer Software - Restricted
 Rights clause in FAR 52.227-19.
  
 Gaussian, Inc.
 340 Quinnipiac St., Bldg. 40, Wallingford CT 06492
  
  
 ---------------------------------------------------------------
 Warning -- This program may not be used in any manner that
 competes with the business of Gaussian, Inc. or will provide
 assistance to any competitor of Gaussian, Inc.  The licensee
 of this program is prohibited from giving any competitor of
 Gaussian, Inc. access to this program.  By using this program,
 the user acknowledges that Gaussian, Inc. is engaged in the
 business of creating and licensing software in the field of
 computational chemistry and represents and warrants to the
 licensee that it is not a competitor of Gaussian, Inc. and that
 it will not use this program in any manner prohibited above.
 ---------------------------------------------------------------
  

 Cite this work as:
 Gaussian 16, Revision C.02,
 M. J. Frisch, G. W. Trucks, H. B. Schlegel, G. E. Scuseria, 
 M. A. Robb, J. R. Cheeseman, G. Scalmani, V. Barone, 
 G. A. Petersson, H. Nakatsuji, X. Li, M. Caricato, A. V. Marenich, 
 J. Bloino, B. G. Janesko, R. Gomperts, B. Mennucci, H. P. Hratchian, 
 J. V. Ortiz, A. F. Izmaylov, J. L. Sonnenberg, D. Williams-Young, 
 F. Ding, F. Lipparini, F. Egidi, J. Goings, B. Peng, A. Petrone, 
 T. Henderson, D. Ranasinghe, V. G. Zakrzewski, J. Gao, N. Rega, 
 G. Zheng, W. Liang, M. Hada, M. Ehara, K. Toyota, R. Fukuda, 
 J. Hasegawa, M. Ishida, T. Nakajima, Y. Honda, O. Kitao, H. Nakai, 
 T. Vreven, K. Throssell, J. A. Montgomery, Jr., J. E. Peralta, 
 F. Ogliaro, M. J. Bearpark, J. J. Heyd, E. N. Brothers, K. N. Kudin, 
 V. N. Staroverov, T. A. Keith, R. Kobayashi, J. Normand, 
 K. Raghavachari, A. P. Rendell, J. C. Burant, S. S. Iyengar, 
 J. Tomasi, M. Cossi, J. M. Millam, M. Klene, C. Adamo, R. Cammi, 
 J. W. Ochterski, R. L. Martin, K. Morokuma, O. Farkas, 
 J. B. Foresman, and D. J. Fox, Gaussian, Inc., Wallingford CT, 2019.
 
 ******************************************
 Gaussian 16:  ES64L-G16RevC.02  7-Dec-2021
                 2-Jul-2023 
 ******************************************
 %mem=8GB
 %NPROCS=4
 Will use up to    4 processors via shared memory.
 %NoSave
 ---------------------------------------------------------
 #MP2/6-31G* SCF=Tight Opt=(ModRedun, MaxCycle=20 ) NoSymm
 ---------------------------------------------------------
 1/6=20,18=120,19=15,38=1/1,3;
 2/9=110,12=2,15=1,17=6,18=5,40=1/2;
 3/5=1,6=6,7=1,11=9,25=1,30=1,71=1/1,2,3;
 4//1;
 5/5=2,32=2,38=5/2;
 8/6=4,10=2/1;
 9/15=2,16=-3/6;
 10/5=1,31=1/2;
 6/7=2,8=2,9=2,10=2/1;
 7/12=2,30=1/1,2,3,16;
 1/6=20,18=20,19=15/3(2);
 2/9=110,15=1/2;
 99//99;
 2/9=110,15=1/2;
 3/5=1,6=6,7=1,11=9,25=1,30=1,71=1/1,2,3;
 4/5=5,16=3,69=1/1;
 5/5=2,32=2,38=5/2;
 8/6=4,10=2/1;
 9/15=2,16=-3/6;
 10/5=1,31=1/2;
 7/12=2,30=1/1,2,3,16;
 1/6=20,18=20,19=15/3(-8);
 2/9=110,15=1/2;
 6/7=2,8=2,9=2,10=2/1;
 99/9=10/99;
 --------
 MolName:
 --------
 Symbolic Z-matrix:
 Charge =  0 Multiplicity = 1
 8                    0    -3.62806  -1.43205  -0.21395 
 7                    0    -3.26065  -0.26894  -0.05688 
 8                    0    -4.03553   0.67928   0.07485 
 6                    0    -1.75701   0.00511  -0.0426 
 6                    0    -1.36678   1.31476   0.25997 
 7                    0    -0.0808    1.76076   0.42097 
 6                    0     1.20015   0.99286   0.37596 
 1                    0     1.87074   1.48991   1.12418 
 6                    0     1.95028   1.04842  -0.97832 
 6                    0     3.36503   0.46361  -0.80464 
 6                    0     3.31114  -0.95381  -0.21286 
 6                    0     2.47605  -0.99155   1.08523 
 6                    0     1.03604  -0.45758   0.85309 
 1                    0     0.49524  -0.49914   1.82755 
 7                    0     0.37203  -1.32705  -0.12029 
 6                    0    -0.87235  -1.13233  -0.40921 
 1                    0    -2.15456   2.06666   0.43273 
 1                    0     0.15411   2.74751   0.28908 
 1                    0     1.39368   0.47277  -1.74816 
 1                    0     2.03113   2.09941  -1.32837 
 1                    0     3.88977   0.4426   -1.78482 
 1                    0     3.94822   1.11672  -0.11764 
 1                    0     2.85745  -1.64209  -0.96131 
 1                    0     4.34179  -1.31659  -0.00703 
 1                    0     2.42294  -2.03871   1.45582 
 1                    0     2.97686  -0.38125   1.86572 
 1                    0    -1.37591  -1.89632  -1.0211 
 
 The following ModRedundant input section has been read:
 D      17       5       6       7 F                                           
 D       1       2       4      16 F                                           
 D       7      13      15      16 F                                           
 D       7       9      10      11 F                                           
 D       9      10      11      12 F                                           
 D       6       7      13      15 F                                           
 

 GradGradGradGradGradGradGradGradGradGradGradGradGradGradGradGradGradGrad
 Berny optimization.
 Initialization pass.
                           ----------------------------
                           !    Initial Parameters    !
                           ! (Angstroms and Degrees)  !
 --------------------------                            --------------------------
 ! Name  Definition              Value          Derivative Info.                !
 --------------------------------------------------------------------------------
 ! R1    R(1,2)                  1.2298         estimate D2E/DX2                !
 ! R2    R(2,3)                  1.2316         estimate D2E/DX2                !
 ! R3    R(2,4)                  1.5285         estimate D2E/DX2                !
 ! R4    R(4,5)                  1.3996         estimate D2E/DX2                !
 ! R5    R(4,16)                 1.4869         estimate D2E/DX2                !
 ! R6    R(5,6)                  1.3706         estimate D2E/DX2                !
 ! R7    R(5,17)                 1.1026         estimate D2E/DX2                !
 ! R8    R(6,7)                  1.4942         estimate D2E/DX2                !
 ! R9    R(6,18)                 1.0229         estimate D2E/DX2                !
 ! R10   R(7,8)                  1.121          estimate D2E/DX2                !
 ! R11   R(7,9)                  1.5491         estimate D2E/DX2                !
 ! R12   R(7,13)                 1.5357         estimate D2E/DX2                !
 ! R13   R(9,10)                 1.5407         estimate D2E/DX2                !
 ! R14   R(9,19)                 1.1108         estimate D2E/DX2                !
 ! R15   R(9,20)                 1.1107         estimate D2E/DX2                !
 ! R16   R(10,11)                1.5369         estimate D2E/DX2                !
 ! R17   R(10,21)                1.112          estimate D2E/DX2                !
 ! R18   R(10,22)                1.1129         estimate D2E/DX2                !
 ! R19   R(11,12)                1.544          estimate D2E/DX2                !
 ! R20   R(11,23)                1.1134         estimate D2E/DX2                !
 ! R21   R(11,24)                1.1119         estimate D2E/DX2                !
 ! R22   R(12,13)                1.5533         estimate D2E/DX2                !
 ! R23   R(12,25)                1.1121         estimate D2E/DX2                !
 ! R24   R(12,26)                1.1102         estimate D2E/DX2                !
 ! R25   R(13,14)                1.1152         estimate D2E/DX2                !
 ! R26   R(13,15)                1.4644         estimate D2E/DX2                !
 ! R27   R(15,16)                1.2922         estimate D2E/DX2                !
 ! R28   R(16,27)                1.1008         estimate D2E/DX2                !
 ! A1    A(1,2,3)              123.6298         estimate D2E/DX2                !
 ! A2    A(1,2,4)              117.688          estimate D2E/DX2                !
 ! A3    A(3,2,4)              118.6782         estimate D2E/DX2                !
 ! A4    A(2,4,5)              116.3634         estimate D2E/DX2                !
 ! A5    A(2,4,16)             116.4777         estimate D2E/DX2                !
 ! A6    A(5,4,16)             127.1006         estimate D2E/DX2                !
 ! A7    A(4,5,6)              126.2608         estimate D2E/DX2                !
 ! A8    A(4,5,17)             118.2125         estimate D2E/DX2                !
 ! A9    A(6,5,17)             115.4699         estimate D2E/DX2                !
 ! A10   A(5,6,7)              129.3156         estimate D2E/DX2                !
 ! A11   A(5,6,18)             120.9469         estimate D2E/DX2                !
 ! A12   A(7,6,18)             107.1585         estimate D2E/DX2                !
 ! A13   A(6,7,8)              105.359          estimate D2E/DX2                !
 ! A14   A(6,7,9)              115.0258         estimate D2E/DX2                !
 ! A15   A(6,7,13)             112.6082         estimate D2E/DX2                !
 ! A16   A(8,7,9)              106.1372         estimate D2E/DX2                !
 ! A17   A(8,7,13)             105.9824         estimate D2E/DX2                !
 ! A18   A(9,7,13)             110.9302         estimate D2E/DX2                !
 ! A19   A(7,9,10)             109.4194         estimate D2E/DX2                !
 ! A20   A(7,9,19)             110.1609         estimate D2E/DX2                !
 ! A21   A(7,9,20)             110.1636         estimate D2E/DX2                !
 ! A22   A(10,9,19)            109.9713         estimate D2E/DX2                !
 ! A23   A(10,9,20)            109.139          estimate D2E/DX2                !
 ! A24   A(19,9,20)            107.9646         estimate D2E/DX2                !
 ! A25   A(9,10,11)            111.1782         estimate D2E/DX2                !
 ! A26   A(9,10,21)            109.9454         estimate D2E/DX2                !
 ! A27   A(9,10,22)            109.1484         estimate D2E/DX2                !
 ! A28   A(11,10,21)           109.7864         estimate D2E/DX2                !
 ! A29   A(11,10,22)           108.7775         estimate D2E/DX2                !
 ! A30   A(21,10,22)           107.9341         estimate D2E/DX2                !
 ! A31   A(10,11,12)           111.4216         estimate D2E/DX2                !
 ! A32   A(10,11,23)           108.999          estimate D2E/DX2                !
 ! A33   A(10,11,24)           109.8579         estimate D2E/DX2                !
 ! A34   A(12,11,23)           109.2476         estimate D2E/DX2                !
 ! A35   A(12,11,24)           109.74           estimate D2E/DX2                !
 ! A36   A(23,11,24)           107.4849         estimate D2E/DX2                !
 ! A37   A(11,12,13)           111.5541         estimate D2E/DX2                !
 ! A38   A(11,12,25)           109.2094         estimate D2E/DX2                !
 ! A39   A(11,12,26)           109.4905         estimate D2E/DX2                !
 ! A40   A(13,12,25)           109.2223         estimate D2E/DX2                !
 ! A41   A(13,12,26)           109.5306         estimate D2E/DX2                !
 ! A42   A(25,12,26)           107.753          estimate D2E/DX2                !
 ! A43   A(7,13,12)            105.7863         estimate D2E/DX2                !
 ! A44   A(7,13,14)            111.0075         estimate D2E/DX2                !
 ! A45   A(7,13,15)            113.7487         estimate D2E/DX2                !
 ! A46   A(12,13,14)           107.8281         estimate D2E/DX2                !
 ! A47   A(12,13,15)           108.3977         estimate D2E/DX2                !
 ! A48   A(14,13,15)           109.8033         estimate D2E/DX2                !
 ! A49   A(13,15,16)           119.7227         estimate D2E/DX2                !
 ! A50   A(4,16,15)            129.2785         estimate D2E/DX2                !
 ! A51   A(4,16,27)            113.3173         estimate D2E/DX2                !
 ! A52   A(15,16,27)           117.4018         estimate D2E/DX2                !
 ! D1    D(1,2,4,5)           -174.3206         estimate D2E/DX2                !
 ! D2    D(1,2,4,16)             8.2581         Frozen                          !
 ! D3    D(3,2,4,5)              6.391          estimate D2E/DX2                !
 ! D4    D(3,2,4,16)          -171.0302         estimate D2E/DX2                !
 ! D5    D(2,4,5,6)            175.0718         estimate D2E/DX2                !
 ! D6    D(2,4,5,17)            -2.0539         estimate D2E/DX2                !
 ! D7    D(16,4,5,6)            -7.8225         estimate D2E/DX2                !
 ! D8    D(16,4,5,17)          175.0518         estimate D2E/DX2                !
 ! D9    D(2,4,16,15)         -157.4973         estimate D2E/DX2                !
 ! D10   D(2,4,16,27)           23.0907         estimate D2E/DX2                !
 ! D11   D(5,4,16,15)           25.3998         estimate D2E/DX2                !
 ! D12   D(5,4,16,27)         -154.0121         estimate D2E/DX2                !
 ! D13   D(4,5,6,7)             -2.7355         estimate D2E/DX2                !
 ! D14   D(4,5,6,18)           156.5986         estimate D2E/DX2                !
 ! D15   D(17,5,6,7)           174.4591         Frozen                          !
 ! D16   D(17,5,6,18)          -26.2069         estimate D2E/DX2                !
 ! D17   D(5,6,7,8)           -145.6804         estimate D2E/DX2                !
 ! D18   D(5,6,7,9)             97.8112         estimate D2E/DX2                !
 ! D19   D(5,6,7,13)           -30.6126         estimate D2E/DX2                !
 ! D20   D(18,6,7,8)            52.7878         estimate D2E/DX2                !
 ! D21   D(18,6,7,9)           -63.7207         estimate D2E/DX2                !
 ! D22   D(18,6,7,13)          167.8556         estimate D2E/DX2                !
 ! D23   D(6,7,9,10)           168.7901         estimate D2E/DX2                !
 ! D24   D(6,7,9,19)           -70.1974         estimate D2E/DX2                !
 ! D25   D(6,7,9,20)            48.8041         estimate D2E/DX2                !
 ! D26   D(8,7,9,10)            52.726          estimate D2E/DX2                !
 ! D27   D(8,7,9,19)           173.7384         estimate D2E/DX2                !
 ! D28   D(8,7,9,20)           -67.26           estimate D2E/DX2                !
 ! D29   D(13,7,9,10)          -61.9538         estimate D2E/DX2                !
 ! D30   D(13,7,9,19)           59.0586         estimate D2E/DX2                !
 ! D31   D(13,7,9,20)          178.0602         estimate D2E/DX2                !
 ! D32   D(6,7,13,12)         -166.1155         estimate D2E/DX2                !
 ! D33   D(6,7,13,14)          -49.4116         estimate D2E/DX2                !
 ! D34   D(6,7,13,15)           75.0218         Frozen                          !
 ! D35   D(8,7,13,12)          -51.4247         estimate D2E/DX2                !
 ! D36   D(8,7,13,14)           65.2792         estimate D2E/DX2                !
 ! D37   D(8,7,13,15)         -170.2874         estimate D2E/DX2                !
 ! D38   D(9,7,13,12)           63.3518         estimate D2E/DX2                !
 ! D39   D(9,7,13,14)         -179.9443         estimate D2E/DX2                !
 ! D40   D(9,7,13,15)          -55.5108         estimate D2E/DX2                !
 ! D41   D(7,9,10,11)           54.8119         Frozen                          !
 ! D42   D(7,9,10,21)          176.6011         estimate D2E/DX2                !
 ! D43   D(7,9,10,22)          -65.1851         estimate D2E/DX2                !
 ! D44   D(19,9,10,11)         -66.3155         estimate D2E/DX2                !
 ! D45   D(19,9,10,21)          55.4737         estimate D2E/DX2                !
 ! D46   D(19,9,10,22)         173.6874         estimate D2E/DX2                !
 ! D47   D(20,9,10,11)         175.4241         estimate D2E/DX2                !
 ! D48   D(20,9,10,21)         -62.7867         estimate D2E/DX2                !
 ! D49   D(20,9,10,22)          55.427          estimate D2E/DX2                !
 ! D50   D(9,10,11,12)         -52.822          Frozen                          !
 ! D51   D(9,10,11,23)          67.8152         estimate D2E/DX2                !
 ! D52   D(9,10,11,24)        -174.6553         estimate D2E/DX2                !
 ! D53   D(21,10,11,12)       -174.7037         estimate D2E/DX2                !
 ! D54   D(21,10,11,23)        -54.0665         estimate D2E/DX2                !
 ! D55   D(21,10,11,24)         63.463          estimate D2E/DX2                !
 ! D56   D(22,10,11,12)         67.3949         estimate D2E/DX2                !
 ! D57   D(22,10,11,23)       -171.968          estimate D2E/DX2                !
 ! D58   D(22,10,11,24)        -54.4385         estimate D2E/DX2                !
 ! D59   D(10,11,12,13)         56.6288         estimate D2E/DX2                !
 ! D60   D(10,11,12,25)        177.4584         estimate D2E/DX2                !
 ! D61   D(10,11,12,26)        -64.7771         estimate D2E/DX2                !
 ! D62   D(23,11,12,13)        -63.8624         estimate D2E/DX2                !
 ! D63   D(23,11,12,25)         56.9672         estimate D2E/DX2                !
 ! D64   D(23,11,12,26)        174.7317         estimate D2E/DX2                !
 ! D65   D(24,11,12,13)        178.5304         estimate D2E/DX2                !
 ! D66   D(24,11,12,25)        -60.64           estimate D2E/DX2                !
 ! D67   D(24,11,12,26)         57.1244         estimate D2E/DX2                !
 ! D68   D(11,12,13,7)         -60.402          estimate D2E/DX2                !
 ! D69   D(11,12,13,14)       -179.2348         estimate D2E/DX2                !
 ! D70   D(11,12,13,15)         61.9478         estimate D2E/DX2                !
 ! D71   D(25,12,13,7)         178.7759         estimate D2E/DX2                !
 ! D72   D(25,12,13,14)         59.9432         estimate D2E/DX2                !
 ! D73   D(25,12,13,15)        -58.8743         estimate D2E/DX2                !
 ! D74   D(26,12,13,7)          60.9807         estimate D2E/DX2                !
 ! D75   D(26,12,13,14)        -57.8521         estimate D2E/DX2                !
 ! D76   D(26,12,13,15)       -176.6695         estimate D2E/DX2                !
 ! D77   D(7,13,15,16)         -67.1597         Frozen                          !
 ! D78   D(12,13,15,16)        175.481          estimate D2E/DX2                !
 ! D79   D(14,13,15,16)         57.9193         estimate D2E/DX2                !
 ! D80   D(13,15,16,4)           9.9112         estimate D2E/DX2                !
 ! D81   D(13,15,16,27)       -170.6971         estimate D2E/DX2                !
 --------------------------------------------------------------------------------
 Trust Radius=3.00D-01 FncErr=1.00D-07 GrdErr=1.00D-07 EigMax=2.50D+02 EigMin=1.00D-04
 Number of steps in this run=     20 maximum allowed number of steps=    162.
 GradGradGradGradGradGradGradGradGradGradGradGradGradGradGradGradGradGrad

                          Input orientation:                          
 ---------------------------------------------------------------------
 Center     Atomic      Atomic             Coordinates (Angstroms)
 Number     Number       Type             X           Y           Z
 ---------------------------------------------------------------------
      1          8           0       -3.628060   -1.432050   -0.213950
      2          7           0       -3.260650   -0.268940   -0.056880
      3          8           0       -4.035530    0.679280    0.074850
      4          6           0       -1.757010    0.005110   -0.042600
      5          6           0       -1.366780    1.314760    0.259970
      6          7           0       -0.080800    1.760760    0.420970
      7          6           0        1.200150    0.992860    0.375960
      8          1           0        1.870740    1.489910    1.124180
      9          6           0        1.950280    1.048420   -0.978320
     10          6           0        3.365030    0.463610   -0.804640
     11          6           0        3.311140   -0.953810   -0.212860
     12          6           0        2.476050   -0.991550    1.085230
     13          6           0        1.036040   -0.457580    0.853090
     14          1           0        0.495240   -0.499140    1.827550
     15          7           0        0.372030   -1.327050   -0.120290
     16          6           0       -0.872350   -1.132330   -0.409210
     17          1           0       -2.154560    2.066660    0.432730
     18          1           0        0.154110    2.747510    0.289080
     19          1           0        1.393680    0.472770   -1.748160
     20          1           0        2.031130    2.099410   -1.328370
     21          1           0        3.889770    0.442600   -1.784820
     22          1           0        3.948220    1.116720   -0.117640
     23          1           0        2.857450   -1.642090   -0.961310
     24          1           0        4.341790   -1.316590   -0.007030
     25          1           0        2.422940   -2.038710    1.455820
     26          1           0        2.976860   -0.381250    1.865720
     27          1           0       -1.375910   -1.896320   -1.021100
 ---------------------------------------------------------------------
                    Distance matrix (angstroms):
                    1          2          3          4          5
     1  O    0.000000
     2  N    1.229832   0.000000
     3  O    2.169597   1.231630   0.000000
     4  C    2.365506   1.528477   2.379066   0.000000
     5  C    3.589283   2.489025   2.749606   1.399647   0.000000
     6  N    4.814583   3.802561   4.114522   2.471211   1.370614
     7  C    5.435052   4.655988   5.253698   3.145733   2.589634
     8  H    6.369085   5.551542   6.053283   4.089814   3.355454
     9  C    6.152631   5.453282   6.088953   3.963340   3.550660
    10  C    7.269508   6.707862   7.455756   5.198675   4.924213
    11  C    6.955660   6.609221   7.531489   5.160878   5.220432
    12  C    6.256362   5.893752   6.798030   4.492675   4.557133
    13  C    4.882827   4.396041   5.255372   2.969423   3.044097
    14  H    4.694640   4.208418   4.998851   2.970582   3.035566
    15  N    4.002564   3.784175   4.846651   2.512667   3.185470
    16  C    2.778830   2.563895   3.677221   1.486875   2.584669
    17  H    3.851022   2.630243   2.364519   2.152666   1.102632
    18  H    5.659202   4.569381   4.677238   3.359040   2.089671
    19  H    5.585697   5.007330   5.730823   3.613100   3.515917
    20  H    6.763104   5.935377   6.386717   4.515451   3.832009
    21  H    7.905676   7.390573   8.144002   5.925610   5.707289
    22  H    7.994093   7.341087   7.998042   5.812999   5.332076
    23  H    6.531807   6.335194   7.346806   4.985031   5.298925
    24  H    7.973372   7.674448   8.612183   6.240474   6.291507
    25  H    6.306407   6.141949   7.141875   4.888194   5.199788
    26  H    7.003869   6.528058   7.314749   5.118641   4.931743
    27  H    2.437051   2.670268   3.861140   2.172127   3.457204
                    6          7          8          9         10
     6  N    0.000000
     7  C    1.494165   0.000000
     8  H    2.091978   1.120974   0.000000
     9  C    2.567241   1.549147   2.149825   0.000000
    10  C    3.880523   2.522028   2.646987   1.540677   0.000000
    11  C    4.390431   2.931299   3.135952   2.539054   1.536941
    12  C    3.814962   2.463507   2.554518   2.948924   2.545464
    13  C    2.520931   1.535696   2.136102   2.541246   3.003474
    14  H    2.723497   2.197743   2.518541   3.519231   4.011360
    15  N    3.167426   2.512773   3.424923   2.978246   3.554272
    16  C    3.112189   3.070534   4.092917   3.612035   4.545193
    17  H    2.096233   3.522832   4.124777   4.458429   5.879348
    18  H    1.022865   2.044638   2.285994   2.778387   4.089307
    19  H    2.922009   2.195412   3.084234   1.110779   2.185528
    20  H    2.763173   2.195386   2.532236   1.110699   2.174724
    21  H    4.729533   3.493682   3.692644   2.186111   1.112001
    22  H    4.115567   2.794794   2.448941   2.176511   1.112939
    23  H    4.703552   3.387904   3.890024   2.839382   2.171671
    24  H    5.404865   3.917926   3.906682   3.500857   2.181594
    25  H    4.666433   3.442634   3.586930   3.959649   3.501260
    26  H    4.003098   2.695229   2.296655   3.344606   2.827594
    27  H    4.138975   4.115243   5.158441   4.442619   5.300249
                   11         12         13         14         15
    11  C    0.000000
    12  C    1.543968   0.000000
    13  C    2.560971   1.553268   0.000000
    14  H    3.507034   2.171892   1.115242   0.000000
    15  N    2.964160   2.448007   1.464362   2.120070   0.000000
    16  C    4.191898   3.669462   2.385506   2.697096   1.292235
    17  H    6.278049   5.587571   4.090039   3.943386   4.266938
    18  H    4.890660   4.472788   3.371722   3.608877   4.100867
    19  H    2.840586   3.368064   2.785670   3.812808   2.633075
    20  H    3.493557   3.946828   3.505306   4.367064   3.994083
    21  H    2.180787   3.506077   3.989069   5.045684   4.275139
    22  H    2.168417   2.838835   3.449859   4.279934   4.331415
    23  H    1.113437   2.181053   2.830662   3.829375   2.642703
    24  H    1.111852   2.186245   3.522171   4.339338   3.971389
    25  H    2.179541   1.112071   2.187864   2.494892   2.682688
    26  H    2.181757   1.110154   2.190440   2.484712   3.409386
    27  H    4.848713   4.482503   3.376398   3.683493   2.047150
                   16         17         18         19         20
    16  C    0.000000
    17  H    3.547740   0.000000
    18  H    4.073621   2.411255   0.000000
    19  H    3.082860   4.459459   3.295652   0.000000
    20  H    4.440630   4.541205   2.561129   1.796809   0.000000
    21  H    5.201009   6.639957   4.854774   2.496542   2.531385
    22  H    5.327395   6.200743   4.149719   3.098216   2.471190
    23  H    3.804744   6.388929   5.304725   2.689682   3.849203
    24  H    5.232873   7.337733   5.843052   3.863249   4.330606
    25  H    3.893430   6.233320   5.423723   4.199095   5.002926
    26  H    4.533855   5.863207   4.499206   4.036823   4.153347
    27  H    1.100756   4.292450   5.061886   3.716427   5.260057
                   21         22         23         24         25
    21  H    0.000000
    22  H    1.799262   0.000000
    23  H    2.467749   3.084249   0.000000
    24  H    2.541576   2.467414   1.794398   0.000000
    25  H    4.337077   3.841744   2.487694   2.518605   0.000000
    26  H    3.852087   2.668552   3.097753   2.499017   1.794998
    27  H    5.812160   6.183932   4.241408   5.835796   4.537253
                   26         27
    26  H    0.000000
    27  H    5.438361   0.000000
 Symmetry turned off by external request.
 Stoichiometry    C9H13N3O2
 Framework group  C1[X(C9H13N3O2)]
 Deg. of freedom    75
 Full point group                 C1      NOp   1
 Rotational constants (GHZ):           1.6721920           0.3998085           0.3549660
 Standard basis: 6-31G(d) (6D, 7F)
   236 basis functions,   444 primitive gaussians,   236 cartesian basis functions
    52 alpha electrons       52 beta electrons
       nuclear repulsion energy       917.2318837391 Hartrees.
 NAtoms=   27 NActive=   27 NUniq=   27 SFac= 1.00D+00 NAtFMM=   60 NAOKFM=F Big=F
 Integral buffers will be    131072 words long.
 Raffenetti 1 integral format.
 Two-electron integral symmetry is turned off.
 One-electron integrals computed using PRISM.
 NBasis=   236 RedAO= T EigKep=  1.27D-03  NBF=   236
 NBsUse=   236 1.00D-06 EigRej= -1.00D+00 NBFU=   236
 ExpMin= 1.61D-01 ExpMax= 5.48D+03 ExpMxC= 8.25D+02 IAcc=3 IRadAn=         5 AccDes= 0.00D+00
 Harris functional with IExCor=  205 and IRadAn=       5 diagonalized for initial guess.
 HarFok:  IExCor=  205 AccDes= 0.00D+00 IRadAn=         5 IDoV= 1 UseB2=F ITyADJ=14
 ICtDFT=  3500011 ScaDFX=  1.000000  1.000000  1.000000  1.000000
 FoFCou: FMM=F IPFlag=           0 FMFlag=      100000 FMFlg1=           0
         NFxFlg=           0 DoJE=T BraDBF=F KetDBF=T FulRan=T
         wScrn=  0.000000 ICntrl=       500 IOpCl=  0 I1Cent=   200000004 NGrid=           0
         NMat0=    1 NMatS0=      1 NMatT0=    0 NMatD0=    1 NMtDS0=    0 NMtDT0=    0
 Symmetry not used in FoFCou.
 Keep R1 ints in memory in canonical form, NReq=397720213.
 Requested convergence on RMS density matrix=1.00D-08 within 128 cycles.
 Requested convergence on MAX density matrix=1.00D-06.
 Requested convergence on             energy=1.00D-06.
 No special actions if energy rises.
 SCF Done:  E(RHF) =  -661.281843304     A.U. after   16 cycles
            NFock= 16  Conv=0.76D-08     -V/T= 2.0037
 ExpMin= 1.61D-01 ExpMax= 5.48D+03 ExpMxC= 8.25D+02 IAcc=3 IRadAn=         5 AccDes= 0.00D+00
 HarFok:  IExCor=  205 AccDes= 0.00D+00 IRadAn=         5 IDoV=-2 UseB2=F ITyADJ=14
 ICtDFT= 12500011 ScaDFX=  1.000000  1.000000  1.000000  1.000000
 Range of M.O.s used for correlation:    15   236
 NBasis=   236 NAE=    52 NBE=    52 NFC=    14 NFV=     0
 NROrb=    222 NOA=    38 NOB=    38 NVA=   184 NVB=   184
 Fully direct method using O(ONN) memory.
 JobTyp=1 Pass  1:  I=  15 to  52 NPSUse=  4 ParTrn=T ParDer=T DoDerP=T.
 Spin components of T(2) and E(2):
     alpha-alpha T2 =       0.9198632760D-01 E2=     -0.2717766233D+00
     alpha-beta  T2 =       0.4995494044D+00 E2=     -0.1493624159D+01
     beta-beta   T2 =       0.9198632760D-01 E2=     -0.2717766233D+00
 ANorm=    0.1297506092D+01
 E2 =    -0.2037177406D+01 EUMP2 =    -0.66331902070931D+03
          IDoAtm=111111111111111111111111111
          Differentiating once with respect to electric field.
                with respect to dipole field.
          Differentiating once with respect to nuclear coordinates.
 Keep R1 ints in memory in canonical form, NReq=397723379.
          There are     1 degrees of freedom in the 1st order CPHF.  IDoFFX=0 NUNeed=     1.
 LinEq1:  Iter=  0 NonCon=     1 RMS=4.62D-03 Max=1.13D-01 NDo=     1
 AX will form     1 AO Fock derivatives at one time.
 LinEq1:  Iter=  1 NonCon=     1 RMS=1.57D-03 Max=2.78D-02 NDo=     1
 LinEq1:  Iter=  2 NonCon=     1 RMS=6.42D-04 Max=1.82D-02 NDo=     1
 LinEq1:  Iter=  3 NonCon=     1 RMS=2.94D-04 Max=9.17D-03 NDo=     1
 LinEq1:  Iter=  4 NonCon=     1 RMS=9.04D-05 Max=2.12D-03 NDo=     1
 LinEq1:  Iter=  5 NonCon=     1 RMS=3.74D-05 Max=1.86D-03 NDo=     1
 LinEq1:  Iter=  6 NonCon=     1 RMS=1.53D-05 Max=5.79D-04 NDo=     1
 LinEq1:  Iter=  7 NonCon=     1 RMS=5.89D-06 Max=9.84D-05 NDo=     1
 LinEq1:  Iter=  8 NonCon=     1 RMS=2.35D-06 Max=5.84D-05 NDo=     1
 LinEq1:  Iter=  9 NonCon=     1 RMS=8.69D-07 Max=2.48D-05 NDo=     1
 LinEq1:  Iter= 10 NonCon=     1 RMS=4.26D-07 Max=1.49D-05 NDo=     1
 LinEq1:  Iter= 11 NonCon=     1 RMS=1.52D-07 Max=5.71D-06 NDo=     1
 LinEq1:  Iter= 12 NonCon=     1 RMS=5.35D-08 Max=7.90D-07 NDo=     1
 LinEq1:  Iter= 13 NonCon=     1 RMS=1.68D-08 Max=2.96D-07 NDo=     1
 LinEq1:  Iter= 14 NonCon=     1 RMS=5.20D-09 Max=1.27D-07 NDo=     1
 LinEq1:  Iter= 15 NonCon=     1 RMS=1.91D-09 Max=4.47D-08 NDo=     1
 LinEq1:  Iter= 16 NonCon=     1 RMS=7.25D-10 Max=1.31D-08 NDo=     1
 LinEq1:  Iter= 17 NonCon=     1 RMS=2.44D-10 Max=3.88D-09 NDo=     1
 LinEq1:  Iter= 18 NonCon=     1 RMS=8.50D-11 Max=1.06D-09 NDo=     1
 LinEq1:  Iter= 19 NonCon=     0 RMS=2.87D-11 Max=3.97D-10 NDo=     1
 Linear equations converged to 1.000D-10 1.000D-09 after    19 iterations.
 End of Minotr F.D. properties file   721 does not exist.
 End of Minotr F.D. properties file   722 does not exist.
 End of Minotr F.D. properties file   788 does not exist.

 **********************************************************************

            Population analysis using the SCF Density.

 **********************************************************************

 Alpha  occ. eigenvalues --  -20.59802 -20.59376 -15.85268 -15.63523 -15.56698
 Alpha  occ. eigenvalues --  -11.35924 -11.30446 -11.30106 -11.30056 -11.27662
 Alpha  occ. eigenvalues --  -11.24652 -11.23894 -11.23385 -11.22853  -1.58464
 Alpha  occ. eigenvalues --   -1.37963  -1.28676  -1.22690  -1.13290  -1.08380
 Alpha  occ. eigenvalues --   -1.01810  -1.00695  -0.93625  -0.88955  -0.84945
 Alpha  occ. eigenvalues --   -0.81539  -0.78004  -0.76993  -0.74350  -0.71167
 Alpha  occ. eigenvalues --   -0.70301  -0.69767  -0.67385  -0.64336  -0.63248
 Alpha  occ. eigenvalues --   -0.61717  -0.60240  -0.57408  -0.56516  -0.54876
 Alpha  occ. eigenvalues --   -0.53726  -0.50707  -0.49477  -0.48485  -0.47830
 Alpha  occ. eigenvalues --   -0.47693  -0.46184  -0.45671  -0.44003  -0.42096
 Alpha  occ. eigenvalues --   -0.39804  -0.33737
 Alpha virt. eigenvalues --    0.07447   0.11801   0.17970   0.21387   0.23443
 Alpha virt. eigenvalues --    0.24318   0.26350   0.27899   0.28546   0.28871
 Alpha virt. eigenvalues --    0.29877   0.31126   0.31835   0.32303   0.33322
 Alpha virt. eigenvalues --    0.33809   0.34273   0.35467   0.37599   0.38587
 Alpha virt. eigenvalues --    0.40575   0.41621   0.44286   0.45236   0.45591
 Alpha virt. eigenvalues --    0.46258   0.49753   0.53203   0.57549   0.59003
 Alpha virt. eigenvalues --    0.63316   0.69052   0.69198   0.72233   0.74045
 Alpha virt. eigenvalues --    0.74890   0.75658   0.75856   0.77888   0.79118
 Alpha virt. eigenvalues --    0.80576   0.83599   0.84871   0.85374   0.87932
 Alpha virt. eigenvalues --    0.89035   0.90286   0.90728   0.91892   0.93909
 Alpha virt. eigenvalues --    0.95060   0.97231   0.98983   1.00450   1.01969
 Alpha virt. eigenvalues --    1.02778   1.05059   1.06513   1.07031   1.08718
 Alpha virt. eigenvalues --    1.09625   1.10476   1.11481   1.12046   1.13245
 Alpha virt. eigenvalues --    1.13847   1.14108   1.15508   1.16312   1.17173
 Alpha virt. eigenvalues --    1.18041   1.20093   1.21350   1.22351   1.23026
 Alpha virt. eigenvalues --    1.23728   1.24313   1.25455   1.26949   1.27611
 Alpha virt. eigenvalues --    1.29332   1.31407   1.33161   1.36255   1.39549
 Alpha virt. eigenvalues --    1.42953   1.46576   1.47354   1.49822   1.52913
 Alpha virt. eigenvalues --    1.55439   1.55635   1.59970   1.61566   1.66009
 Alpha virt. eigenvalues --    1.68418   1.70352   1.72548   1.73560   1.76486
 Alpha virt. eigenvalues --    1.77934   1.80328   1.84417   1.89154   1.92307
 Alpha virt. eigenvalues --    1.93747   1.96041   1.97523   1.99090   2.00969
 Alpha virt. eigenvalues --    2.02906   2.03671   2.06014   2.08976   2.11881
 Alpha virt. eigenvalues --    2.12982   2.13333   2.17696   2.18769   2.19572
 Alpha virt. eigenvalues --    2.20596   2.22084   2.24005   2.25151   2.26214
 Alpha virt. eigenvalues --    2.29355   2.32112   2.33176   2.35481   2.36083
 Alpha virt. eigenvalues --    2.38855   2.39894   2.41787   2.43370   2.46434
 Alpha virt. eigenvalues --    2.48674   2.50316   2.50533   2.56693   2.57201
 Alpha virt. eigenvalues --    2.60667   2.63075   2.65752   2.68534   2.68902
 Alpha virt. eigenvalues --    2.69564   2.69960   2.74601   2.76848   2.81016
 Alpha virt. eigenvalues --    2.84776   2.86808   2.89932   2.91282   2.95099
 Alpha virt. eigenvalues --    2.97555   2.98399   3.02201   3.03936   3.05737
 Alpha virt. eigenvalues --    3.07143   3.13075   3.18948   3.22784   3.27181
 Alpha virt. eigenvalues --    3.31110   3.33854   3.37423   3.43310   3.60165
 Alpha virt. eigenvalues --    4.10176   4.23349   4.31999   4.36521   4.43308
 Alpha virt. eigenvalues --    4.52561   4.59574   4.60268   4.70814   4.77710
 Alpha virt. eigenvalues --    4.96638   4.99240   5.02998   5.09856
          Condensed to atoms (all electrons):
               1          2          3          4          5          6
     1  O    8.300195   0.312969  -0.089818  -0.079088   0.003543  -0.000012
     2  N    0.312969   5.681202   0.309469   0.265966  -0.046767   0.000818
     3  O   -0.089818   0.309469   8.331322  -0.087755   0.008032   0.000468
     4  C   -0.079088   0.265966  -0.087755   5.247686   0.566565  -0.047698
     5  C    0.003543  -0.046767   0.008032   0.566565   4.672662   0.308352
     6  N   -0.000012   0.000818   0.000468  -0.047698   0.308352   7.183164
     7  C    0.000002  -0.000093   0.000002   0.004512  -0.029013   0.199275
     8  H   -0.000000   0.000002  -0.000000  -0.000209   0.002498  -0.049060
     9  C   -0.000000  -0.000003   0.000000   0.000516   0.001407  -0.056639
    10  C   -0.000000   0.000000  -0.000000  -0.000021  -0.000056   0.003344
    11  C   -0.000000  -0.000000  -0.000000  -0.000013   0.000015  -0.000154
    12  C   -0.000000   0.000001  -0.000000  -0.000131  -0.000141   0.003635
    13  C   -0.000018  -0.000019  -0.000002  -0.009946   0.000406  -0.045565
    14  H   -0.000002  -0.000055   0.000000   0.002812   0.004466  -0.005535
    15  N    0.000221   0.001629  -0.000013  -0.061503  -0.003689   0.001857
    16  C    0.003179  -0.026106   0.001972   0.317345  -0.041641  -0.000952
    17  H    0.000132  -0.004292   0.012308  -0.026166   0.376433  -0.033514
    18  H    0.000000  -0.000035   0.000008   0.001065  -0.024788   0.328810
    19  H    0.000000  -0.000000   0.000000  -0.000835   0.000778   0.000496
    20  H    0.000000  -0.000000   0.000000  -0.000028   0.000026  -0.001504
    21  H   -0.000000  -0.000000   0.000000   0.000000   0.000001  -0.000060
    22  H   -0.000000   0.000000  -0.000000  -0.000000  -0.000002  -0.000097
    23  H    0.000000  -0.000000   0.000000   0.000025  -0.000000  -0.000024
    24  H    0.000000   0.000000   0.000000   0.000000  -0.000000   0.000005
    25  H    0.000000  -0.000000   0.000000   0.000019  -0.000001  -0.000072
    26  H    0.000000  -0.000000   0.000000   0.000005  -0.000001  -0.000068
    27  H    0.005558  -0.000263   0.000009  -0.066683   0.002098   0.000032
               7          8          9         10         11         12
     1  O    0.000002  -0.000000  -0.000000  -0.000000  -0.000000  -0.000000
     2  N   -0.000093   0.000002  -0.000003   0.000000  -0.000000   0.000001
     3  O    0.000002  -0.000000   0.000000  -0.000000  -0.000000  -0.000000
     4  C    0.004512  -0.000209   0.000516  -0.000021  -0.000013  -0.000131
     5  C   -0.029013   0.002498   0.001407  -0.000056   0.000015  -0.000141
     6  N    0.199275  -0.049060  -0.056639   0.003344  -0.000154   0.003635
     7  C    5.010411   0.416026   0.341210  -0.049356  -0.007769  -0.064449
     8  H    0.416026   0.545964  -0.059971   0.001365  -0.000309  -0.002892
     9  C    0.341210  -0.059971   5.180127   0.318174  -0.053129  -0.006078
    10  C   -0.049356   0.001365   0.318174   5.126768   0.332732  -0.060258
    11  C   -0.007769  -0.000309  -0.053129   0.332732   5.124228   0.330576
    12  C   -0.064449  -0.002892  -0.006078  -0.060258   0.330576   5.137613
    13  C    0.329919  -0.039750  -0.051393  -0.001555  -0.047837   0.368588
    14  H   -0.040410  -0.000949   0.003855  -0.000390   0.003961  -0.040796
    15  N   -0.058625   0.004018  -0.012760   0.001427  -0.007736  -0.074480
    16  C   -0.002084   0.000004  -0.000788  -0.000034   0.000005   0.002397
    17  H    0.001403  -0.000023  -0.000066   0.000001   0.000000   0.000001
    18  H   -0.028820  -0.002929   0.000859  -0.000119   0.000011  -0.000140
    19  H   -0.035052   0.004066   0.386353  -0.032649  -0.002234   0.000612
    20  H   -0.041760  -0.001840   0.397190  -0.037296   0.004134  -0.000366
    21  H    0.004052  -0.000079  -0.035836   0.400119  -0.035817   0.004215
    22  H   -0.004269   0.003511  -0.045692   0.395952  -0.045619  -0.001218
    23  H    0.000441   0.000033  -0.002004  -0.040090   0.396666  -0.036584
    24  H   -0.000142  -0.000100   0.004399  -0.038491   0.400303  -0.037872
    25  H    0.005010  -0.000007  -0.000372   0.004097  -0.033864   0.395303
    26  H   -0.004450   0.001571   0.001056  -0.002411  -0.042353   0.394622
    27  H   -0.000401   0.000009  -0.000058   0.000005   0.000005  -0.000019
              13         14         15         16         17         18
     1  O   -0.000018  -0.000002   0.000221   0.003179   0.000132   0.000000
     2  N   -0.000019  -0.000055   0.001629  -0.026106  -0.004292  -0.000035
     3  O   -0.000002   0.000000  -0.000013   0.001972   0.012308   0.000008
     4  C   -0.009946   0.002812  -0.061503   0.317345  -0.026166   0.001065
     5  C    0.000406   0.004466  -0.003689  -0.041641   0.376433  -0.024788
     6  N   -0.045565  -0.005535   0.001857  -0.000952  -0.033514   0.328810
     7  C    0.329919  -0.040410  -0.058625  -0.002084   0.001403  -0.028820
     8  H   -0.039750  -0.000949   0.004018   0.000004  -0.000023  -0.002929
     9  C   -0.051393   0.003855  -0.012760  -0.000788  -0.000066   0.000859
    10  C   -0.001555  -0.000390   0.001427  -0.000034   0.000001  -0.000119
    11  C   -0.047837   0.003961  -0.007736   0.000005   0.000000   0.000011
    12  C    0.368588  -0.040796  -0.074480   0.002397   0.000001  -0.000140
    13  C    5.021939   0.403171   0.240880  -0.069321  -0.000042   0.003757
    14  H    0.403171   0.518755  -0.035716  -0.004915   0.000054   0.000006
    15  N    0.240880  -0.035716   6.940196   0.588151  -0.000055  -0.000120
    16  C   -0.069321  -0.004915   0.588151   4.698219   0.001643  -0.000206
    17  H   -0.000042   0.000054  -0.000055   0.001643   0.384662  -0.001987
    18  H    0.003757   0.000006  -0.000120  -0.000206  -0.001987   0.325188
    19  H   -0.006183   0.000064   0.006900   0.002485   0.000011  -0.000129
    20  H    0.003878  -0.000050   0.000081  -0.000032  -0.000002   0.002738
    21  H   -0.000383   0.000009  -0.000031   0.000002  -0.000000  -0.000000
    22  H    0.000316  -0.000044   0.000003  -0.000001   0.000000   0.000002
    23  H   -0.005911   0.000008   0.006818   0.000071   0.000000   0.000000
    24  H    0.004148  -0.000058   0.000041   0.000005   0.000000  -0.000000
    25  H   -0.034396  -0.002663   0.000860  -0.000060  -0.000000   0.000002
    26  H   -0.044904  -0.000895   0.004203  -0.000049   0.000000  -0.000001
    27  H    0.004864  -0.000170  -0.039973   0.402779  -0.000060   0.000002
              19         20         21         22         23         24
     1  O    0.000000   0.000000  -0.000000  -0.000000   0.000000   0.000000
     2  N   -0.000000  -0.000000  -0.000000   0.000000  -0.000000   0.000000
     3  O    0.000000   0.000000   0.000000  -0.000000   0.000000   0.000000
     4  C   -0.000835  -0.000028   0.000000  -0.000000   0.000025   0.000000
     5  C    0.000778   0.000026   0.000001  -0.000002  -0.000000  -0.000000
     6  N    0.000496  -0.001504  -0.000060  -0.000097  -0.000024   0.000005
     7  C   -0.035052  -0.041760   0.004052  -0.004269   0.000441  -0.000142
     8  H    0.004066  -0.001840  -0.000079   0.003511   0.000033  -0.000100
     9  C    0.386353   0.397190  -0.035836  -0.045692  -0.002004   0.004399
    10  C   -0.032649  -0.037296   0.400119   0.395952  -0.040090  -0.038491
    11  C   -0.002234   0.004134  -0.035817  -0.045619   0.396666   0.400303
    12  C    0.000612  -0.000366   0.004215  -0.001218  -0.036584  -0.037872
    13  C   -0.006183   0.003878  -0.000383   0.000316  -0.005911   0.004148
    14  H    0.000064  -0.000050   0.000009  -0.000044   0.000008  -0.000058
    15  N    0.006900   0.000081  -0.000031   0.000003   0.006818   0.000041
    16  C    0.002485  -0.000032   0.000002  -0.000001   0.000071   0.000005
    17  H    0.000011  -0.000002  -0.000000   0.000000   0.000000   0.000000
    18  H   -0.000129   0.002738  -0.000000   0.000002   0.000000  -0.000000
    19  H    0.506495  -0.023977  -0.002590   0.003756   0.001642  -0.000070
    20  H   -0.023977   0.549757  -0.002625  -0.002960  -0.000049  -0.000090
    21  H   -0.002590  -0.002625   0.525927  -0.024685  -0.002810  -0.002063
    22  H    0.003756  -0.002960  -0.024685   0.568983   0.004060  -0.003594
    23  H    0.001642  -0.000049  -0.002810   0.004060   0.509426  -0.024980
    24  H   -0.000070  -0.000090  -0.002063  -0.003594  -0.024980   0.541033
    25  H   -0.000027   0.000011  -0.000086  -0.000082  -0.002084  -0.002386
    26  H    0.000022  -0.000035  -0.000074   0.002463   0.003821  -0.002761
    27  H    0.000075   0.000000  -0.000000   0.000000  -0.000022  -0.000000
              25         26         27
     1  O    0.000000   0.000000   0.005558
     2  N   -0.000000  -0.000000  -0.000263
     3  O    0.000000   0.000000   0.000009
     4  C    0.000019   0.000005  -0.066683
     5  C   -0.000001  -0.000001   0.002098
     6  N   -0.000072  -0.000068   0.000032
     7  C    0.005010  -0.004450  -0.000401
     8  H   -0.000007   0.001571   0.000009
     9  C   -0.000372   0.001056  -0.000058
    10  C    0.004097  -0.002411   0.000005
    11  C   -0.033864  -0.042353   0.000005
    12  C    0.395303   0.394622  -0.000019
    13  C   -0.034396  -0.044904   0.004864
    14  H   -0.002663  -0.000895  -0.000170
    15  N    0.000860   0.004203  -0.039973
    16  C   -0.000060  -0.000049   0.402779
    17  H   -0.000000   0.000000  -0.000060
    18  H    0.000002  -0.000001   0.000002
    19  H   -0.000027   0.000022   0.000075
    20  H    0.000011  -0.000035   0.000000
    21  H   -0.000086  -0.000074  -0.000000
    22  H   -0.000082   0.002463   0.000000
    23  H   -0.002084   0.003821  -0.000022
    24  H   -0.002386  -0.002761  -0.000000
    25  H    0.510152  -0.023105  -0.000011
    26  H   -0.023105   0.561525   0.000001
    27  H   -0.000011   0.000001   0.451137
 Mulliken charges:
               1
     1  O   -0.456862
     2  N    0.505577
     3  O   -0.486003
     4  C   -0.026441
     5  C    0.198817
     6  N   -0.789301
     7  C    0.054431
     8  H    0.179052
     9  C   -0.310358
    10  C   -0.321259
    11  C   -0.315800
    12  C   -0.312138
    13  C   -0.024641
    14  H    0.195488
    15  N   -0.502584
    16  C    0.127932
    17  H    0.289557
    18  H    0.396826
    19  H    0.189991
    20  H    0.154800
    21  H    0.172813
    22  H    0.149217
    23  H    0.191547
    24  H    0.162675
    25  H    0.183760
    26  H    0.151819
    27  H    0.241087
 Sum of Mulliken charges =  -0.00000
 Mulliken charges with hydrogens summed into heavy atoms:
               1
     1  O   -0.456862
     2  N    0.505577
     3  O   -0.486003
     4  C   -0.026441
     5  C    0.488373
     6  N   -0.392475
     7  C    0.233482
     9  C    0.034432
    10  C    0.000771
    11  C    0.038422
    12  C    0.023441
    13  C    0.170847
    15  N   -0.502584
    16  C    0.369019
 Electronic spatial extent (au):  <R**2>=           3128.2669
 Charge=              0.0000 electrons
 Dipole moment (field-independent basis, Debye):
    X=              5.3935    Y=              4.5294    Z=              0.5836  Tot=              7.0672
 Quadrupole moment (field-independent basis, Debye-Ang):
   XX=           -105.5432   YY=            -80.0904   ZZ=            -82.3495
   XY=             -1.7186   XZ=              0.6225   YZ=              0.1614
 Traceless Quadrupole moment (field-independent basis, Debye-Ang):
   XX=            -16.2155   YY=              9.2373   ZZ=              6.9782
   XY=             -1.7186   XZ=              0.6225   YZ=              0.1614
 Octapole moment (field-independent basis, Debye-Ang**2):
  XXX=            102.0658  YYY=             36.6819  ZZZ=             -4.8075  XYY=             -1.5839
  XXY=             11.3005  XXZ=              1.4084  XZZ=             -7.9784  YZZ=             -2.8581
  YYZ=              1.4491  XYZ=             -1.0731
 Hexadecapole moment (field-independent basis, Debye-Ang**3):
 XXXX=          -3564.4526 YYYY=           -618.9995 ZZZZ=           -299.7702 XXXY=            -36.8233
 XXXZ=             10.9926 YYYX=            -17.2756 YYYZ=             13.2393 ZZZX=             13.4241
 ZZZY=              8.2829 XXYY=           -657.0540 XXZZ=           -544.2504 YYZZ=           -164.8950
 XXYZ=              2.2395 YYXZ=              7.7557 ZZXY=              3.2066
 N-N= 9.172318837391D+02 E-N=-3.380474851396D+03  KE= 6.588553511267D+02
 Calling FoFJK, ICntrl=  10002127 FMM=F ISym2X=0 I1Cent= 0 IOpClX= 0 NMat=1 NMatS=1 NMatT=0.
 -------------------------------------------------------------------
 Center     Atomic                   Forces (Hartrees/Bohr)
 Number     Number              X              Y              Z
 -------------------------------------------------------------------
      1        8           0.002261121   -0.019166808   -0.002676672
      2        7           0.039600477    0.013386687   -0.001515809
      3        8          -0.005115929    0.016030189    0.003277992
      4        6          -0.003179439    0.007577789    0.008878046
      5        6           0.003616322   -0.016092789   -0.004041907
      6        7           0.014605414   -0.008685354   -0.007764321
      7        6          -0.004971984    0.004832346    0.003235974
      8        1          -0.010523026   -0.001623911   -0.007578387
      9        6          -0.003953922    0.000440515   -0.002148251
     10        6           0.002805859   -0.000957767    0.000961986
     11        6          -0.000979864   -0.004575923   -0.002340894
     12        6           0.000729477   -0.008865525   -0.002935016
     13        6           0.008888706   -0.001767881    0.004162367
     14        1           0.001021603    0.004354598   -0.009913625
     15        7           0.000528063   -0.000540029    0.003279797
     16        6          -0.021147347    0.008716208    0.001957534
     17        1           0.007421480   -0.006608084   -0.004405538
     18        1          -0.017855433   -0.001857247    0.004908348
     19        1           0.003142804    0.005833960    0.007673888
     20        1          -0.003196071   -0.007408172    0.002629360
     21        1          -0.004258799    0.002397746    0.009658529
     22        1          -0.004065591   -0.003964501   -0.007352489
     23        1           0.004036468    0.006111529    0.009266528
     24        1          -0.009405057    0.002598897   -0.002038448
     25        1          -0.000828056    0.010600386   -0.002417050
     26        1          -0.004787732   -0.004783570   -0.004311927
     27        1           0.005610457    0.004016710    0.001549988
 -------------------------------------------------------------------
 Cartesian Forces:  Max     0.039600477 RMS     0.008353835

 GradGradGradGradGradGradGradGradGradGradGradGradGradGradGradGradGradGrad
 Berny optimization.
 FormGI is forming the generalized inverse of G from B-inverse, IUseBI=4.
 Internal  Forces:  Max     0.037977835 RMS     0.006925170
 Search for a local minimum.
 Step number   1 out of a maximum of   20
 All quantities printed in internal units (Hartrees-Bohrs-Radians)
 Mixed Optimization -- RFO/linear search
 Second derivative matrix not updated -- first step.
 ITU=  0
     Eigenvalues ---    0.00231   0.00772   0.01059   0.01155   0.01207
     Eigenvalues ---    0.01528   0.01543   0.01676   0.01970   0.02020
     Eigenvalues ---    0.02691   0.03669   0.04507   0.04695   0.04837
     Eigenvalues ---    0.05077   0.05139   0.05304   0.05885   0.06256
     Eigenvalues ---    0.07208   0.07696   0.07717   0.07857   0.07993
     Eigenvalues ---    0.08047   0.08050   0.10455   0.11725   0.12254
     Eigenvalues ---    0.13382   0.14949   0.15593   0.15983   0.16000
     Eigenvalues ---    0.20002   0.22042   0.23165   0.24973   0.25000
     Eigenvalues ---    0.25000   0.25366   0.26216   0.26649   0.27978
     Eigenvalues ---    0.28082   0.28456   0.29565   0.31465   0.31740
     Eigenvalues ---    0.32051   0.32239   0.32291   0.32382   0.32389
     Eigenvalues ---    0.32405   0.32518   0.32526   0.32584   0.33346
     Eigenvalues ---    0.33393   0.33599   0.35295   0.43884   0.44250
     Eigenvalues ---    0.49280   0.67063   0.90410   0.911571000.00000
     Eigenvalues --- 1000.000001000.000001000.000001000.000001000.00000
     Eigenvalues --- 1000.000001000.000001000.000001000.000001000.00000
     Eigenvalues --- 1000.000001000.000001000.000001000.000001000.00000
     Eigenvalues --- 1000.000001000.000001000.000001000.000001000.00000
     Eigenvalues --- 1000.000001000.000001000.000001000.000001000.00000
     Eigenvalues --- 1000.000001000.000001000.000001000.000001000.00000
     Eigenvalues --- 1000.000001000.000001000.000001000.000001000.00000
     Eigenvalues --- 1000.000001000.000001000.000001000.000001000.00000
     Eigenvalues --- 1000.000001000.000001000.000001000.000001000.00000
     Eigenvalues --- 1000.000001000.000001000.000001000.000001000.00000
     Eigenvalues --- 1000.000001000.000001000.000001000.000001000.00000
     Eigenvalues --- 1000.000001000.000001000.000001000.000001000.00000
     Eigenvalues --- 1000.000001000.000001000.000001000.000001000.00000
     Eigenvalues --- 1000.000001000.000001000.000001000.000001000.00000
     Eigenvalues --- 1000.000001000.000001000.000001000.000001000.00000
     Eigenvalues --- 1000.000001000.000001000.000001000.000001000.00000
     Eigenvalues --- 1000.000001000.000001000.000001000.000001000.00000
     Eigenvalues --- 1000.000001000.000001000.000001000.000001000.00000
     Eigenvalues --- 1000.00000
 RFO step:  Lambda=-2.38160578D-02 EMin= 2.30554386D-03
 Linear search not attempted -- first point.
 Iteration  1 RMS(Cart)=  0.05596760 RMS(Int)=  0.00110363
 Iteration  2 RMS(Cart)=  0.00120948 RMS(Int)=  0.00030439
 Iteration  3 RMS(Cart)=  0.00000076 RMS(Int)=  0.00030439
 Iteration  1 RMS(Cart)=  0.00004786 RMS(Int)=  0.00003812
 Iteration  2 RMS(Cart)=  0.00002801 RMS(Int)=  0.00004194
 Iteration  3 RMS(Cart)=  0.00001734 RMS(Int)=  0.00004750
 Iteration  4 RMS(Cart)=  0.00001147 RMS(Int)=  0.00005209
 Iteration  5 RMS(Cart)=  0.00000817 RMS(Int)=  0.00005560
 Iteration  6 RMS(Cart)=  0.00000625 RMS(Int)=  0.00005830
 Iteration  7 RMS(Cart)=  0.00000503 RMS(Int)=  0.00006041
 Iteration  8 RMS(Cart)=  0.00000419 RMS(Int)=  0.00006210
 Iteration  9 RMS(Cart)=  0.00000354 RMS(Int)=  0.00006349
 Iteration 10 RMS(Cart)=  0.00000302 RMS(Int)=  0.00006463
 Iteration 11 RMS(Cart)=  0.00000258 RMS(Int)=  0.00006560
 Iteration 12 RMS(Cart)=  0.00000221 RMS(Int)=  0.00006641
 Iteration 13 RMS(Cart)=  0.00000189 RMS(Int)=  0.00006711
 Iteration 14 RMS(Cart)=  0.00000161 RMS(Int)=  0.00006770
 Iteration 15 RMS(Cart)=  0.00000138 RMS(Int)=  0.00006820
 Iteration 16 RMS(Cart)=  0.00000118 RMS(Int)=  0.00006863
 Iteration 17 RMS(Cart)=  0.00000101 RMS(Int)=  0.00006900
 Iteration 18 RMS(Cart)=  0.00000086 RMS(Int)=  0.00006932
 Variable       Old X    -DE/DX   Delta X   Delta X   Delta X     New X
                                 (Linear)    (Quad)   (Total)
    R1        2.32405   0.01779   0.00000   0.01902   0.01902   2.34307
    R2        2.32744   0.01591   0.00000   0.01715   0.01715   2.34459
    R3        2.88840  -0.03798   0.00000  -0.11888  -0.11888   2.76952
    R4        2.64495  -0.03428   0.00000  -0.07410  -0.07384   2.57111
    R5        2.80979  -0.02242   0.00000  -0.06440  -0.06411   2.74568
    R6        2.59008  -0.02527   0.00000  -0.04882  -0.04875   2.54133
    R7        2.08367  -0.01050   0.00000  -0.02935  -0.02935   2.05433
    R8        2.82356  -0.01933   0.00000  -0.05346  -0.05361   2.76995
    R9        1.93294  -0.00653   0.00000  -0.01410  -0.01410   1.91883
   R10        2.11833  -0.01207   0.00000  -0.03567  -0.03567   2.08266
   R11        2.92746  -0.01296   0.00000  -0.04395  -0.04399   2.88347
   R12        2.90204  -0.00387   0.00000  -0.00704  -0.00703   2.89501
   R13        2.91146  -0.00455   0.00000  -0.01432  -0.01435   2.89711
   R14        2.09907  -0.00992   0.00000  -0.02842  -0.02842   2.07065
   R15        2.09892  -0.00807   0.00000  -0.02312  -0.02312   2.07579
   R16        2.90440  -0.00179   0.00000  -0.00717  -0.00722   2.89718
   R17        2.10138  -0.01057   0.00000  -0.03039  -0.03039   2.07098
   R18        2.10315  -0.00900   0.00000  -0.02594  -0.02594   2.07720
   R19        2.91768  -0.00912   0.00000  -0.02906  -0.02902   2.88865
   R20        2.10409  -0.01165   0.00000  -0.03366  -0.03366   2.07044
   R21        2.10110  -0.00994   0.00000  -0.02858  -0.02858   2.07251
   R22        2.93525  -0.01065   0.00000  -0.03641  -0.03639   2.89886
   R23        2.10151  -0.01075   0.00000  -0.03092  -0.03092   2.07059
   R24        2.09789  -0.00782   0.00000  -0.02237  -0.02237   2.07552
   R25        2.10750  -0.00932   0.00000  -0.02707  -0.02707   2.08043
   R26        2.76724  -0.00523   0.00000  -0.01066  -0.01104   2.75621
   R27        2.44197  -0.00506   0.00000  -0.00683  -0.00685   2.43513
   R28        2.08013  -0.00622   0.00000  -0.01728  -0.01728   2.06285
    A1        2.15775   0.01103   0.00000   0.04035   0.04024   2.19799
    A2        2.05404  -0.00743   0.00000  -0.02704  -0.02715   2.02689
    A3        2.07132  -0.00359   0.00000  -0.01301  -0.01312   2.05821
    A4        2.03092  -0.00802   0.00000  -0.02638  -0.02681   2.00412
    A5        2.03292  -0.00285   0.00000  -0.00737  -0.00782   2.02510
    A6        2.21832   0.01080   0.00000   0.03222   0.03250   2.25082
    A7        2.20367   0.00631   0.00000   0.01861   0.01903   2.22270
    A8        2.06320  -0.00336   0.00000  -0.01061  -0.01082   2.05237
    A9        2.01533  -0.00291   0.00000  -0.00782  -0.00804   2.00729
   A10        2.25698  -0.00599   0.00000  -0.02070  -0.02088   2.23611
   A11        2.11092  -0.01250   0.00000  -0.07030  -0.07101   2.03991
   A12        1.87027   0.01871   0.00000   0.10311   0.10333   1.97360
   A13        1.83886  -0.00193   0.00000  -0.01873  -0.01855   1.82031
   A14        2.00758  -0.00102   0.00000  -0.01400  -0.01410   1.99348
   A15        1.96538   0.00129   0.00000   0.00228   0.00189   1.96727
   A16        1.85244   0.00278   0.00000   0.02416   0.02404   1.87649
   A17        1.84974   0.00096   0.00000   0.02095   0.02065   1.87039
   A18        1.93610  -0.00177   0.00000  -0.01009  -0.00974   1.92636
   A19        1.90973   0.00017   0.00000  -0.00481  -0.00495   1.90478
   A20        1.92267  -0.00074   0.00000  -0.01337  -0.01335   1.90932
   A21        1.92272  -0.00167   0.00000  -0.00673  -0.00672   1.91600
   A22        1.91936  -0.00044   0.00000   0.00534   0.00531   1.92467
   A23        1.90483   0.00308   0.00000   0.02486   0.02485   1.92968
   A24        1.88434  -0.00037   0.00000  -0.00485  -0.00510   1.87923
   A25        1.94043  -0.00082   0.00000   0.00576   0.00569   1.94612
   A26        1.91891  -0.00073   0.00000  -0.00705  -0.00708   1.91183
   A27        1.90500   0.00029   0.00000  -0.00296  -0.00304   1.90196
   A28        1.91613   0.00074   0.00000   0.00702   0.00705   1.92319
   A29        1.89853   0.00174   0.00000   0.01128   0.01129   1.90981
   A30        1.88381  -0.00121   0.00000  -0.01452  -0.01459   1.86921
   A31        1.94467   0.00078   0.00000   0.00554   0.00559   1.95026
   A32        1.90239   0.00054   0.00000   0.00580   0.00580   1.90820
   A33        1.91738   0.00039   0.00000   0.00522   0.00519   1.92257
   A34        1.90673  -0.00120   0.00000  -0.01456  -0.01459   1.89214
   A35        1.91532  -0.00050   0.00000   0.00021   0.00015   1.91547
   A36        1.87596  -0.00004   0.00000  -0.00260  -0.00265   1.87332
   A37        1.94699  -0.00313   0.00000  -0.01869  -0.01867   1.92832
   A38        1.90606   0.00252   0.00000   0.01654   0.01641   1.92247
   A39        1.91097   0.00148   0.00000   0.01364   0.01357   1.92454
   A40        1.90629   0.00030   0.00000  -0.00290  -0.00278   1.90351
   A41        1.91167  -0.00021   0.00000  -0.00440  -0.00433   1.90734
   A42        1.88064  -0.00088   0.00000  -0.00369  -0.00386   1.87678
   A43        1.84632   0.00478   0.00000   0.02368   0.02367   1.86999
   A44        1.93745  -0.00439   0.00000  -0.02997  -0.03042   1.90702
   A45        1.98529   0.00068   0.00000   0.01016   0.01056   1.99585
   A46        1.88195   0.00215   0.00000   0.02924   0.02956   1.91152
   A47        1.89190  -0.00409   0.00000  -0.02901  -0.02911   1.86279
   A48        1.91643   0.00107   0.00000  -0.00189  -0.00184   1.91459
   A49        2.08955  -0.00634   0.00000  -0.01582  -0.01643   2.07313
   A50        2.25634  -0.00530   0.00000  -0.02365  -0.02357   2.23277
   A51        1.97776   0.00530   0.00000   0.02614   0.02571   2.00347
   A52        2.04905  -0.00002   0.00000  -0.00285  -0.00327   2.04578
    D1       -3.04247  -0.00061   0.00000  -0.03302  -0.03239  -3.07485
    D2        0.14413   0.00057   0.00000   0.00000  -0.00000   0.14413
    D3        0.11154  -0.00170   0.00000  -0.05908  -0.05876   0.05279
    D4       -2.98504  -0.00052   0.00000  -0.02605  -0.02637  -3.01141
    D5        3.05558   0.00112   0.00000   0.02474   0.02479   3.08037
    D6       -0.03585   0.00028   0.00000   0.02050   0.02062  -0.01523
    D7       -0.13653  -0.00069   0.00000  -0.01375  -0.01416  -0.15069
    D8        3.05523  -0.00152   0.00000  -0.01799  -0.01833   3.03690
    D9       -2.74885  -0.00180   0.00000  -0.03263  -0.03299  -2.78184
   D10        0.40301   0.00039   0.00000   0.01076   0.01050   0.41351
   D11        0.44331   0.00013   0.00000   0.00637   0.00681   0.45012
   D12       -2.68802   0.00232   0.00000   0.04977   0.05030  -2.63772
   D13       -0.04774  -0.00087   0.00000  -0.00404  -0.00398  -0.05172
   D14        2.73316   0.00342   0.00000   0.06166   0.06006   2.79322
   D15        3.04489  -0.00007   0.00000   0.00000   0.00000   3.04489
   D16       -0.45740   0.00422   0.00000   0.06570   0.06404  -0.39336
   D17       -2.54260  -0.00050   0.00000  -0.00090  -0.00033  -2.54293
   D18        1.70713  -0.00210   0.00000  -0.01069  -0.01022   1.69691
   D19       -0.53429   0.00015   0.00000   0.01420   0.01425  -0.52004
   D20        0.92132   0.00013   0.00000  -0.03436  -0.03530   0.88602
   D21       -1.11214  -0.00147   0.00000  -0.04415  -0.04519  -1.15732
   D22        2.92963   0.00078   0.00000  -0.01926  -0.02072   2.90892
   D23        2.94594   0.00222   0.00000   0.02647   0.02627   2.97222
   D24       -1.22518   0.00133   0.00000   0.02155   0.02139  -1.20378
   D25        0.85179  -0.00064   0.00000   0.00303   0.00294   0.85474
   D26        0.92024   0.00332   0.00000   0.04130   0.04125   0.96149
   D27        3.03231   0.00243   0.00000   0.03638   0.03637   3.06868
   D28       -1.17391   0.00046   0.00000   0.01786   0.01792  -1.15598
   D29       -1.08130   0.00152   0.00000   0.00820   0.00823  -1.07306
   D30        1.03077   0.00062   0.00000   0.00328   0.00336   1.03412
   D31        3.10774  -0.00134   0.00000  -0.01524  -0.01509   3.09264
   D32       -2.89926  -0.00084   0.00000  -0.01436  -0.01414  -2.91341
   D33       -0.86239   0.00221   0.00000   0.01860   0.01845  -0.84395
   D34        1.30938   0.00067   0.00000   0.00000  -0.00001   1.30937
   D35       -0.89753  -0.00193   0.00000  -0.02324  -0.02318  -0.92071
   D36        1.13934   0.00113   0.00000   0.00973   0.00941   1.14875
   D37       -2.97208  -0.00042   0.00000  -0.00888  -0.00905  -2.98112
   D38        1.10570   0.00101   0.00000   0.01186   0.01194   1.11764
   D39       -3.14062   0.00407   0.00000   0.04483   0.04453  -3.09609
   D40       -0.96885   0.00252   0.00000   0.02622   0.02607  -0.94278
   D41        0.95665   0.00072   0.00000   0.00000  -0.00000   0.95665
   D42        3.08227   0.00062   0.00000   0.00790   0.00786   3.09013
   D43       -1.13770  -0.00112   0.00000  -0.01567  -0.01565  -1.15334
   D44       -1.15742   0.00180   0.00000   0.01624   0.01630  -1.14112
   D45        0.96820   0.00169   0.00000   0.02414   0.02417   0.99236
   D46        3.03142  -0.00004   0.00000   0.00057   0.00066   3.03207
   D47        3.06173   0.00067   0.00000   0.00410   0.00406   3.06579
   D48       -1.09583   0.00056   0.00000   0.01200   0.01192  -1.08391
   D49        0.96738  -0.00117   0.00000  -0.01157  -0.01159   0.95580
   D50       -0.92192  -0.00079   0.00000   0.00000  -0.00000  -0.92192
   D51        1.18360  -0.00144   0.00000  -0.01082  -0.01083   1.17277
   D52       -3.04831  -0.00095   0.00000  -0.00755  -0.00757  -3.05588
   D53       -3.04915   0.00017   0.00000   0.00030   0.00031  -3.04885
   D54       -0.94364  -0.00048   0.00000  -0.01052  -0.01052  -0.95416
   D55        1.10764   0.00002   0.00000  -0.00725  -0.00727   1.10037
   D56        1.17626   0.00019   0.00000   0.00719   0.00721   1.18348
   D57       -3.00141  -0.00046   0.00000  -0.00363  -0.00361  -3.00502
   D58       -0.95013   0.00003   0.00000  -0.00037  -0.00036  -0.95049
   D59        0.98836  -0.00094   0.00000  -0.01165  -0.01165   0.97671
   D60        3.09723  -0.00089   0.00000  -0.01621  -0.01633   3.08091
   D61       -1.13057   0.00037   0.00000  -0.00311  -0.00305  -1.13362
   D62       -1.11461  -0.00132   0.00000  -0.01279  -0.01276  -1.12737
   D63        0.99427  -0.00127   0.00000  -0.01736  -0.01744   0.97682
   D64        3.04964  -0.00001   0.00000  -0.00426  -0.00417   3.04548
   D65        3.11594  -0.00027   0.00000  -0.00121  -0.00120   3.11474
   D66       -1.05837  -0.00022   0.00000  -0.00578  -0.00588  -1.06425
   D67        0.99701   0.00104   0.00000   0.00733   0.00740   1.00441
   D68       -1.05421   0.00004   0.00000  -0.00075  -0.00070  -1.05491
   D69       -3.12824   0.00157   0.00000   0.00712   0.00678  -3.12146
   D70        1.08119   0.00135   0.00000   0.00904   0.00909   1.09028
   D71        3.12023  -0.00131   0.00000  -0.00753  -0.00744   3.11278
   D72        1.04621   0.00022   0.00000   0.00033   0.00004   1.04624
   D73       -1.02755  -0.00000   0.00000   0.00226   0.00235  -1.02520
   D74        1.06431  -0.00029   0.00000   0.00117   0.00131   1.06563
   D75       -1.00971   0.00124   0.00000   0.00904   0.00879  -1.00092
   D76       -3.08346   0.00101   0.00000   0.01097   0.01110  -3.07236
   D77       -1.17216   0.00433   0.00000   0.00000  -0.00001  -1.17217
   D78        3.06272   0.00070   0.00000  -0.01629  -0.01621   3.04651
   D79        1.01088  -0.00013   0.00000  -0.03358  -0.03382   0.97707
   D80        0.17298   0.00079   0.00000   0.00612   0.00590   0.17889
   D81       -2.97923  -0.00145   0.00000  -0.03863  -0.03835  -3.01758
         Item               Value     Threshold  Converged?
 Maximum Force            0.037978     0.000450     NO 
 RMS     Force            0.007011     0.000300     NO 
 Maximum Displacement     0.298970     0.001800     NO 
 RMS     Displacement     0.056034     0.001200     NO 
 Predicted change in Energy=-1.322583D-02
 GradGradGradGradGradGradGradGradGradGradGradGradGradGradGradGradGradGrad

                          Input orientation:                          
 ---------------------------------------------------------------------
 Center     Atomic      Atomic             Coordinates (Angstroms)
 Number     Number       Type             X           Y           Z
 ---------------------------------------------------------------------
      1          8           0       -3.487145   -1.413087   -0.251794
      2          7           0       -3.127369   -0.240817   -0.068244
      3          8           0       -3.877322    0.733143    0.100038
      4          6           0       -1.680919   -0.007650   -0.032132
      5          6           0       -1.315417    1.271833    0.251567
      6          7           0       -0.067771    1.747561    0.411539
      7          6           0        1.195079    1.004081    0.379955
      8          1           0        1.833195    1.520171    1.115536
      9          6           0        1.914926    1.049878   -0.964664
     10          6           0        3.317584    0.452206   -0.804402
     11          6           0        3.262228   -0.959896   -0.209954
     12          6           0        2.452545   -0.997341    1.086062
     13          6           0        1.040596   -0.444786    0.853096
     14          1           0        0.478825   -0.459797    1.799779
     15          7           0        0.398343   -1.327987   -0.113731
     16          6           0       -0.843671   -1.136988   -0.399112
     17          1           0       -2.108191    1.998819    0.409024
     18          1           0        0.057855    2.750011    0.309789
     19          1           0        1.341438    0.479718   -1.704042
     20          1           0        1.976010    2.088027   -1.318413
     21          1           0        3.821409    0.433492   -1.777461
     22          1           0        3.910294    1.102995   -0.146049
     23          1           0        2.793162   -1.638721   -0.930769
     24          1           0        4.277113   -1.331560   -0.023724
     25          1           0        2.377785   -2.026429    1.454803
     26          1           0        2.951026   -0.402747    1.863413
     27          1           0       -1.330608   -1.881157   -1.032140
 ---------------------------------------------------------------------
                    Distance matrix (angstroms):
                    1          2          3          4          5
     1  O    0.000000
     2  N    1.239898   0.000000
     3  O    2.209599   1.240704   0.000000
     4  C    2.299121   1.465568   2.321730   0.000000
     5  C    3.489780   2.381923   2.622309   1.360571   0.000000
     6  N    4.703384   3.680350   3.954587   2.424842   1.344816
     7  C    5.307074   4.520422   5.087339   3.076489   2.527997
     8  H    6.227327   5.395331   5.853259   4.000047   3.274427
     9  C    5.979695   5.281496   5.897800   3.862393   3.458844
    10  C    7.077360   6.523773   7.256969   5.078670   4.821987
    11  C    6.764700   6.431493   7.344089   5.037171   5.113556
    12  C    6.102673   5.748060   6.635814   4.394925   4.476949
    13  C    4.760128   4.273452   5.112780   2.895057   2.976477
    14  H    4.565811   4.067198   4.825789   2.867897   2.935100
    15  N    3.888871   3.689804   4.751343   2.464402   3.135200
    16  C    2.661932   2.475454   3.598552   1.452949   2.539359
    17  H    3.738889   2.506487   2.197096   2.098356   1.087102
    18  H    5.496707   4.385614   4.426891   3.277947   2.018484
    19  H    5.385810   4.813028   5.527602   3.488187   3.392747
    20  H    6.575829   5.747252   6.173265   4.406757   3.736911
    21  H    7.691064   7.187602   7.930022   5.789334   5.586300
    22  H    7.814343   7.165234   7.800276   5.701594   5.243536
    23  H    6.320931   6.144166   7.154276   4.846167   5.172008
    24  H    7.768034   7.484521   8.412676   6.103355   6.174936
    25  H    6.138898   5.984547   6.969720   4.770694   5.095690
    26  H    6.851637   6.380001   7.143254   5.020370   4.858478
    27  H    2.340658   2.616900   3.821276   2.152385   3.404333
                    6          7          8          9         10
     6  N    0.000000
     7  C    1.465794   0.000000
     8  H    2.039850   1.102098   0.000000
     9  C    2.512326   1.525869   2.134265   0.000000
    10  C    3.823229   2.492447   2.651438   1.533083   0.000000
    11  C    4.336527   2.911752   3.154330   2.534562   1.533122
    12  C    3.787012   2.466880   2.592746   2.947137   2.534429
    13  C    2.495963   1.531974   2.134981   2.510523   2.955768
    14  H    2.664284   2.161449   2.494550   3.461742   3.958795
    15  N    3.154706   2.513376   3.417880   2.945905   3.488277
    16  C    3.095125   3.057389   4.064513   3.565403   4.472789
    17  H    2.055833   3.449919   4.032714   4.355798   5.770913
    18  H    1.015402   2.084820   2.305117   2.821949   4.140913
    19  H    2.840595   2.153931   3.045388   1.095742   2.171465
    20  H    2.699202   2.160843   2.503391   1.098463   2.177140
    21  H    4.652334   3.446392   3.674683   2.162232   1.095917
    22  H    4.068338   2.767464   2.465761   2.157417   1.099209
    23  H    4.631807   3.355036   3.884263   2.828607   2.159389
    24  H    5.343075   3.888072   3.924668   3.483754   2.170708
    25  H    4.616508   3.426089   3.604172   3.941032   3.482938
    26  H    3.980566   2.695026   2.346590   3.343897   2.825340
    27  H    4.104457   4.086283   5.117733   4.373673   5.205971
                   11         12         13         14         15
    11  C    0.000000
    12  C    1.528609   0.000000
    13  C    2.516160   1.534012   0.000000
    14  H    3.469360   2.166545   1.100919   0.000000
    15  N    2.889046   2.401786   1.458522   2.102796   0.000000
    16  C    4.114067   3.618050   2.365931   2.653810   1.288613
    17  H    6.162672   5.498697   4.010394   3.830358   4.198050
    18  H    4.929660   4.514398   3.386397   3.563728   4.114045
    19  H    2.827405   3.346781   2.735721   3.728747   2.585791
    20  H    3.488965   3.940569   3.464908   4.296056   3.950879
    21  H    2.170551   3.481499   3.927355   4.976694   4.193827
    22  H    2.163237   2.838052   3.410144   4.243059   4.271360
    23  H    1.095627   2.143594   2.771127   3.768542   2.549366
    24  H    1.096726   2.161568   3.468461   4.302572   3.879815
    25  H    2.165906   1.095711   2.156786   2.485839   2.620365
    26  H    2.169358   1.098317   2.161540   2.473678   3.358774
    27  H    4.755928   4.424947   3.352593   3.648846   2.034390
                   16         17         18         19         20
    16  C    0.000000
    17  H    3.476403   0.000000
    18  H    4.052660   2.294753   0.000000
    19  H    3.015176   4.321187   3.295046   0.000000
    20  H    4.381374   4.435391   2.601650   1.771454   0.000000
    21  H    5.111676   6.510846   4.887454   2.481488   2.520656
    22  H    5.261345   6.110055   4.214468   3.068361   2.467019
    23  H    3.709576   6.249000   5.318069   2.682022   3.834926
    24  H    5.138210   7.214624   5.879846   3.836976   4.320286
    25  H    3.821765   6.117210   5.432082   4.163303   4.978042
    26  H    4.478600   5.786056   4.552370   4.012015   4.156758
    27  H    1.091613   4.211390   5.017601   3.628362   5.173982
                   21         22         23         24         25
    21  H    0.000000
    22  H    1.765684   0.000000
    23  H    2.463381   3.062805   0.000000
    24  H    2.529559   2.465072   1.766122   0.000000
    25  H    4.310776   3.834658   2.452307   2.505260   0.000000
    26  H    3.835730   2.688009   3.059413   2.486461   1.769720
    27  H    5.697050   6.095685   4.132134   5.724115   4.467457
                   26         27
    26  H    0.000000
    27  H    5.376088   0.000000
 Symmetry turned off by external request.
 Stoichiometry    C9H13N3O2
 Framework group  C1[X(C9H13N3O2)]
 Deg. of freedom    75
 Full point group                 C1      NOp   1
 Rotational constants (GHZ):           1.6839023           0.4217463           0.3724324
 Standard basis: 6-31G(d) (6D, 7F)
   236 basis functions,   444 primitive gaussians,   236 cartesian basis functions
    52 alpha electrons       52 beta electrons
       nuclear repulsion energy       932.1318169690 Hartrees.
 NAtoms=   27 NActive=   27 NUniq=   27 SFac= 1.00D+00 NAtFMM=   60 NAOKFM=F Big=F
 Integral buffers will be    131072 words long.
 Raffenetti 1 integral format.
 Two-electron integral symmetry is turned off.
 One-electron integrals computed using PRISM.
 NBasis=   236 RedAO= T EigKep=  1.01D-03  NBF=   236
 NBsUse=   236 1.00D-06 EigRej= -1.00D+00 NBFU=   236
 Initial guess from the checkpoint file:  "/home/alexey/tmp/Gau-1567557.chk"
 B after Tr=     0.056941    0.005429   -0.000029
         Rot=    0.999999   -0.000951    0.000399    0.001060 Ang=  -0.17 deg.
 ExpMin= 1.61D-01 ExpMax= 5.48D+03 ExpMxC= 8.25D+02 IAcc=3 IRadAn=         5 AccDes= 0.00D+00
 Harris functional with IExCor=  205 and IRadAn=       5 diagonalized for initial guess.
 HarFok:  IExCor=  205 AccDes= 0.00D+00 IRadAn=         5 IDoV= 1 UseB2=F ITyADJ=14
 ICtDFT=  3500011 ScaDFX=  1.000000  1.000000  1.000000  1.000000
 FoFCou: FMM=F IPFlag=           0 FMFlag=      100000 FMFlg1=           0
         NFxFlg=           0 DoJE=T BraDBF=F KetDBF=T FulRan=T
         wScrn=  0.000000 ICntrl=       500 IOpCl=  0 I1Cent=   200000004 NGrid=           0
         NMat0=    1 NMatS0=      1 NMatT0=    0 NMatD0=    1 NMtDS0=    0 NMtDT0=    0
 Symmetry not used in FoFCou.
 Keep R1 ints in memory in canonical form, NReq=397720213.
 Requested convergence on RMS density matrix=1.00D-08 within 128 cycles.
 Requested convergence on MAX density matrix=1.00D-06.
 Requested convergence on             energy=1.00D-06.
 No special actions if energy rises.
 SCF Done:  E(RHF) =  -661.298795051     A.U. after   14 cycles
            NFock= 14  Conv=0.98D-08     -V/T= 2.0024
 ExpMin= 1.61D-01 ExpMax= 5.48D+03 ExpMxC= 8.25D+02 IAcc=3 IRadAn=         5 AccDes= 0.00D+00
 HarFok:  IExCor=  205 AccDes= 0.00D+00 IRadAn=         5 IDoV=-2 UseB2=F ITyADJ=14
 ICtDFT= 12500011 ScaDFX=  1.000000  1.000000  1.000000  1.000000
 Range of M.O.s used for correlation:    15   236
 NBasis=   236 NAE=    52 NBE=    52 NFC=    14 NFV=     0
 NROrb=    222 NOA=    38 NOB=    38 NVA=   184 NVB=   184
 Fully direct method using O(ONN) memory.
 JobTyp=1 Pass  1:  I=  15 to  52 NPSUse=  4 ParTrn=T ParDer=T DoDerP=T.
 Spin components of T(2) and E(2):
     alpha-alpha T2 =       0.9126198123D-01 E2=     -0.2723570417D+00
     alpha-beta  T2 =       0.4911770936D+00 E2=     -0.1487944965D+01
     beta-beta   T2 =       0.9126198123D-01 E2=     -0.2723570417D+00
 ANorm=    0.1293715987D+01
 E2 =    -0.2032659048D+01 EUMP2 =    -0.66333145409935D+03
          IDoAtm=111111111111111111111111111
          Differentiating once with respect to electric field.
                with respect to dipole field.
          Differentiating once with respect to nuclear coordinates.
 Keep R1 ints in memory in canonical form, NReq=397723379.
          There are     1 degrees of freedom in the 1st order CPHF.  IDoFFX=0 NUNeed=     1.
 LinEq1:  Iter=  0 NonCon=     1 RMS=4.58D-03 Max=1.05D-01 NDo=     1
 AX will form     1 AO Fock derivatives at one time.
 LinEq1:  Iter=  1 NonCon=     1 RMS=1.54D-03 Max=2.82D-02 NDo=     1
 LinEq1:  Iter=  2 NonCon=     1 RMS=6.42D-04 Max=1.78D-02 NDo=     1
[...]
    16  C    0.000000
    17  H    3.463927   0.000000
    18  H    4.088154   2.235952   0.000000
    19  H    2.991026   4.303829   3.511611   0.000000
    20  H    4.375195   4.449455   2.881444   1.768499   0.000000
    21  H    5.096735   6.511476   5.086143   2.499079   2.521028
    22  H    5.248744   6.100687   4.313050   3.070178   2.461418
    23  H    3.695249   6.235340   5.421111   2.704258   3.842929
    24  H    5.133895   7.201040   5.936572   3.849617   4.317080
    25  H    3.821433   6.088424   5.369860   4.171642   4.985045
    26  H    4.495040   5.781296   4.485413   4.036065   4.182246
    27  H    1.089727   4.215221   5.079087   3.583614   5.147982
                   21         22         23         24         25
    21  H    0.000000
    22  H    1.758833   0.000000
    23  H    2.469412   3.062241   0.000000
    24  H    2.517350   2.459854   1.764546   0.000000
    25  H    4.312039   3.839531   2.444183   2.519695   0.000000
    26  H    3.846716   2.704401   3.060425   2.491684   1.767936
    27  H    5.653207   6.060561   4.090801   5.694973   4.454524
                   26         27
    26  H    0.000000
    27  H    5.378471   0.000000
 Symmetry turned off by external request.
 Stoichiometry    C9H13N3O2
 Framework group  C1[X(C9H13N3O2)]
 Deg. of freedom    75
 Full point group                 C1      NOp   1
 Rotational constants (GHZ):           1.6800172           0.4193718           0.3721608

 **********************************************************************

            Population analysis using the SCF Density.

 **********************************************************************

 Alpha  occ. eigenvalues --  -20.59236 -20.58905 -15.84722 -15.64136 -15.56109
 Alpha  occ. eigenvalues --  -11.35018 -11.29623 -11.29555 -11.28623 -11.27133
 Alpha  occ. eigenvalues --  -11.23728 -11.23208 -11.22691 -11.22089  -1.57117
 Alpha  occ. eigenvalues --   -1.36713  -1.30976  -1.23065  -1.14704  -1.09820
 Alpha  occ. eigenvalues --   -1.02805  -1.01308  -0.94482  -0.89684  -0.85566
 Alpha  occ. eigenvalues --   -0.82448  -0.78608  -0.77411  -0.75202  -0.72019
 Alpha  occ. eigenvalues --   -0.69773  -0.69440  -0.67820  -0.64891  -0.63777
 Alpha  occ. eigenvalues --   -0.62367  -0.60281  -0.57700  -0.57001  -0.55076
 Alpha  occ. eigenvalues --   -0.54583  -0.50762  -0.50108  -0.48656  -0.48102
 Alpha  occ. eigenvalues --   -0.47374  -0.46146  -0.46044  -0.43680  -0.41696
 Alpha  occ. eigenvalues --   -0.39847  -0.33829
 Alpha virt. eigenvalues --    0.07464   0.11802   0.17308   0.21849   0.24114
 Alpha virt. eigenvalues --    0.25665   0.27135   0.28694   0.29045   0.29635
 Alpha virt. eigenvalues --    0.30683   0.31799   0.32036   0.32767   0.33951
 Alpha virt. eigenvalues --    0.34386   0.35851   0.37314   0.38581   0.40295
 Alpha virt. eigenvalues --    0.41392   0.42444   0.45030   0.46119   0.46731
 Alpha virt. eigenvalues --    0.47076   0.48994   0.53997   0.57578   0.59407
 Alpha virt. eigenvalues --    0.63917   0.69542   0.69910   0.72860   0.74243
 Alpha virt. eigenvalues --    0.74870   0.75781   0.76682   0.78662   0.79441
 Alpha virt. eigenvalues --    0.81388   0.84696   0.85723   0.85807   0.88530
 Alpha virt. eigenvalues --    0.89426   0.91052   0.92113   0.92854   0.94529
 Alpha virt. eigenvalues --    0.95644   0.98040   0.99639   1.01675   1.02472
 Alpha virt. eigenvalues --    1.03152   1.05871   1.06968   1.07898   1.09013
 Alpha virt. eigenvalues --    1.10282   1.11420   1.11856   1.12443   1.13918
 Alpha virt. eigenvalues --    1.14767   1.14990   1.15835   1.16905   1.18727
 Alpha virt. eigenvalues --    1.19137   1.21339   1.22577   1.23915   1.24535
 Alpha virt. eigenvalues --    1.24829   1.26040   1.26913   1.27490   1.29556
 Alpha virt. eigenvalues --    1.30009   1.33132   1.36071   1.37183   1.40864
 Alpha virt. eigenvalues --    1.41853   1.46491   1.48740   1.51702   1.54290
 Alpha virt. eigenvalues --    1.56375   1.58784   1.59555   1.63461   1.65633
 Alpha virt. eigenvalues --    1.68031   1.68627   1.72996   1.75224   1.77373
 Alpha virt. eigenvalues --    1.81584   1.84601   1.87692   1.90650   1.93503
 Alpha virt. eigenvalues --    1.95819   1.96956   1.99716   2.01580   2.02522
 Alpha virt. eigenvalues --    2.05102   2.05614   2.08496   2.09565   2.12393
 Alpha virt. eigenvalues --    2.13268   2.15296   2.18828   2.20017   2.22457
 Alpha virt. eigenvalues --    2.22639   2.24494   2.25497   2.28217   2.29548
 Alpha virt. eigenvalues --    2.31994   2.33724   2.34701   2.36398   2.38470
 Alpha virt. eigenvalues --    2.40486   2.41926   2.43859   2.45126   2.47369
 Alpha virt. eigenvalues --    2.50726   2.51949   2.53114   2.55575   2.61512
 Alpha virt. eigenvalues --    2.62310   2.65194   2.67625   2.70323   2.70498
 Alpha virt. eigenvalues --    2.72271   2.72653   2.76989   2.78445   2.83806
 Alpha virt. eigenvalues --    2.88566   2.88951   2.92947   2.93142   2.96065
 Alpha virt. eigenvalues --    2.99443   3.01347   3.04319   3.05733   3.07680
 Alpha virt. eigenvalues --    3.09413   3.15046   3.21218   3.25221   3.27453
 Alpha virt. eigenvalues --    3.33457   3.37792   3.38790   3.52189   3.65802
 Alpha virt. eigenvalues --    4.13690   4.28087   4.34717   4.38926   4.46303
 Alpha virt. eigenvalues --    4.56315   4.61873   4.62353   4.73466   4.79744
 Alpha virt. eigenvalues --    4.99417   5.00897   5.05022   5.11167
          Condensed to atoms (all electrons):
               1          2          3          4          5          6
     1  O    8.316219   0.306931  -0.082469  -0.085518   0.004643  -0.000016
     2  N    0.306931   5.722269   0.301264   0.264183  -0.053639   0.000970
     3  O   -0.082469   0.301264   8.353635  -0.092702   0.003660   0.000784
     4  C   -0.085518   0.264183  -0.092702   5.225733   0.560316  -0.047283
     5  C    0.004643  -0.053639   0.003660   0.560316   4.709899   0.317423
     6  N   -0.000016   0.000970   0.000784  -0.047283   0.317423   7.195602
     7  C    0.000004  -0.000140   0.000002   0.004634  -0.030198   0.169277
     8  H   -0.000000   0.000002  -0.000000  -0.000262   0.003095  -0.050684
     9  C   -0.000000  -0.000004  -0.000000   0.000856   0.000627  -0.061645
    10  C    0.000000   0.000000   0.000000  -0.000038  -0.000052   0.003748
    11  C   -0.000000  -0.000000  -0.000000  -0.000028   0.000025  -0.000189
    12  C   -0.000000   0.000002  -0.000000  -0.000127  -0.000176   0.003872
    13  C   -0.000025  -0.000039  -0.000004  -0.011565  -0.000582  -0.047674
    14  H   -0.000004  -0.000105   0.000001   0.002645   0.006076  -0.006958
    15  N    0.000383   0.002364  -0.000016  -0.063524  -0.006393   0.001596
    16  C    0.000790  -0.027281   0.002548   0.328495  -0.050331  -0.001861
    17  H    0.000220  -0.007227   0.017377  -0.023140   0.374517  -0.034191
    18  H    0.000001  -0.000050   0.000012   0.001506  -0.031439   0.338675
    19  H    0.000001  -0.000004   0.000000  -0.001225   0.001231  -0.000350
    20  H    0.000000  -0.000000   0.000000  -0.000079   0.000153  -0.000431
    21  H   -0.000000   0.000000   0.000000   0.000001   0.000001  -0.000077
    22  H   -0.000000   0.000000  -0.000000  -0.000000  -0.000003  -0.000117
    23  H    0.000000  -0.000000   0.000000   0.000040  -0.000000  -0.000030
    24  H    0.000000   0.000000   0.000000   0.000000  -0.000000   0.000006
    25  H    0.000000  -0.000000   0.000000   0.000024   0.000000  -0.000090
    26  H    0.000000  -0.000000   0.000000   0.000006  -0.000002  -0.000060
    27  H    0.006124  -0.000885   0.000018  -0.063407   0.002215   0.000017
               7          8          9         10         11         12
     1  O    0.000004  -0.000000  -0.000000   0.000000  -0.000000  -0.000000
     2  N   -0.000140   0.000002  -0.000004   0.000000  -0.000000   0.000002
     3  O    0.000002  -0.000000  -0.000000   0.000000  -0.000000  -0.000000
     4  C    0.004634  -0.000262   0.000856  -0.000038  -0.000028  -0.000127
     5  C   -0.030198   0.003095   0.000627  -0.000052   0.000025  -0.000176
     6  N    0.169277  -0.050684  -0.061645   0.003748  -0.000189   0.003872
     7  C    5.017516   0.418421   0.350526  -0.054669  -0.009030  -0.061065
     8  H    0.418421   0.538122  -0.055066   0.000778  -0.000325  -0.002229
     9  C    0.350526  -0.055066   5.158227   0.324775  -0.050415  -0.005344
    10  C   -0.054669   0.000778   0.324775   5.119310   0.337006  -0.060985
    11  C   -0.009030  -0.000325  -0.050415   0.337006   5.119887   0.335981
    12  C   -0.061065  -0.002229  -0.005344  -0.060985   0.335981   5.118606
    13  C    0.338608  -0.037932  -0.060218  -0.000287  -0.050682   0.371998
    14  H   -0.046590  -0.000746   0.004422  -0.000405   0.004196  -0.036327
    15  N   -0.057966   0.003901  -0.014613   0.001560  -0.013047  -0.082066
    16  C   -0.001778   0.000010  -0.001271  -0.000029   0.000029   0.002608
    17  H    0.001616  -0.000045  -0.000070   0.000001   0.000000   0.000000
    18  H   -0.021217  -0.004473   0.001327  -0.000083   0.000004  -0.000114
    19  H   -0.036847   0.004362   0.390220  -0.032071  -0.002212   0.000689
    20  H   -0.042420  -0.002079   0.399490  -0.035304   0.003931  -0.000415
    21  H    0.004599  -0.000076  -0.036357   0.402435  -0.034894   0.004348
    22  H   -0.004846   0.003559  -0.046954   0.397752  -0.045403  -0.001021
    23  H    0.000577   0.000035  -0.001958  -0.039020   0.399176  -0.037860
    24  H   -0.000130  -0.000102   0.004388  -0.038437   0.402341  -0.038690
    25  H    0.005151  -0.000025  -0.000423   0.004189  -0.033394   0.398275
    26  H   -0.003905   0.001686   0.000968  -0.002232  -0.041482   0.396732
    27  H   -0.000408   0.000009  -0.000058   0.000007   0.000012  -0.000036
              13         14         15         16         17         18
     1  O   -0.000025  -0.000004   0.000383   0.000790   0.000220   0.000001
     2  N   -0.000039  -0.000105   0.002364  -0.027281  -0.007227  -0.000050
     3  O   -0.000004   0.000001  -0.000016   0.002548   0.017377   0.000012
     4  C   -0.011565   0.002645  -0.063524   0.328495  -0.023140   0.001506
     5  C   -0.000582   0.006076  -0.006393  -0.050331   0.374517  -0.031439
     6  N   -0.047674  -0.006958   0.001596  -0.001861  -0.034191   0.338675
     7  C    0.338608  -0.046590  -0.057966  -0.001778   0.001616  -0.021217
     8  H   -0.037932  -0.000746   0.003901   0.000010  -0.000045  -0.004473
     9  C   -0.060218   0.004422  -0.014613  -0.001271  -0.000070   0.001327
    10  C   -0.000287  -0.000405   0.001560  -0.000029   0.000001  -0.000083
    11  C   -0.050682   0.004196  -0.013047   0.000029   0.000000   0.000004
    12  C    0.371998  -0.036327  -0.082066   0.002608   0.000000  -0.000114
    13  C    5.040200   0.403079   0.244772  -0.071102  -0.000009   0.002971
    14  H    0.403079   0.526778  -0.037369  -0.004536   0.000093  -0.000108
    15  N    0.244772  -0.037369   6.965114   0.585197  -0.000080  -0.000132
    16  C   -0.071102  -0.004536   0.585197   4.710027   0.002014  -0.000197
    17  H   -0.000009   0.000093  -0.000080   0.002014   0.376531  -0.002817
    18  H    0.002971  -0.000108  -0.000132  -0.000197  -0.002817   0.310604
    19  H   -0.007542   0.000106   0.007693   0.003002   0.000016  -0.000149
    20  H    0.004339  -0.000066   0.000126  -0.000036   0.000002   0.000808
    21  H   -0.000433   0.000010  -0.000041   0.000004  -0.000000   0.000001
    22  H    0.000045  -0.000055   0.000019  -0.000002   0.000000   0.000001
    23  H   -0.007520   0.000003   0.008588   0.000106   0.000000   0.000000
    24  H    0.004699  -0.000057   0.000135   0.000007   0.000000  -0.000000
    25  H   -0.035556  -0.002817   0.000407  -0.000022  -0.000000   0.000002
    26  H   -0.047424  -0.001048   0.004901  -0.000061   0.000000  -0.000000
    27  H    0.005061  -0.000174  -0.040313   0.403672  -0.000079   0.000001
              19         20         21         22         23         24
     1  O    0.000001   0.000000  -0.000000  -0.000000   0.000000   0.000000
     2  N   -0.000004  -0.000000   0.000000   0.000000  -0.000000   0.000000
     3  O    0.000000   0.000000   0.000000  -0.000000   0.000000   0.000000
     4  C   -0.001225  -0.000079   0.000001  -0.000000   0.000040   0.000000
     5  C    0.001231   0.000153   0.000001  -0.000003  -0.000000  -0.000000
     6  N   -0.000350  -0.000431  -0.000077  -0.000117  -0.000030   0.000006
     7  C   -0.036847  -0.042420   0.004599  -0.004846   0.000577  -0.000130
     8  H    0.004362  -0.002079  -0.000076   0.003559   0.000035  -0.000102
     9  C    0.390220   0.399490  -0.036357  -0.046954  -0.001958   0.004388
    10  C   -0.032071  -0.035304   0.402435   0.397752  -0.039020  -0.038437
    11  C   -0.002212   0.003931  -0.034894  -0.045403   0.399176   0.402341
    12  C    0.000689  -0.000415   0.004348  -0.001021  -0.037860  -0.038690
    13  C   -0.007542   0.004339  -0.000433   0.000045  -0.007520   0.004699
    14  H    0.000106  -0.000066   0.000010  -0.000055   0.000003  -0.000057
    15  N    0.007693   0.000126  -0.000041   0.000019   0.008588   0.000135
    16  C    0.003002  -0.000036   0.000004  -0.000002   0.000106   0.000007
    17  H    0.000016   0.000002  -0.000000   0.000000   0.000000   0.000000
    18  H   -0.000149   0.000808   0.000001   0.000001   0.000000  -0.000000
    19  H    0.504929  -0.024739  -0.002788   0.003959   0.001514  -0.000066
    20  H   -0.024739   0.541180  -0.002691  -0.002991  -0.000045  -0.000083
    21  H   -0.002788  -0.002691   0.524019  -0.027404  -0.002898  -0.002241
    22  H    0.003959  -0.002991  -0.027404   0.571314   0.004137  -0.003656
    23  H    0.001514  -0.000045  -0.002898   0.004137   0.498965  -0.025453
    24  H   -0.000066  -0.000083  -0.002241  -0.003656  -0.025453   0.538123
    25  H   -0.000029   0.000012  -0.000087  -0.000080  -0.002318  -0.002291
    26  H    0.000019  -0.000030  -0.000081   0.002380   0.004067  -0.003036
    27  H    0.000083   0.000000  -0.000000   0.000000  -0.000035  -0.000000
              25         26         27
     1  O    0.000000   0.000000   0.006124
     2  N   -0.000000  -0.000000  -0.000885
     3  O    0.000000   0.000000   0.000018
     4  C    0.000024   0.000006  -0.063407
     5  C    0.000000  -0.000002   0.002215
     6  N   -0.000090  -0.000060   0.000017
     7  C    0.005151  -0.003905  -0.000408
     8  H   -0.000025   0.001686   0.000009
     9  C   -0.000423   0.000968  -0.000058
    10  C    0.004189  -0.002232   0.000007
    11  C   -0.033394  -0.041482   0.000012
    12  C    0.398275   0.396732  -0.000036
    13  C   -0.035556  -0.047424   0.005061
    14  H   -0.002817  -0.001048  -0.000174
    15  N    0.000407   0.004901  -0.040313
    16  C   -0.000022  -0.000061   0.403672
    17  H   -0.000000   0.000000  -0.000079
    18  H    0.000002  -0.000000   0.000001
    19  H   -0.000029   0.000019   0.000083
    20  H    0.000012  -0.000030   0.000000
    21  H   -0.000087  -0.000081  -0.000000
    22  H   -0.000080   0.002380   0.000000
    23  H   -0.002318   0.004067  -0.000035
    24  H   -0.002291  -0.003036  -0.000000
    25  H    0.506100  -0.024084  -0.000013
    26  H   -0.024084   0.562342   0.000001
    27  H   -0.000013   0.000001   0.439264
 Mulliken charges:
               1
     1  O   -0.467285
     2  N    0.491389
     3  O   -0.504109
     4  C    0.000458
     5  C    0.188935
     6  N   -0.780314
     7  C    0.060277
     8  H    0.180065
     9  C   -0.301429
    10  C   -0.327949
    11  C   -0.321485
    12  C   -0.306658
    13  C   -0.037179
    14  H    0.189954
    15  N   -0.511195
    16  C    0.120002
    17  H    0.295269
    18  H    0.404866
    19  H    0.190198
    20  H    0.161367
    21  H    0.174651
    22  H    0.149365
    23  H    0.199930
    24  H    0.164542
    25  H    0.187067
    26  H    0.150342
    27  H    0.248925
 Sum of Mulliken charges =  -0.00000
 Mulliken charges with hydrogens summed into heavy atoms:
               1
     1  O   -0.467285
     2  N    0.491389
     3  O   -0.504109
     4  C    0.000458
     5  C    0.484204
     6  N   -0.375448
     7  C    0.240342
     9  C    0.050137
    10  C   -0.003934
    11  C    0.042988
    12  C    0.030751
    13  C    0.152775
    15  N   -0.511195
    16  C    0.368927
 Electronic spatial extent (au):  <R**2>=           3005.2047
 Charge=             -0.0000 electrons
 Dipole moment (field-independent basis, Debye):
    X=              5.4149    Y=              4.7974    Z=              1.2812  Tot=              7.3470
 Quadrupole moment (field-independent basis, Debye-Ang):
   XX=           -106.1316   YY=            -79.2247   ZZ=            -81.5019
   XY=             -1.7691   XZ=             -0.1348   YZ=              1.8528
 Traceless Quadrupole moment (field-independent basis, Debye-Ang):
   XX=            -17.1788   YY=              9.7280   ZZ=              7.4508
   XY=             -1.7691   XZ=             -0.1348   YZ=              1.8528
 Octapole moment (field-independent basis, Debye-Ang**2):
  XXX=             92.3591  YYY=             36.3093  ZZZ=             -1.5004  XYY=             -4.5774
  XXY=              9.5412  XXZ=              4.9255  XZZ=             -9.7604  YZZ=             -0.3912
  YYZ=              7.9886  XYZ=              0.2523
 Hexadecapole moment (field-independent basis, Debye-Ang**3):
 XXXX=          -3381.7144 YYYY=           -601.0553 ZZZZ=           -303.8043 XXXY=            -20.9697
 XXXZ=            -13.4466 YYYX=             -9.0465 YYYZ=             24.9872 ZZZX=              1.9259
 ZZZY=              7.0839 XXYY=           -627.7241 XXZZ=           -523.7748 YYZZ=           -157.3367
 XXYZ=             -4.2875 YYXZ=              1.6996 ZZXY=              4.6694
 N-N= 9.312497115353D+02 E-N=-3.409216754512D+03  KE= 6.596297379940D+02
 Unable to Open any file for archive entry.
 1\1\GINC-LOTUS\FOpt\RMP2-FC\6-31G(d)\C9H13N3O2\ALEXEY\02-Jul-2023\0\\#
 MP2/6-31G* SCF=Tight Opt=(ModRedun, MaxCycle=20 ) NoSymm\\MolName:\\0,
 1\O,-3.5059194684,-1.390946047,-0.3710579906\N,-3.1209785348,-0.232666
 8621,-0.1181418766\O,-3.8955372352,0.7281883626,0.0557109216\C,-1.6867
 844157,-0.0238327595,-0.0091756957\C,-1.3015912247,1.2606764442,0.2755
 944642\N,-0.0573111296,1.7501857256,0.3862392833\C,1.2055565072,1.0239
 647214,0.3591913065\H,1.8532909805,1.553073353,1.0744746859\C,1.909063
 9102,1.0350748733,-0.9966431193\C,3.3074662295,0.4284761789,-0.8325766
 527\C,3.2595109351,-0.967637346,-0.2059744563\C,2.4644935515,-0.978255
 2593,1.1015062807\C,1.0548177145,-0.4245473063,0.8651826214\H,0.478378
 8264,-0.4031894846,1.8036496258\N,0.4081869733,-1.317892212,-0.0909866
 213\C,-0.8391253994,-1.1380010722,-0.3861870391\H,-2.096290964,1.98766
 46704,0.4191305023\H,0.0017939126,2.7354567756,0.6149026525\H,1.314930
 7667,0.4576501203,-1.7129037548\H,1.9750204082,2.0630219323,-1.3743006
 763\H,3.8114029797,0.3903914723,-1.8050977132\H,3.9072370992,1.0947795
 524,-0.1963257287\H,2.7819024846,-1.6644210083,-0.9018426222\H,4.27867
 39971,-1.3310923784,-0.02880824\H,2.3791192229,-2.0001421988,1.4854331
 129\H,2.9744361618,-0.3803614745,1.8694971054\H,-1.3007442892,-1.89264
 87733,-1.0225203756\\Version=ES64L-G16RevC.02\HF=-661.3003752\MP2=-663
 .3346493\RMSD=7.173e-09\RMSF=2.667e-05\Dipole=1.9789949,1.6923178,0.47
 11017\PG=C01 [X(C9H13N3O2)]\\@
 The archive entry for this job was punched.


 ASKING FOR EFFICIENCY AND ADAPTABILITY IN THE SAME PROGRAM IS LIKE
 ASKING FOR A BEAUTIFUL AND MODEST WIFE ...
 WE'LL PROBABLY HAVE TO SETTLE FOR ONE OR THE OTHER.

             -- THE PSYCHOLOGY OF COMPUTER PROGRAMMING
                GERALD M. WEINBERG
 Job cpu time:       0 days  1 hours  4 minutes 16.4 seconds.
 Elapsed time:       0 days  0 hours 19 minutes 30.6 seconds.
 File lengths (MBytes):  RWF=     36 Int=      0 D2E=      0 Chk=      7 Scr=      1
 Normal termination of Gaussian 16 at Sun Jul  2 19:44:25 2023.
