 Entering Gaussian System, Link 0=g16
 Initial command:
 /home/alexey/programs//g16/l1.exe "/home/alexey/tmp/Gau-1570101.inp" -scrdir="/home/alexey/tmp/"
 Entering Link 1 = /home/alexey/programs//g16/l1.exe PID=   1570103.
  
 Copyright (c) 1988-2021, Gaussian, Inc.  All Rights Reserved.
  
 This is part of the Gaussian(R) 16 program.  It is based on
 the Gaussian(R) 09 system (copyright 2009, Gaussian, Inc.),
 the Gaussian(R) 03 system (copyright 2003, Gaussian, Inc.),
 the Gaussian(R) 98 system (copyright 1998, Gaussian, Inc.),
 the Gaussian(R) 94 system (copyright 1995, Gaussian, Inc.),
 the Gaussian 92(TM) system (copyright 1992, Gaussian, Inc.),
 the Gaussian 90(TM) system (copyright 1990, Gaussian, Inc.),
 the Gaussian 88(TM) system (copyright 1988, Gaussian, Inc.),
 the Gaussian 86(TM) system (copyright 1986, Carnegie Mellon
 University), and the Gaussian 82(TM) system (copyright 1983,
 Carnegie Mellon University). Gaussian is a federally registered
 trademark of Gaussian, Inc.
  
 This software contains proprietary and confidential information,
 including trade secrets, belonging to Gaussian, Inc.
  
 This software is provided under written license and may be
 used, copied, transmitted, or stored only in accord with that
 written license.
  
 The following legend is applicable only to US Government
 contracts under FAR:
  
                    RESTRICTED RIGHTS LEGEND
  
 Use, reproduction and disclosure by the US Government is
 subject to restrictions as set forth in subparagraphs (a)
 and (c) of the Commercial Computer Software - Restricted
 Rights clause in FAR 52.227-19.
  
 Gaussian, Inc.
 340 Quinnipiac St., Bldg. 40, Wallingford CT 06492
  
  
 ---------------------------------------------------------------
 Warning -- This program may not be used in any manner that
 competes with the business of Gaussian, Inc. or will provide
 assistance to any competitor of Gaussian, Inc.  The licensee
 of this program is prohibited from giving any competitor of
 Gaussian, Inc. access to this program.  By using this program,
 the user acknowledges that Gaussian, Inc. is engaged in the
 business of creating and licensing software in the field of
 computational chemistry and represents and warrants to the
 licensee that it is not a competitor of Gaussian, Inc. and that
 it will not use this program in any manner prohibited above.
 ---------------------------------------------------------------
  

 Cite this work as:
 Gaussian 16, Revision C.02,
 M. J. Frisch, G. W. Trucks, H. B. Schlegel, G. E. Scuseria, 
 M. A. Robb, J. R. Cheeseman, G. Scalmani, V. Barone, 
 G. A. Petersson, H. Nakatsuji, X. Li, M. Caricato, A. V. Marenich, 
 J. Bloino, B. G. Janesko, R. Gomperts, B. Mennucci, H. P. Hratchian, 
 J. V. Ortiz, A. F. Izmaylov, J. L. Sonnenberg, D. Williams-Young, 
 F. Ding, F. Lipparini, F. Egidi, J. Goings, B. Peng, A. Petrone, 
 T. Henderson, D. Ranasinghe, V. G. Zakrzewski, J. Gao, N. Rega, 
 G. Zheng, W. Liang, M. Hada, M. Ehara, K. Toyota, R. Fukuda, 
 J. Hasegawa, M. Ishida, T. Nakajima, Y. Honda, O. Kitao, H. Nakai, 
 T. Vreven, K. Throssell, J. A. Montgomery, Jr., J. E. Peralta, 
 F. Ogliaro, M. J. Bearpark, J. J. Heyd, E. N. Brothers, K. N. Kudin, 
 V. N. Staroverov, T. A. Keith, R. Kobayashi, J. Normand, 
 K. Raghavachari, A. P. Rendell, J. C. Burant, S. S. Iyengar, 
 J. Tomasi, M. Cossi, J. M. Millam, M. Klene, C. Adamo, R. Cammi, 
 J. W. Ochterski, R. L. Martin, K. Morokuma, O. Farkas, 
 J. B. Foresman, and D. J. Fox, Gaussian, Inc., Wallingford CT, 2019.
 
 ******************************************
 Gaussian 16:  ES64L-G16RevC.02  7-Dec-2021
                 2-Jul-2023 
 ******************************************
 %mem=8GB
 %NPROCS=4
 Will use up to    4 processors via shared memory.
 %NoSave
 ---------------------------------------------------------
 #MP2/6-31G* SCF=Tight Opt=(ModRedun, MaxCycle=20 ) NoSymm
 ---------------------------------------------------------
 1/6=20,18=120,19=15,38=1/1,3;
 2/9=110,12=2,15=1,17=6,18=5,40=1/2;
 3/5=1,6=6,7=1,11=9,25=1,30=1,71=1/1,2,3;
 4//1;
 5/5=2,32=2,38=5/2;
 8/6=4,10=2/1;
 9/15=2,16=-3/6;
 10/5=1,31=1/2;
 6/7=2,8=2,9=2,10=2/1;
 7/12=2,30=1/1,2,3,16;
 1/6=20,18=20,19=15/3(2);
 2/9=110,15=1/2;
 99//99;
 2/9=110,15=1/2;
 3/5=1,6=6,7=1,11=9,25=1,30=1,71=1/1,2,3;
 4/5=5,16=3,69=1/1;
 5/5=2,32=2,38=5/2;
 8/6=4,10=2/1;
 9/15=2,16=-3/6;
 10/5=1,31=1/2;
 7/12=2,30=1/1,2,3,16;
 1/6=20,18=20,19=15/3(-8);
 2/9=110,15=1/2;
 6/7=2,8=2,9=2,10=2/1;
 99/9=10/99;
 --------
 MolName:
 --------
 Symbolic Z-matrix:
 Charge =  0 Multiplicity = 1
 8                    0    -3.64925  -1.39091  -0.30796 
 7                    0    -3.26098  -0.23325  -0.16117 
 8                    0    -4.01805   0.73696  -0.10965 
 6                    0    -1.75331   0.00328  -0.04863 
 6                    0    -1.35525   1.31518   0.23356 
 7                    0    -0.08094   1.73652   0.50528 
 6                    0     1.20487   0.98447   0.41597 
 1                    0     1.89486   1.48378   1.14472 
 6                    0     1.9121    1.04771  -0.96073 
 6                    0     3.33513   0.47168  -0.83092 
 6                    0     3.30776  -0.94713  -0.24036 
 6                    0     2.51234  -0.99221   1.08226 
 6                    0     1.06275  -0.4675    0.89247 
 1                    0     0.54863  -0.51285   1.88103 
 7                    0     0.37576  -1.3436   -0.05769 
 6                    0    -0.87805  -1.17021  -0.31705 
 1                    0    -2.13265   2.09513   0.28826 
 1                    0     0.15618   2.73065   0.46417 
 1                    0     1.3359    0.46937  -1.71397 
 1                    0     1.97443   2.0999   -1.3109 
 1                    0     3.83003   0.4555   -1.8266 
 1                    0     3.9348    1.12733  -0.16077 
 1                    0     2.83606  -1.63695  -0.97614 
 1                    0     4.34636  -1.30378  -0.06628 
 1                    0     2.4772   -2.04013   1.4528 
 1                    0     3.03201  -0.37957   1.8484 
 1                    0    -1.3897   -1.97736  -0.86312 
 
 The following ModRedundant input section has been read:
 D      17       5       6       7 F                                           
 D       1       2       4      16 F                                           
 D       7      13      15      16 F                                           
 D       7       9      10      11 F                                           
 D       9      10      11      12 F                                           
 D       6       7      13      15 F                                           
 

 GradGradGradGradGradGradGradGradGradGradGradGradGradGradGradGradGradGrad
 Berny optimization.
 Initialization pass.
                           ----------------------------
                           !    Initial Parameters    !
                           ! (Angstroms and Degrees)  !
 --------------------------                            --------------------------
 ! Name  Definition              Value          Derivative Info.                !
 --------------------------------------------------------------------------------
 ! R1    R(1,2)                  1.2298         estimate D2E/DX2                !
 ! R2    R(2,3)                  1.2317         estimate D2E/DX2                !
 ! R3    R(2,4)                  1.5303         estimate D2E/DX2                !
 ! R4    R(4,5)                  1.3997         estimate D2E/DX2                !
 ! R5    R(4,16)                 1.4884         estimate D2E/DX2                !
 ! R6    R(5,6)                  1.3694         estimate D2E/DX2                !
 ! R7    R(5,17)                 1.1026         estimate D2E/DX2                !
 ! R8    R(6,7)                  1.4923         estimate D2E/DX2                !
 ! R9    R(6,18)                 1.0228         estimate D2E/DX2                !
 ! R10   R(7,8)                  1.1209         estimate D2E/DX2                !
 ! R11   R(7,9)                  1.549          estimate D2E/DX2                !
 ! R12   R(7,13)                 1.5348         estimate D2E/DX2                !
 ! R13   R(9,10)                 1.5407         estimate D2E/DX2                !
 ! R14   R(9,19)                 1.1108         estimate D2E/DX2                !
 ! R15   R(9,20)                 1.1107         estimate D2E/DX2                !
 ! R16   R(10,11)                1.5371         estimate D2E/DX2                !
 ! R17   R(10,21)                1.112          estimate D2E/DX2                !
 ! R18   R(10,22)                1.1129         estimate D2E/DX2                !
 ! R19   R(11,12)                1.544          estimate D2E/DX2                !
 ! R20   R(11,23)                1.1134         estimate D2E/DX2                !
 ! R21   R(11,24)                1.1118         estimate D2E/DX2                !
 ! R22   R(12,13)                1.5533         estimate D2E/DX2                !
 ! R23   R(12,25)                1.1121         estimate D2E/DX2                !
 ! R24   R(12,26)                1.1101         estimate D2E/DX2                !
 ! R25   R(13,14)                1.1152         estimate D2E/DX2                !
 ! R26   R(13,15)                1.4637         estimate D2E/DX2                !
 ! R27   R(15,16)                1.292          estimate D2E/DX2                !
 ! R28   R(16,27)                1.1007         estimate D2E/DX2                !
 ! A1    A(1,2,3)              123.5325         estimate D2E/DX2                !
 ! A2    A(1,2,4)              117.7314         estimate D2E/DX2                !
 ! A3    A(3,2,4)              118.7342         estimate D2E/DX2                !
 ! A4    A(2,4,5)              116.097          estimate D2E/DX2                !
 ! A5    A(2,4,16)             116.3759         estimate D2E/DX2                !
 ! A6    A(5,4,16)             127.4527         estimate D2E/DX2                !
 ! A7    A(4,5,6)              126.3724         estimate D2E/DX2                !
 ! A8    A(4,5,17)             118.1969         estimate D2E/DX2                !
 ! A9    A(6,5,17)             115.3804         estimate D2E/DX2                !
 ! A10   A(5,6,7)              129.4115         estimate D2E/DX2                !
 ! A11   A(5,6,18)             120.4509         estimate D2E/DX2                !
 ! A12   A(7,6,18)             106.7179         estimate D2E/DX2                !
 ! A13   A(6,7,8)              105.4854         estimate D2E/DX2                !
 ! A14   A(6,7,9)              115.2149         estimate D2E/DX2                !
 ! A15   A(6,7,13)             112.2352         estimate D2E/DX2                !
 ! A16   A(8,7,9)              106.1756         estimate D2E/DX2                !
 ! A17   A(8,7,13)             106.0556         estimate D2E/DX2                !
 ! A18   A(9,7,13)             110.906          estimate D2E/DX2                !
 ! A19   A(7,9,10)             109.3632         estimate D2E/DX2                !
 ! A20   A(7,9,19)             110.1564         estimate D2E/DX2                !
 ! A21   A(7,9,20)             110.1513         estimate D2E/DX2                !
 ! A22   A(10,9,19)            109.9738         estimate D2E/DX2                !
 ! A23   A(10,9,20)            109.2034         estimate D2E/DX2                !
 ! A24   A(19,9,20)            107.9723         estimate D2E/DX2                !
 ! A25   A(9,10,11)            111.1644         estimate D2E/DX2                !
 ! A26   A(9,10,21)            109.9418         estimate D2E/DX2                !
 ! A27   A(9,10,22)            109.1568         estimate D2E/DX2                !
 ! A28   A(11,10,21)           109.7865         estimate D2E/DX2                !
 ! A29   A(11,10,22)           108.7866         estimate D2E/DX2                !
 ! A30   A(21,10,22)           107.9346         estimate D2E/DX2                !
 ! A31   A(10,11,12)           111.4225         estimate D2E/DX2                !
 ! A32   A(10,11,23)           108.9977         estimate D2E/DX2                !
 ! A33   A(10,11,24)           109.8537         estimate D2E/DX2                !
 ! A34   A(12,11,23)           109.2523         estimate D2E/DX2                !
 ! A35   A(12,11,24)           109.7391         estimate D2E/DX2                !
 ! A36   A(23,11,24)           107.4858         estimate D2E/DX2                !
 ! A37   A(11,12,13)           111.484          estimate D2E/DX2                !
 ! A38   A(11,12,25)           109.2209         estimate D2E/DX2                !
 ! A39   A(11,12,26)           109.5062         estimate D2E/DX2                !
 ! A40   A(13,12,25)           109.2415         estimate D2E/DX2                !
 ! A41   A(13,12,26)           109.5589         estimate D2E/DX2                !
 ! A42   A(25,12,26)           107.7507         estimate D2E/DX2                !
 ! A43   A(7,13,12)            105.73           estimate D2E/DX2                !
 ! A44   A(7,13,14)            110.8784         estimate D2E/DX2                !
 ! A45   A(7,13,15)            114.0915         estimate D2E/DX2                !
 ! A46   A(12,13,14)           107.9505         estimate D2E/DX2                !
 ! A47   A(12,13,15)           108.37           estimate D2E/DX2                !
 ! A48   A(14,13,15)           109.5562         estimate D2E/DX2                !
 ! A49   A(13,15,16)           120.3619         estimate D2E/DX2                !
 ! A50   A(4,16,15)            129.8124         estimate D2E/DX2                !
 ! A51   A(4,16,27)            113.2221         estimate D2E/DX2                !
 ! A52   A(15,16,27)           116.89           estimate D2E/DX2                !
 ! D1    D(1,2,4,5)           -174.6411         estimate D2E/DX2                !
 ! D2    D(1,2,4,16)             8.2586         Frozen                          !
 ! D3    D(3,2,4,5)              5.8298         estimate D2E/DX2                !
 ! D4    D(3,2,4,16)          -171.2705         estimate D2E/DX2                !
 ! D5    D(2,4,5,6)            173.2744         estimate D2E/DX2                !
 ! D6    D(2,4,5,17)            -4.0177         estimate D2E/DX2                !
 ! D7    D(16,4,5,6)            -9.9984         estimate D2E/DX2                !
 ! D8    D(16,4,5,17)          172.7095         estimate D2E/DX2                !
 ! D9    D(2,4,16,15)         -165.3017         estimate D2E/DX2                !
 ! D10   D(2,4,16,27)           18.0045         estimate D2E/DX2                !
 ! D11   D(5,4,16,15)           17.979          estimate D2E/DX2                !
 ! D12   D(5,4,16,27)         -158.7148         estimate D2E/DX2                !
 ! D13   D(4,5,6,7)              8.0998         estimate D2E/DX2                !
 ! D14   D(4,5,6,18)           164.3051         estimate D2E/DX2                !
 ! D15   D(17,5,6,7)          -174.5417         Frozen                          !
 ! D16   D(17,5,6,18)          -18.3364         estimate D2E/DX2                !
 ! D17   D(5,6,7,8)           -154.0277         estimate D2E/DX2                !
 ! D18   D(5,6,7,9)             89.23           estimate D2E/DX2                !
 ! D19   D(5,6,7,13)           -38.9844         estimate D2E/DX2                !
 ! D20   D(18,6,7,8)            47.2666         estimate D2E/DX2                !
 ! D21   D(18,6,7,9)           -69.4757         estimate D2E/DX2                !
 ! D22   D(18,6,7,13)          162.31           estimate D2E/DX2                !
 ! D23   D(6,7,9,10)           169.0449         estimate D2E/DX2                !
 ! D24   D(6,7,9,19)           -69.9782         estimate D2E/DX2                !
 ! D25   D(6,7,9,20)            49.0224         estimate D2E/DX2                !
 ! D26   D(8,7,9,10)            52.6943         estimate D2E/DX2                !
 ! D27   D(8,7,9,19)           173.6712         estimate D2E/DX2                !
 ! D28   D(8,7,9,20)           -67.3282         estimate D2E/DX2                !
 ! D29   D(13,7,9,10)          -62.0812         estimate D2E/DX2                !
 ! D30   D(13,7,9,19)           58.8957         estimate D2E/DX2                !
 ! D31   D(13,7,9,20)          177.8963         estimate D2E/DX2                !
 ! D32   D(6,7,13,12)         -165.9917         estimate D2E/DX2                !
 ! D33   D(6,7,13,14)          -49.2404         estimate D2E/DX2                !
 ! D34   D(6,7,13,15)           75.0225         Frozen                          !
 ! D35   D(8,7,13,12)          -51.2956         estimate D2E/DX2                !
 ! D36   D(8,7,13,14)           65.4556         estimate D2E/DX2                !
 ! D37   D(8,7,13,15)         -170.2814         estimate D2E/DX2                !
 ! D38   D(9,7,13,12)           63.5548         estimate D2E/DX2                !
 ! D39   D(9,7,13,14)         -179.6939         estimate D2E/DX2                !
 ! D40   D(9,7,13,15)          -55.431          estimate D2E/DX2                !
 ! D41   D(7,9,10,11)           54.812          Frozen                          !
 ! D42   D(7,9,10,21)          176.5896         estimate D2E/DX2                !
 ! D43   D(7,9,10,22)          -65.1932         estimate D2E/DX2                !
 ! D44   D(19,9,10,11)         -66.2758         estimate D2E/DX2                !
 ! D45   D(19,9,10,21)          55.5019         estimate D2E/DX2                !
 ! D46   D(19,9,10,22)         173.7191         estimate D2E/DX2                !
 ! D47   D(20,9,10,11)         175.4143         estimate D2E/DX2                !
 ! D48   D(20,9,10,21)         -62.8081         estimate D2E/DX2                !
 ! D49   D(20,9,10,22)          55.4091         estimate D2E/DX2                !
 ! D50   D(9,10,11,12)         -52.822          Frozen                          !
 ! D51   D(9,10,11,23)          67.8206         estimate D2E/DX2                !
 ! D52   D(9,10,11,24)        -174.652          estimate D2E/DX2                !
 ! D53   D(21,10,11,12)       -174.6901         estimate D2E/DX2                !
 ! D54   D(21,10,11,23)        -54.0475         estimate D2E/DX2                !
 ! D55   D(21,10,11,24)         63.48           estimate D2E/DX2                !
 ! D56   D(22,10,11,12)         67.4025         estimate D2E/DX2                !
 ! D57   D(22,10,11,23)       -171.9548         estimate D2E/DX2                !
 ! D58   D(22,10,11,24)        -54.4274         estimate D2E/DX2                !
 ! D59   D(10,11,12,13)         56.6734         estimate D2E/DX2                !
 ! D60   D(10,11,12,25)        177.4897         estimate D2E/DX2                !
 ! D61   D(10,11,12,26)        -64.7328         estimate D2E/DX2                !
 ! D62   D(23,11,12,13)        -63.8197         estimate D2E/DX2                !
 ! D63   D(23,11,12,25)         56.9966         estimate D2E/DX2                !
 ! D64   D(23,11,12,26)        174.774          estimate D2E/DX2                !
 ! D65   D(24,11,12,13)        178.5697         estimate D2E/DX2                !
 ! D66   D(24,11,12,25)        -60.614          estimate D2E/DX2                !
 ! D67   D(24,11,12,26)         57.1635         estimate D2E/DX2                !
 ! D68   D(11,12,13,7)         -60.5356         estimate D2E/DX2                !
 ! D69   D(11,12,13,14)       -179.2498         estimate D2E/DX2                !
 ! D70   D(11,12,13,15)         62.1738         estimate D2E/DX2                !
 ! D71   D(25,12,13,7)         178.6602         estimate D2E/DX2                !
 ! D72   D(25,12,13,14)         59.9459         estimate D2E/DX2                !
 ! D73   D(25,12,13,15)        -58.6305         estimate D2E/DX2                !
 ! D74   D(26,12,13,7)          60.8401         estimate D2E/DX2                !
 ! D75   D(26,12,13,14)        -57.8742         estimate D2E/DX2                !
 ! D76   D(26,12,13,15)       -176.4506         estimate D2E/DX2                !
 ! D77   D(7,13,15,16)         -67.1601         Frozen                          !
 ! D78   D(12,13,15,16)        175.3622         estimate D2E/DX2                !
 ! D79   D(14,13,15,16)         57.8083         estimate D2E/DX2                !
 ! D80   D(13,15,16,4)          16.1534         estimate D2E/DX2                !
 ! D81   D(13,15,16,27)       -167.2533         estimate D2E/DX2                !
 --------------------------------------------------------------------------------
 Trust Radius=3.00D-01 FncErr=1.00D-07 GrdErr=1.00D-07 EigMax=2.50D+02 EigMin=1.00D-04
 Number of steps in this run=     20 maximum allowed number of steps=    162.
 GradGradGradGradGradGradGradGradGradGradGradGradGradGradGradGradGradGrad

                          Input orientation:                          
 ---------------------------------------------------------------------
 Center     Atomic      Atomic             Coordinates (Angstroms)
 Number     Number       Type             X           Y           Z
 ---------------------------------------------------------------------
      1          8           0       -3.649250   -1.390910   -0.307960
      2          7           0       -3.260980   -0.233250   -0.161170
      3          8           0       -4.018050    0.736960   -0.109650
      4          6           0       -1.753310    0.003280   -0.048630
      5          6           0       -1.355250    1.315180    0.233560
      6          7           0       -0.080940    1.736520    0.505280
      7          6           0        1.204870    0.984470    0.415970
      8          1           0        1.894860    1.483780    1.144720
      9          6           0        1.912100    1.047710   -0.960730
     10          6           0        3.335130    0.471680   -0.830920
     11          6           0        3.307760   -0.947130   -0.240360
     12          6           0        2.512340   -0.992210    1.082260
     13          6           0        1.062750   -0.467500    0.892470
     14          1           0        0.548630   -0.512850    1.881030
     15          7           0        0.375760   -1.343600   -0.057690
     16          6           0       -0.878050   -1.170210   -0.317050
     17          1           0       -2.132650    2.095130    0.288260
     18          1           0        0.156180    2.730650    0.464170
     19          1           0        1.335900    0.469370   -1.713970
     20          1           0        1.974430    2.099900   -1.310900
     21          1           0        3.830030    0.455500   -1.826600
     22          1           0        3.934800    1.127330   -0.160770
     23          1           0        2.836060   -1.636950   -0.976140
     24          1           0        4.346360   -1.303780   -0.066280
     25          1           0        2.477200   -2.040130    1.452800
     26          1           0        3.032010   -0.379570    1.848400
     27          1           0       -1.389700   -1.977360   -0.863120
 ---------------------------------------------------------------------
                    Distance matrix (angstroms):
                    1          2          3          4          5
     1  O    0.000000
     2  N    1.229828   0.000000
     3  O    2.168680   1.231713   0.000000
     4  C    2.367616   1.530255   2.381398   0.000000
     5  C    3.588677   2.487017   2.746386   1.399702   0.000000
     6  N    4.814043   3.799579   4.108296   2.471388   1.369389
     7  C    5.452429   4.664735   5.255134   3.151098   2.587829
     8  H    6.411808   5.588938   6.090459   4.114014   3.379623
     9  C    6.107503   5.388962   5.998965   3.918927   3.489046
    10  C    7.247365   6.667395   7.393231   5.169487   4.883060
    11  C    6.971478   6.607892   7.518027   5.153103   5.204451
    12  C    6.329049   5.954273   6.859787   4.523901   4.582859
    13  C    4.949410   4.456419   5.316907   3.006243   3.075522
    14  H    4.815066   4.331499   5.136088   3.047771   3.111368
    15  N    4.033061   3.803875   4.861789   2.519347   3.185959
    16  C    2.779989   2.565258   3.679662   1.488358   2.589991
    17  H    3.848120   2.626113   2.357476   2.152494   1.102572
    18  H    5.662574   4.566480   4.661359   3.368629   2.083544
    19  H    5.503565   4.902670   5.595554   3.540313   3.427908
    20  H    6.694581   5.845938   6.261823   4.459281   3.753387
    21  H    7.852078   7.316451   8.038625   5.877020   5.645391
    22  H    7.992560   7.323280   7.962589   5.799195   5.308052
    23  H    6.524281   6.309394   7.305140   4.961144   5.267402
    24  H    7.999736   7.682881   8.609870   6.238164   6.281498
    25  H    6.407429   6.228678   7.234760   4.932244   5.237588
    26  H    7.093090   6.607685   7.401618   5.161839   4.972719
    27  H    2.399519   2.652610   3.852723   2.172220   3.470549
                    6          7          8          9         10
     6  N    0.000000
     7  C    1.492268   0.000000
     8  H    2.092020   1.120925   0.000000
     9  C    2.568239   1.549024   2.150203   0.000000
    10  C    3.880050   2.521051   2.646106   1.540674   0.000000
    11  C    4.386484   2.929845   3.134335   2.538934   1.537053
    12  C    3.808408   2.461846   2.552589   2.948791   2.545627
    13  C    2.513095   1.534753   2.136242   2.540001   3.002639
    14  H    2.710851   2.195226   2.518138   3.517101   4.011054
    15  N    3.164277   2.516284   3.427467   2.982312   3.556824
    16  C    3.124210   3.085210   4.107245   3.621937   4.550907
    17  H    2.094090   3.519789   4.162705   4.360856   5.812467
    18  H    1.022844   2.037454   2.245182   2.818844   4.109249
    19  H    2.922016   2.195254   3.084408   1.110790   2.185567
    20  H    2.766785   2.195105   2.532983   1.110679   2.175543
    21  H    4.730155   3.492906   3.692016   2.186069   1.112010
    22  H    4.115933   2.793842   2.448002   2.176601   1.112916
    23  H    4.699340   3.386827   3.888812   2.839250   2.171746
    24  H    5.401027   3.916326   3.904723   3.500738   2.181632
    25  H    4.658858   3.441227   3.584965   3.959700   3.501515
    26  H    3.996532   2.692750   2.293545   3.344030   2.827590
    27  H    4.168726   4.140085   5.176799   4.479114   5.321922
                   11         12         13         14         15
    11  C    0.000000
    12  C    1.544037   0.000000
    13  C    2.559965   1.553271   0.000000
    14  H    3.507377   2.173471   1.115180   0.000000
    15  N    2.964318   2.447026   1.463663   2.116286   0.000000
    16  C    4.192452   3.672124   2.392372   2.701683   1.292041
    17  H    6.255625   5.633652   4.140377   4.065432   4.270441
    18  H    4.894373   4.448956   3.351637   3.561152   4.113401
    19  H    2.840111   3.367362   2.783140   3.809012   2.636663
    20  H    3.494026   3.946860   3.503932   4.364377   3.997996
    21  H    2.180893   3.506228   3.987870   5.044978   4.277591
    22  H    2.168617   2.839184   3.449850   4.280804   4.333923
    23  H    1.113429   2.181168   2.829124   3.828754   2.642476
    24  H    1.111842   2.186287   3.521457   4.340546   3.970809
    25  H    2.179741   1.112057   2.188105   2.497068   2.680072
    26  H    2.181990   1.110115   2.190780   2.487168   3.408548
    27  H    4.849261   4.470004   3.372875   3.665006   2.041377
                   16         17         18         19         20
    16  C    0.000000
    17  H    3.550052   0.000000
    18  H    4.110553   2.381926   0.000000
    19  H    3.088880   4.322367   3.354016   0.000000
    20  H    4.451741   4.407430   2.618158   1.796890   0.000000
    21  H    5.204584   6.535639   4.890921   2.496710   2.532439
    22  H    5.335414   6.160537   4.152006   3.098326   2.472194
    23  H    3.800902   6.341546   5.322798   2.689137   3.849483
    24  H    5.232130   7.325016   5.840857   3.862876   4.331301
    25  H    3.891893   6.301369   5.396746   4.198641   5.003065
    26  H    4.539037   5.935646   4.456451   4.035836   4.153002
    27  H    1.100668   4.296839   5.129990   3.760230   5.304896
                   21         22         23         24         25
    21  H    0.000000
    22  H    1.799256   0.000000
    23  H    2.467713   3.084364   0.000000
    24  H    2.541730   2.467510   1.794395   0.000000
    25  H    4.337370   3.842006   2.488189   2.518645   0.000000
    26  H    3.852246   2.668809   3.097971   2.499536   1.794930
    27  H    5.838894   6.203442   4.240955   5.830184   4.507809
                   26         27
    26  H    0.000000
    27  H    5.427411   0.000000
 Symmetry turned off by external request.
 Stoichiometry    C9H13N3O2
 Framework group  C1[X(C9H13N3O2)]
 Deg. of freedom    75
 Full point group                 C1      NOp   1
 Rotational constants (GHZ):           1.6588449           0.3996561           0.3554361
 Standard basis: 6-31G(d) (6D, 7F)
   236 basis functions,   444 primitive gaussians,   236 cartesian basis functions
    52 alpha electrons       52 beta electrons
       nuclear repulsion energy       916.9426122062 Hartrees.
 NAtoms=   27 NActive=   27 NUniq=   27 SFac= 1.00D+00 NAtFMM=   60 NAOKFM=F Big=F
 Integral buffers will be    131072 words long.
 Raffenetti 1 integral format.
 Two-electron integral symmetry is turned off.
 One-electron integrals computed using PRISM.
 NBasis=   236 RedAO= T EigKep=  1.27D-03  NBF=   236
 NBsUse=   236 1.00D-06 EigRej= -1.00D+00 NBFU=   236
 ExpMin= 1.61D-01 ExpMax= 5.48D+03 ExpMxC= 8.25D+02 IAcc=3 IRadAn=         5 AccDes= 0.00D+00
 Harris functional with IExCor=  205 and IRadAn=       5 diagonalized for initial guess.
 HarFok:  IExCor=  205 AccDes= 0.00D+00 IRadAn=         5 IDoV= 1 UseB2=F ITyADJ=14
 ICtDFT=  3500011 ScaDFX=  1.000000  1.000000  1.000000  1.000000
 FoFCou: FMM=F IPFlag=           0 FMFlag=      100000 FMFlg1=           0
         NFxFlg=           0 DoJE=T BraDBF=F KetDBF=T FulRan=T
         wScrn=  0.000000 ICntrl=       500 IOpCl=  0 I1Cent=   200000004 NGrid=           0
         NMat0=    1 NMatS0=      1 NMatT0=    0 NMatD0=    1 NMtDS0=    0 NMtDT0=    0
 Symmetry not used in FoFCou.
 Keep R1 ints in memory in canonical form, NReq=397720213.
 Requested convergence on RMS density matrix=1.00D-08 within 128 cycles.
 Requested convergence on MAX density matrix=1.00D-06.
 Requested convergence on             energy=1.00D-06.
 No special actions if energy rises.
 SCF Done:  E(RHF) =  -661.281929976     A.U. after   16 cycles
            NFock= 16  Conv=0.67D-08     -V/T= 2.0037
 ExpMin= 1.61D-01 ExpMax= 5.48D+03 ExpMxC= 8.25D+02 IAcc=3 IRadAn=         5 AccDes= 0.00D+00
 HarFok:  IExCor=  205 AccDes= 0.00D+00 IRadAn=         5 IDoV=-2 UseB2=F ITyADJ=14
 ICtDFT= 12500011 ScaDFX=  1.000000  1.000000  1.000000  1.000000
 Range of M.O.s used for correlation:    15   236
 NBasis=   236 NAE=    52 NBE=    52 NFC=    14 NFV=     0
 NROrb=    222 NOA=    38 NOB=    38 NVA=   184 NVB=   184
 Fully direct method using O(ONN) memory.
 JobTyp=1 Pass  1:  I=  15 to  52 NPSUse=  4 ParTrn=T ParDer=T DoDerP=T.
 Spin components of T(2) and E(2):
     alpha-alpha T2 =       0.9203904531D-01 E2=     -0.2718403888D+00
     alpha-beta  T2 =       0.4993976102D+00 E2=     -0.1493473791D+01
     beta-beta   T2 =       0.9203904531D-01 E2=     -0.2718403888D+00
 ANorm=    0.1297488228D+01
 E2 =    -0.2037154568D+01 EUMP2 =    -0.66331908454427D+03
          IDoAtm=111111111111111111111111111
          Differentiating once with respect to electric field.
                with respect to dipole field.
          Differentiating once with respect to nuclear coordinates.
 Keep R1 ints in memory in canonical form, NReq=397723379.
          There are     1 degrees of freedom in the 1st order CPHF.  IDoFFX=0 NUNeed=     1.
 LinEq1:  Iter=  0 NonCon=     1 RMS=4.64D-03 Max=1.17D-01 NDo=     1
 AX will form     1 AO Fock derivatives at one time.
 LinEq1:  Iter=  1 NonCon=     1 RMS=1.58D-03 Max=3.17D-02 NDo=     1
 LinEq1:  Iter=  2 NonCon=     1 RMS=6.46D-04 Max=1.90D-02 NDo=     1
 LinEq1:  Iter=  3 NonCon=     1 RMS=2.95D-04 Max=9.42D-03 NDo=     1
 LinEq1:  Iter=  4 NonCon=     1 RMS=9.14D-05 Max=2.26D-03 NDo=     1
 LinEq1:  Iter=  5 NonCon=     1 RMS=3.77D-05 Max=1.83D-03 NDo=     1
 LinEq1:  Iter=  6 NonCon=     1 RMS=1.55D-05 Max=5.66D-04 NDo=     1
 LinEq1:  Iter=  7 NonCon=     1 RMS=5.89D-06 Max=8.83D-05 NDo=     1
 LinEq1:  Iter=  8 NonCon=     1 RMS=2.33D-06 Max=5.38D-05 NDo=     1
 LinEq1:  Iter=  9 NonCon=     1 RMS=8.54D-07 Max=2.42D-05 NDo=     1
 LinEq1:  Iter= 10 NonCon=     1 RMS=4.15D-07 Max=1.44D-05 NDo=     1
 LinEq1:  Iter= 11 NonCon=     1 RMS=1.51D-07 Max=5.66D-06 NDo=     1
 LinEq1:  Iter= 12 NonCon=     1 RMS=5.31D-08 Max=8.26D-07 NDo=     1
 LinEq1:  Iter= 13 NonCon=     1 RMS=1.63D-08 Max=2.98D-07 NDo=     1
 LinEq1:  Iter= 14 NonCon=     1 RMS=4.81D-09 Max=7.48D-08 NDo=     1
 LinEq1:  Iter= 15 NonCon=     1 RMS=1.67D-09 Max=3.73D-08 NDo=     1
 LinEq1:  Iter= 16 NonCon=     1 RMS=6.47D-10 Max=1.16D-08 NDo=     1
 LinEq1:  Iter= 17 NonCon=     1 RMS=2.19D-10 Max=3.64D-09 NDo=     1
 LinEq1:  Iter= 18 NonCon=     1 RMS=7.91D-11 Max=1.13D-09 NDo=     1
 LinEq1:  Iter= 19 NonCon=     0 RMS=2.70D-11 Max=4.75D-10 NDo=     1
 Linear equations converged to 1.000D-10 1.000D-09 after    19 iterations.
 End of Minotr F.D. properties file   721 does not exist.
 End of Minotr F.D. properties file   722 does not exist.
 End of Minotr F.D. properties file   788 does not exist.

 **********************************************************************

            Population analysis using the SCF Density.

 **********************************************************************

 Alpha  occ. eigenvalues --  -20.59755 -20.59356 -15.85254 -15.63795 -15.56389
 Alpha  occ. eigenvalues --  -11.36005 -11.30426 -11.30123 -11.30048 -11.27583
 Alpha  occ. eigenvalues --  -11.24689 -11.23918 -11.23330 -11.22851  -1.58435
 Alpha  occ. eigenvalues --   -1.37925  -1.28871  -1.22567  -1.13305  -1.08392
 Alpha  occ. eigenvalues --   -1.01784  -1.00730  -0.93686  -0.88929  -0.84948
 Alpha  occ. eigenvalues --   -0.81532  -0.77974  -0.77048  -0.74383  -0.71234
 Alpha  occ. eigenvalues --   -0.70248  -0.69761  -0.67352  -0.64240  -0.63259
 Alpha  occ. eigenvalues --   -0.61907  -0.59934  -0.57345  -0.56588  -0.54834
 Alpha  occ. eigenvalues --   -0.54020  -0.50606  -0.49722  -0.48506  -0.47887
 Alpha  occ. eigenvalues --   -0.47695  -0.46276  -0.45574  -0.43999  -0.42105
 Alpha  occ. eigenvalues --   -0.39419  -0.33649
 Alpha virt. eigenvalues --    0.07517   0.11754   0.17566   0.21414   0.23522
 Alpha virt. eigenvalues --    0.24559   0.26457   0.28089   0.28532   0.28876
 Alpha virt. eigenvalues --    0.29725   0.31261   0.31797   0.32364   0.33261
 Alpha virt. eigenvalues --    0.33870   0.34430   0.35561   0.37633   0.38628
 Alpha virt. eigenvalues --    0.40444   0.41357   0.43986   0.45193   0.45439
 Alpha virt. eigenvalues --    0.46728   0.49807   0.53228   0.57500   0.58989
 Alpha virt. eigenvalues --    0.63359   0.68709   0.69303   0.72319   0.74089
 Alpha virt. eigenvalues --    0.74861   0.75609   0.75834   0.78180   0.78712
 Alpha virt. eigenvalues --    0.80676   0.83316   0.84630   0.85339   0.87805
 Alpha virt. eigenvalues --    0.88776   0.90539   0.90974   0.92069   0.93893
 Alpha virt. eigenvalues --    0.94895   0.97331   0.99254   1.00675   1.01996
 Alpha virt. eigenvalues --    1.02855   1.04992   1.06382   1.07070   1.08724
 Alpha virt. eigenvalues --    1.09717   1.10522   1.11743   1.12334   1.13206
 Alpha virt. eigenvalues --    1.13763   1.14086   1.15666   1.15968   1.16940
 Alpha virt. eigenvalues --    1.18054   1.20247   1.21560   1.22297   1.23148
 Alpha virt. eigenvalues --    1.23626   1.24551   1.25154   1.26854   1.27816
 Alpha virt. eigenvalues --    1.29147   1.31747   1.33777   1.36551   1.39185
 Alpha virt. eigenvalues --    1.42528   1.47783   1.48218   1.51044   1.53470
 Alpha virt. eigenvalues --    1.55940   1.57829   1.59242   1.61668   1.65963
 Alpha virt. eigenvalues --    1.67938   1.70153   1.71523   1.73764   1.76244
 Alpha virt. eigenvalues --    1.78424   1.81312   1.84460   1.88599   1.91360
 Alpha virt. eigenvalues --    1.93841   1.95948   1.97667   1.99348   2.00857
 Alpha virt. eigenvalues --    2.02933   2.03444   2.06056   2.09286   2.11821
 Alpha virt. eigenvalues --    2.12198   2.13365   2.17444   2.18441   2.19835
 Alpha virt. eigenvalues --    2.20232   2.22123   2.23779   2.25084   2.25926
 Alpha virt. eigenvalues --    2.29420   2.31933   2.32916   2.35399   2.36343
 Alpha virt. eigenvalues --    2.39699   2.40402   2.42159   2.43973   2.46405
 Alpha virt. eigenvalues --    2.48686   2.50096   2.50559   2.56333   2.57164
 Alpha virt. eigenvalues --    2.60499   2.63963   2.65342   2.68361   2.68753
 Alpha virt. eigenvalues --    2.69218   2.69875   2.74375   2.76143   2.81210
 Alpha virt. eigenvalues --    2.84727   2.86696   2.90063   2.91161   2.94682
 Alpha virt. eigenvalues --    2.97547   2.98212   3.02196   3.05056   3.05986
 Alpha virt. eigenvalues --    3.07449   3.14028   3.18380   3.22910   3.27118
 Alpha virt. eigenvalues --    3.31739   3.33550   3.37859   3.42953   3.60637
 Alpha virt. eigenvalues --    4.10461   4.23447   4.31939   4.36849   4.43778
 Alpha virt. eigenvalues --    4.52348   4.59457   4.60350   4.70700   4.78028
 Alpha virt. eigenvalues --    4.96908   4.99240   5.03466   5.09685
          Condensed to atoms (all electrons):
               1          2          3          4          5          6
     1  O    8.301159   0.312106  -0.090108  -0.078581   0.003583  -0.000011
     2  N    0.312106   5.678386   0.310651   0.266366  -0.047944   0.000746
     3  O   -0.090108   0.310651   8.331441  -0.088192   0.008014   0.000475
     4  C   -0.078581   0.266366  -0.088192   5.253268   0.565820  -0.048934
     5  C    0.003583  -0.047944   0.008014   0.565820   4.678117   0.311017
     6  N   -0.000011   0.000746   0.000475  -0.048934   0.311017   7.167704
     7  C    0.000002  -0.000091   0.000002   0.005204  -0.028766   0.202500
     8  H   -0.000000   0.000001  -0.000000  -0.000257   0.002875  -0.047027
     9  C   -0.000000  -0.000003   0.000000   0.000622   0.000760  -0.057437
    10  C   -0.000000   0.000000   0.000000  -0.000025  -0.000038   0.003356
    11  C   -0.000000  -0.000000  -0.000000  -0.000011   0.000014  -0.000155
    12  C   -0.000000   0.000001  -0.000000  -0.000195  -0.000161   0.003757
    13  C   -0.000014  -0.000005  -0.000002  -0.008774   0.000132  -0.049362
    14  H   -0.000001  -0.000049   0.000000   0.002379   0.003644  -0.005417
    15  N    0.000321   0.001573  -0.000011  -0.061957  -0.003955   0.001851
    16  C    0.002551  -0.024370   0.002036   0.314414  -0.042860  -0.000110
    17  H    0.000145  -0.004544   0.012837  -0.024332   0.374775  -0.032580
    18  H    0.000000  -0.000034   0.000007   0.001404  -0.025752   0.330072
    19  H    0.000000  -0.000001   0.000000  -0.000961   0.001073   0.000113
    20  H    0.000000  -0.000000   0.000000  -0.000030   0.000014  -0.000974
    21  H   -0.000000  -0.000000  -0.000000   0.000001   0.000001  -0.000061
    22  H   -0.000000   0.000000  -0.000000  -0.000000  -0.000002  -0.000093
    23  H    0.000000  -0.000000   0.000000   0.000025  -0.000001  -0.000024
    24  H    0.000000   0.000000   0.000000   0.000000  -0.000000   0.000005
    25  H    0.000000  -0.000000   0.000000   0.000021  -0.000001  -0.000074
    26  H    0.000000  -0.000000   0.000000   0.000004  -0.000001  -0.000072
    27  H    0.006124  -0.000251   0.000030  -0.067742   0.001988   0.000005
               7          8          9         10         11         12
     1  O    0.000002  -0.000000  -0.000000  -0.000000  -0.000000  -0.000000
     2  N   -0.000091   0.000001  -0.000003   0.000000  -0.000000   0.000001
     3  O    0.000002  -0.000000   0.000000   0.000000  -0.000000  -0.000000
     4  C    0.005204  -0.000257   0.000622  -0.000025  -0.000011  -0.000195
     5  C   -0.028766   0.002875   0.000760  -0.000038   0.000014  -0.000161
     6  N    0.202500  -0.047027  -0.057437   0.003356  -0.000155   0.003757
     7  C    5.027929   0.414389   0.342309  -0.049367  -0.007930  -0.065191
     8  H    0.414389   0.543498  -0.058502   0.001070  -0.000259  -0.003023
     9  C    0.342309  -0.058502   5.176826   0.318867  -0.053386  -0.005712
    10  C   -0.049367   0.001070   0.318867   5.126784   0.332645  -0.060492
    11  C   -0.007930  -0.000259  -0.053386   0.332645   5.124755   0.330413
    12  C   -0.065191  -0.003023  -0.005712  -0.060492   0.330413   5.139611
    13  C    0.323335  -0.038552  -0.053601  -0.001158  -0.047549   0.368888
    14  H   -0.040808  -0.000944   0.003813  -0.000387   0.003968  -0.041024
    15  N   -0.059945   0.003968  -0.012290   0.001328  -0.007614  -0.075214
    16  C   -0.001519  -0.000048  -0.000507  -0.000055   0.000002   0.002218
    17  H    0.001394  -0.000033  -0.000065   0.000001   0.000000   0.000001
    18  H   -0.029689  -0.003575   0.000907  -0.000113   0.000011  -0.000150
    19  H   -0.035239   0.004005   0.387365  -0.032940  -0.002170   0.000570
    20  H   -0.041969  -0.001829   0.397095  -0.037081   0.004125  -0.000378
    21  H    0.004073  -0.000075  -0.035860   0.400070  -0.035771   0.004224
    22  H   -0.004396   0.003521  -0.045664   0.395880  -0.045584  -0.001209
    23  H    0.000470   0.000034  -0.002014  -0.040129   0.396591  -0.036581
    24  H   -0.000144  -0.000103   0.004407  -0.038505   0.400335  -0.037833
    25  H    0.005097  -0.000012  -0.000379   0.004100  -0.033739   0.394948
    26  H   -0.004435   0.001498   0.001087  -0.002428  -0.042470   0.394424
    27  H   -0.000395   0.000008  -0.000053   0.000004   0.000006  -0.000020
              13         14         15         16         17         18
     1  O   -0.000014  -0.000001   0.000321   0.002551   0.000145   0.000000
     2  N   -0.000005  -0.000049   0.001573  -0.024370  -0.004544  -0.000034
     3  O   -0.000002   0.000000  -0.000011   0.002036   0.012837   0.000007
     4  C   -0.008774   0.002379  -0.061957   0.314414  -0.024332   0.001404
     5  C    0.000132   0.003644  -0.003955  -0.042860   0.374775  -0.025752
     6  N   -0.049362  -0.005417   0.001851  -0.000110  -0.032580   0.330072
     7  C    0.323335  -0.040808  -0.059945  -0.001519   0.001394  -0.029689
     8  H   -0.038552  -0.000944   0.003968  -0.000048  -0.000033  -0.003575
     9  C   -0.053601   0.003813  -0.012290  -0.000507  -0.000065   0.000907
    10  C   -0.001158  -0.000387   0.001328  -0.000055   0.000001  -0.000113
    11  C   -0.047549   0.003968  -0.007614   0.000002   0.000000   0.000011
    12  C    0.368888  -0.041024  -0.075214   0.002218   0.000001  -0.000150
    13  C    5.018910   0.405498   0.243892  -0.068078  -0.000050   0.003958
    14  H    0.405498   0.517378  -0.035191  -0.005448   0.000033  -0.000005
    15  N    0.243892  -0.035191   6.950086   0.587525  -0.000048  -0.000123
    16  C   -0.068078  -0.005448   0.587525   4.698004   0.001574  -0.000191
    17  H   -0.000050   0.000033  -0.000048   0.001574   0.381784  -0.002285
    18  H    0.003958  -0.000005  -0.000123  -0.000191  -0.002285   0.326631
    19  H   -0.005972   0.000062   0.006714   0.002295   0.000011  -0.000129
    20  H    0.003916  -0.000051   0.000083  -0.000036  -0.000005   0.002372
    21  H   -0.000400   0.000009  -0.000034   0.000003  -0.000000   0.000000
    22  H    0.000314  -0.000043   0.000005  -0.000001   0.000000   0.000002
    23  H   -0.006000   0.000007   0.006892   0.000089   0.000000   0.000000
    24  H    0.004154  -0.000059   0.000031   0.000005   0.000000  -0.000000
    25  H   -0.034279  -0.002678   0.001112  -0.000060  -0.000000   0.000003
    26  H   -0.045099  -0.000884   0.004237  -0.000036   0.000000  -0.000001
    27  H    0.004800  -0.000160  -0.040418   0.403759  -0.000062   0.000001
              19         20         21         22         23         24
     1  O    0.000000   0.000000  -0.000000  -0.000000   0.000000   0.000000
     2  N   -0.000001  -0.000000  -0.000000   0.000000  -0.000000   0.000000
     3  O    0.000000   0.000000  -0.000000  -0.000000   0.000000   0.000000
     4  C   -0.000961  -0.000030   0.000001  -0.000000   0.000025   0.000000
     5  C    0.001073   0.000014   0.000001  -0.000002  -0.000001  -0.000000
     6  N    0.000113  -0.000974  -0.000061  -0.000093  -0.000024   0.000005
     7  C   -0.035239  -0.041969   0.004073  -0.004396   0.000470  -0.000144
     8  H    0.004005  -0.001829  -0.000075   0.003521   0.000034  -0.000103
     9  C    0.387365   0.397095  -0.035860  -0.045664  -0.002014   0.004407
    10  C   -0.032940  -0.037081   0.400070   0.395880  -0.040129  -0.038505
    11  C   -0.002170   0.004125  -0.035771  -0.045584   0.396591   0.400335
    12  C    0.000570  -0.000378   0.004224  -0.001209  -0.036581  -0.037833
    13  C   -0.005972   0.003916  -0.000400   0.000314  -0.006000   0.004154
    14  H    0.000062  -0.000051   0.000009  -0.000043   0.000007  -0.000059
    15  N    0.006714   0.000083  -0.000034   0.000005   0.006892   0.000031
    16  C    0.002295  -0.000036   0.000003  -0.000001   0.000089   0.000005
    17  H    0.000011  -0.000005  -0.000000   0.000000   0.000000   0.000000
    18  H   -0.000129   0.002372   0.000000   0.000002   0.000000  -0.000000
    19  H    0.506104  -0.023870  -0.002579   0.003758   0.001654  -0.000072
    20  H   -0.023870   0.548422  -0.002645  -0.002943  -0.000049  -0.000090
    21  H   -0.002579  -0.002645   0.525631  -0.024670  -0.002810  -0.002067
    22  H    0.003758  -0.002943  -0.024670   0.569227   0.004060  -0.003582
    23  H    0.001654  -0.000049  -0.002810   0.004060   0.509418  -0.024948
    24  H   -0.000072  -0.000090  -0.002067  -0.003582  -0.024948   0.540916
    25  H   -0.000027   0.000011  -0.000086  -0.000083  -0.002067  -0.002403
    26  H    0.000022  -0.000035  -0.000073   0.002459   0.003829  -0.002753
    27  H    0.000071   0.000000  -0.000000   0.000000  -0.000023  -0.000000
              25         26         27
     1  O    0.000000   0.000000   0.006124
     2  N   -0.000000  -0.000000  -0.000251
     3  O    0.000000   0.000000   0.000030
     4  C    0.000021   0.000004  -0.067742
     5  C   -0.000001  -0.000001   0.001988
     6  N   -0.000074  -0.000072   0.000005
     7  C    0.005097  -0.004435  -0.000395
     8  H   -0.000012   0.001498   0.000008
     9  C   -0.000379   0.001087  -0.000053
    10  C    0.004100  -0.002428   0.000004
    11  C   -0.033739  -0.042470   0.000006
    12  C    0.394948   0.394424  -0.000020
    13  C   -0.034279  -0.045099   0.004800
    14  H   -0.002678  -0.000884  -0.000160
    15  N    0.001112   0.004237  -0.040418
    16  C   -0.000060  -0.000036   0.403759
    17  H   -0.000000   0.000000  -0.000062
    18  H    0.000003  -0.000001   0.000001
    19  H   -0.000027   0.000022   0.000071
    20  H    0.000011  -0.000035   0.000000
    21  H   -0.000086  -0.000073  -0.000000
    22  H   -0.000083   0.002459   0.000000
    23  H   -0.002067   0.003829  -0.000023
    24  H   -0.002403  -0.002753  -0.000000
    25  H    0.509909  -0.023141  -0.000013
    26  H   -0.023141   0.563082   0.000001
    27  H   -0.000013   0.000001   0.447437
 Mulliken charges:
               1
     1  O   -0.457277
     2  N    0.507463
     3  O   -0.487182
     4  C   -0.029534
     5  C    0.197654
     6  N   -0.779272
     7  C    0.043181
     8  H    0.179374
     9  C   -0.308585
    10  C   -0.321387
    11  C   -0.316229
    12  C   -0.311872
    13  C   -0.018905
    14  H    0.196358
    15  N   -0.512818
    16  C    0.128844
    17  H    0.291448
    18  H    0.396679
    19  H    0.190146
    20  H    0.155947
    21  H    0.173118
    22  H    0.149043
    23  H    0.191573
    24  H    0.162706
    25  H    0.183840
    26  H    0.150785
    27  H    0.244904
 Sum of Mulliken charges =  -0.00000
 Mulliken charges with hydrogens summed into heavy atoms:
               1
     1  O   -0.457277
     2  N    0.507463
     3  O   -0.487182
     4  C   -0.029534
     5  C    0.489102
     6  N   -0.382593
     7  C    0.222555
     9  C    0.037508
    10  C    0.000774
    11  C    0.038050
    12  C    0.022753
    13  C    0.177452
    15  N   -0.512818
    16  C    0.373747
 Electronic spatial extent (au):  <R**2>=           3128.8772
 Charge=             -0.0000 electrons
 Dipole moment (field-independent basis, Debye):
    X=              5.4434    Y=              4.5525    Z=              0.8541  Tot=              7.1474
 Quadrupole moment (field-independent basis, Debye-Ang):
   XX=           -105.6305   YY=            -79.7978   ZZ=            -82.5442
   XY=             -1.2615   XZ=             -0.3961   YZ=              0.5030
 Traceless Quadrupole moment (field-independent basis, Debye-Ang):
   XX=            -16.3063   YY=              9.5264   ZZ=              6.7800
   XY=             -1.2615   XZ=             -0.3961   YZ=              0.5030
 Octapole moment (field-independent basis, Debye-Ang**2):
  XXX=            102.4220  YYY=             35.8157  ZZZ=             -2.9543  XYY=             -2.1500
  XXY=              9.7516  XXZ=              7.2570  XZZ=             -7.0509  YZZ=             -2.5721
  YYZ=              3.5382  XYZ=             -0.3030
 Hexadecapole moment (field-independent basis, Debye-Ang**3):
 XXXX=          -3558.4620 YYYY=           -617.4990 ZZZZ=           -305.3103 XXXY=            -23.7010
 XXXZ=            -36.3920 YYYX=             -6.9350 YYYZ=             18.3751 ZZZX=            -10.4563
 ZZZY=              7.7874 XXYY=           -655.8872 XXZZ=           -546.3405 YYZZ=           -165.7668
 XXYZ=              2.6834 YYXZ=             -0.4311 ZZXY=              5.4404
 N-N= 9.169426122062D+02 E-N=-3.379904302042D+03  KE= 6.588590738923D+02
 Calling FoFJK, ICntrl=  10002127 FMM=F ISym2X=0 I1Cent= 0 IOpClX= 0 NMat=1 NMatS=1 NMatT=0.
 -------------------------------------------------------------------
 Center     Atomic                   Forces (Hartrees/Bohr)
 Number     Number              X              Y              Z
 -------------------------------------------------------------------
      1        8           0.001779146   -0.019005216   -0.001535434
      2        7           0.040125270    0.011940092    0.000059414
      3        8          -0.004611523    0.016473920    0.002278118
      4        6          -0.003198410    0.005228210    0.007980077
      5        6           0.003431566   -0.015545380   -0.002282940
      6        7           0.015536670   -0.004405976   -0.010496186
      7        6          -0.005479087    0.004100061    0.004606020
      8        1          -0.011465317   -0.001579964   -0.007294524
      9        6          -0.004131509    0.000967146   -0.002217263
     10        6           0.002749426   -0.001166095    0.000893109
     11        6          -0.000970680   -0.004457241   -0.002139392
     12        6           0.000606136   -0.009203464   -0.002971992
     13        6           0.010002362   -0.001382675    0.002370971
     14        1           0.001273392    0.004081824   -0.010315888
     15        7           0.000607159   -0.004114896    0.009061410
     16        6          -0.021079296    0.011913864   -0.003209388
     17        1           0.007259008   -0.007900202   -0.000020709
     18        1          -0.018258545   -0.002192414    0.001651474
     19        1           0.003236691    0.005739270    0.007566909
     20        1          -0.003078132   -0.007575837    0.002721869
     21        1          -0.003996935    0.002380570    0.009773424
     22        1          -0.004265364   -0.003951797   -0.007215381
     23        1           0.004207622    0.006047001    0.009127731
     24        1          -0.009479004    0.002513562   -0.001797415
     25        1          -0.000952244    0.010604396   -0.002441541
     26        1          -0.004834055   -0.004729228   -0.004163136
     27        1           0.004985652    0.005220469    0.000010661
 -------------------------------------------------------------------
 Cartesian Forces:  Max     0.040125270 RMS     0.008453884

 GradGradGradGradGradGradGradGradGradGradGradGradGradGradGradGradGradGrad
 Berny optimization.
 FormGI is forming the generalized inverse of G from B-inverse, IUseBI=4.
 Internal  Forces:  Max     0.038255784 RMS     0.006996846
 Search for a local minimum.
 Step number   1 out of a maximum of   20
 All quantities printed in internal units (Hartrees-Bohrs-Radians)
 Mixed Optimization -- RFO/linear search
 Second derivative matrix not updated -- first step.
 ITU=  0
     Eigenvalues ---    0.00230   0.00775   0.01054   0.01155   0.01221
     Eigenvalues ---    0.01509   0.01542   0.01672   0.01958   0.02033
     Eigenvalues ---    0.02698   0.03682   0.04508   0.04695   0.04837
     Eigenvalues ---    0.05080   0.05139   0.05307   0.05878   0.06242
     Eigenvalues ---    0.07185   0.07687   0.07705   0.07833   0.07990
     Eigenvalues ---    0.08036   0.08050   0.10445   0.11698   0.12214
     Eigenvalues ---    0.13082   0.14618   0.15311   0.15981   0.15993
     Eigenvalues ---    0.19985   0.22220   0.23275   0.24967   0.25000
     Eigenvalues ---    0.25000   0.25380   0.26256   0.26649   0.27978
     Eigenvalues ---    0.28083   0.28473   0.29400   0.31470   0.31970
     Eigenvalues ---    0.32058   0.32240   0.32293   0.32383   0.32388
     Eigenvalues ---    0.32406   0.32517   0.32528   0.32588   0.33354
     Eigenvalues ---    0.33399   0.33608   0.35425   0.43887   0.44287
     Eigenvalues ---    0.49721   0.67363   0.90376   0.911581000.00000
     Eigenvalues --- 1000.000001000.000001000.000001000.000001000.00000
     Eigenvalues --- 1000.000001000.000001000.000001000.000001000.00000
     Eigenvalues --- 1000.000001000.000001000.000001000.000001000.00000
     Eigenvalues --- 1000.000001000.000001000.000001000.000001000.00000
     Eigenvalues --- 1000.000001000.000001000.000001000.000001000.00000
     Eigenvalues --- 1000.000001000.000001000.000001000.000001000.00000
     Eigenvalues --- 1000.000001000.000001000.000001000.000001000.00000
     Eigenvalues --- 1000.000001000.000001000.000001000.000001000.00000
     Eigenvalues --- 1000.000001000.000001000.000001000.000001000.00000
     Eigenvalues --- 1000.000001000.000001000.000001000.000001000.00000
     Eigenvalues --- 1000.000001000.000001000.000001000.000001000.00000
     Eigenvalues --- 1000.000001000.000001000.000001000.000001000.00000
     Eigenvalues --- 1000.000001000.000001000.000001000.000001000.00000
     Eigenvalues --- 1000.000001000.000001000.000001000.000001000.00000
     Eigenvalues --- 1000.000001000.000001000.000001000.000001000.00000
     Eigenvalues --- 1000.000001000.000001000.000001000.000001000.00000
     Eigenvalues --- 1000.000001000.000001000.000001000.000001000.00000
     Eigenvalues --- 1000.000001000.000001000.000001000.000001000.00000
     Eigenvalues --- 1000.00000
 RFO step:  Lambda=-2.43770862D-02 EMin= 2.30241749D-03
 Linear search not attempted -- first point.
 Iteration  1 RMS(Cart)=  0.05946503 RMS(Int)=  0.00118316
 Iteration  2 RMS(Cart)=  0.00141555 RMS(Int)=  0.00026825
 Iteration  3 RMS(Cart)=  0.00000094 RMS(Int)=  0.00026825
 Iteration  1 RMS(Cart)=  0.00005027 RMS(Int)=  0.00003968
 Iteration  2 RMS(Cart)=  0.00002715 RMS(Int)=  0.00004376
 Iteration  3 RMS(Cart)=  0.00001600 RMS(Int)=  0.00004908
 Iteration  4 RMS(Cart)=  0.00001048 RMS(Int)=  0.00005317
 Iteration  5 RMS(Cart)=  0.00000762 RMS(Int)=  0.00005622
 Iteration  6 RMS(Cart)=  0.00000600 RMS(Int)=  0.00005856
 Iteration  7 RMS(Cart)=  0.00000495 RMS(Int)=  0.00006041
 Iteration  8 RMS(Cart)=  0.00000417 RMS(Int)=  0.00006193
 Iteration  9 RMS(Cart)=  0.00000355 RMS(Int)=  0.00006320
 Iteration 10 RMS(Cart)=  0.00000303 RMS(Int)=  0.00006426
 Iteration 11 RMS(Cart)=  0.00000259 RMS(Int)=  0.00006516
 Iteration 12 RMS(Cart)=  0.00000221 RMS(Int)=  0.00006593
 Iteration 13 RMS(Cart)=  0.00000188 RMS(Int)=  0.00006658
 Iteration 14 RMS(Cart)=  0.00000161 RMS(Int)=  0.00006714
 Iteration 15 RMS(Cart)=  0.00000137 RMS(Int)=  0.00006762
 Iteration 16 RMS(Cart)=  0.00000116 RMS(Int)=  0.00006802
 Iteration 17 RMS(Cart)=  0.00000099 RMS(Int)=  0.00006837
 Variable       Old X    -DE/DX   Delta X   Delta X   Delta X     New X
                                 (Linear)    (Quad)   (Total)
    R1        2.32404   0.01751   0.00000   0.01871   0.01871   2.34275
    R2        2.32760   0.01591   0.00000   0.01714   0.01714   2.34474
    R3        2.89176  -0.03826   0.00000  -0.12016  -0.12016   2.77160
    R4        2.64505  -0.03323   0.00000  -0.07174  -0.07145   2.57360
    R5        2.81259  -0.02401   0.00000  -0.07012  -0.06981   2.74278
    R6        2.58777  -0.02547   0.00000  -0.04806  -0.04798   2.53979
    R7        2.08356  -0.01071   0.00000  -0.02988  -0.02988   2.05368
    R8        2.81998  -0.01869   0.00000  -0.04986  -0.05007   2.76991
    R9        1.93290  -0.00643   0.00000  -0.01388  -0.01388   1.91902
   R10        2.11824  -0.01250   0.00000  -0.03688  -0.03688   2.08137
   R11        2.92723  -0.01294   0.00000  -0.04362  -0.04361   2.88362
   R12        2.90026  -0.00254   0.00000  -0.00254  -0.00261   2.89765
   R13        2.91145  -0.00432   0.00000  -0.01419  -0.01423   2.89722
   R14        2.09909  -0.00980   0.00000  -0.02803  -0.02803   2.07106
   R15        2.09888  -0.00821   0.00000  -0.02347  -0.02347   2.07541
   R16        2.90461  -0.00165   0.00000  -0.00698  -0.00703   2.89757
   R17        2.10139  -0.01056   0.00000  -0.03034  -0.03034   2.07106
   R18        2.10311  -0.00897   0.00000  -0.02583  -0.02583   2.07728
   R19        2.91781  -0.00924   0.00000  -0.02954  -0.02955   2.88826
   R20        2.10408  -0.01156   0.00000  -0.03334  -0.03334   2.07074
   R21        2.10108  -0.00994   0.00000  -0.02853  -0.02853   2.07254
   R22        2.93526  -0.01087   0.00000  -0.03641  -0.03637   2.89889
   R23        2.10148  -0.01078   0.00000  -0.03095  -0.03095   2.07054
   R24        2.09781  -0.00775   0.00000  -0.02212  -0.02212   2.07570
   R25        2.10739  -0.00990   0.00000  -0.02869  -0.02869   2.07869
   R26        2.76592  -0.00511   0.00000  -0.01073  -0.01106   2.75486
   R27        2.44160  -0.00363   0.00000  -0.00553  -0.00549   2.43611
   R28        2.07996  -0.00615   0.00000  -0.01706  -0.01706   2.06290
    A1        2.15605   0.01115   0.00000   0.04064   0.04062   2.19667
    A2        2.05480  -0.00684   0.00000  -0.02492  -0.02494   2.02986
    A3        2.07230  -0.00430   0.00000  -0.01564  -0.01566   2.05665
    A4        2.02627  -0.00903   0.00000  -0.02895  -0.02956   1.99672
    A5        2.03114  -0.00260   0.00000  -0.00561  -0.00623   2.02491
    A6        2.22447   0.01155   0.00000   0.03223   0.03243   2.25689
    A7        2.20561   0.00661   0.00000   0.02174   0.02216   2.22777
    A8        2.06292  -0.00365   0.00000  -0.01197  -0.01233   2.05059
    A9        2.01377  -0.00295   0.00000  -0.00874  -0.00910   2.00467
   A10        2.25866  -0.00698   0.00000  -0.02105  -0.02120   2.23746
   A11        2.10227  -0.01245   0.00000  -0.07341  -0.07385   2.02842
   A12        1.86258   0.01969   0.00000   0.10437   0.10472   1.96730
   A13        1.84107  -0.00247   0.00000  -0.01923  -0.01898   1.82209
   A14        2.01088  -0.00103   0.00000  -0.01620  -0.01638   1.99450
   A15        1.95887   0.00199   0.00000   0.00052  -0.00003   1.95885
   A16        1.85311   0.00308   0.00000   0.02583   0.02566   1.87878
   A17        1.85102   0.00125   0.00000   0.02625   0.02596   1.87698
   A18        1.93568  -0.00249   0.00000  -0.01163  -0.01129   1.92438
   A19        1.90875   0.00022   0.00000  -0.00541  -0.00553   1.90322
   A20        1.92259  -0.00070   0.00000  -0.01396  -0.01395   1.90864
   A21        1.92250  -0.00177   0.00000  -0.00607  -0.00607   1.91643
   A22        1.91941  -0.00056   0.00000   0.00445   0.00437   1.92377
   A23        1.90596   0.00319   0.00000   0.02609   0.02610   1.93206
   A24        1.88447  -0.00036   0.00000  -0.00467  -0.00491   1.87957
   A25        1.94018  -0.00073   0.00000   0.00615   0.00605   1.94623
   A26        1.91885  -0.00080   0.00000  -0.00748  -0.00750   1.91135
   A27        1.90515   0.00028   0.00000  -0.00301  -0.00308   1.90206
   A28        1.91614   0.00063   0.00000   0.00676   0.00680   1.92294
   A29        1.89868   0.00183   0.00000   0.01149   0.01151   1.91019
   A30        1.88381  -0.00120   0.00000  -0.01439  -0.01447   1.86934
   A31        1.94469   0.00117   0.00000   0.00691   0.00702   1.95170
   A32        1.90237   0.00030   0.00000   0.00542   0.00541   1.90778
   A33        1.91731   0.00042   0.00000   0.00508   0.00503   1.92234
   A34        1.90681  -0.00134   0.00000  -0.01529  -0.01533   1.89148
   A35        1.91531  -0.00061   0.00000   0.00024   0.00014   1.91545
   A36        1.87598   0.00001   0.00000  -0.00282  -0.00285   1.87313
   A37        1.94576  -0.00365   0.00000  -0.02042  -0.02042   1.92534
   A38        1.90626   0.00250   0.00000   0.01573   0.01558   1.92184
   A39        1.91124   0.00175   0.00000   0.01464   0.01459   1.92583
   A40        1.90662   0.00063   0.00000  -0.00248  -0.00235   1.90427
   A41        1.91216  -0.00020   0.00000  -0.00369  -0.00359   1.90857
   A42        1.88061  -0.00094   0.00000  -0.00320  -0.00338   1.87722
   A43        1.84534   0.00547   0.00000   0.02379   0.02380   1.86913
   A44        1.93519  -0.00459   0.00000  -0.02707  -0.02750   1.90769
   A45        1.99127   0.00014   0.00000   0.00803   0.00835   1.99962
   A46        1.88409   0.00200   0.00000   0.02773   0.02799   1.91208
   A47        1.89141  -0.00439   0.00000  -0.03087  -0.03089   1.86052
   A48        1.91212   0.00158   0.00000   0.00041   0.00050   1.91262
   A49        2.10071  -0.00592   0.00000  -0.01166  -0.01225   2.08846
   A50        2.26565  -0.00580   0.00000  -0.02757  -0.02760   2.23806
   A51        1.97610   0.00437   0.00000   0.02067   0.02005   1.99615
   A52        2.04011   0.00137   0.00000   0.00438   0.00378   2.04390
    D1       -3.04806  -0.00025   0.00000  -0.04421  -0.04326  -3.09132
    D2        0.14414   0.00099   0.00000   0.00000  -0.00000   0.14414
    D3        0.10175  -0.00150   0.00000  -0.05533  -0.05485   0.04690
    D4       -2.98923  -0.00027   0.00000  -0.01112  -0.01159  -3.00083
    D5        3.02421   0.00211   0.00000   0.04700   0.04716   3.07137
    D6       -0.07012   0.00175   0.00000   0.01935   0.01957  -0.05056
    D7       -0.17450   0.00013   0.00000  -0.00448  -0.00480  -0.17930
    D8        3.01435  -0.00022   0.00000  -0.03213  -0.03239   2.98196
    D9       -2.88506  -0.00091   0.00000  -0.03494  -0.03532  -2.92037
   D10        0.31424   0.00050   0.00000   0.01987   0.01946   0.33369
   D11        0.31379   0.00124   0.00000   0.01732   0.01797   0.33176
   D12       -2.77010   0.00266   0.00000   0.07213   0.07274  -2.69736
   D13        0.14137  -0.00255   0.00000  -0.02686  -0.02687   0.11450
   D14        2.86766   0.00247   0.00000   0.02783   0.02668   2.89434
   D15       -3.04633  -0.00223   0.00000   0.00000   0.00000  -3.04632
   D16       -0.32003   0.00280   0.00000   0.05470   0.05355  -0.26648
   D17       -2.68829  -0.00005   0.00000   0.01045   0.01083  -2.67747
   D18        1.55736  -0.00163   0.00000   0.00028   0.00057   1.55793
   D19       -0.68041   0.00100   0.00000   0.03075   0.03060  -0.64981
   D20        0.82496   0.00067   0.00000  -0.00886  -0.00945   0.81551
   D21       -1.21258  -0.00092   0.00000  -0.01903  -0.01970  -1.23228
   D22        2.83284   0.00171   0.00000   0.01144   0.01033   2.84317
   D23        2.95039   0.00211   0.00000   0.03162   0.03145   2.98184
   D24       -1.22135   0.00112   0.00000   0.02487   0.02472  -1.19663
   D25        0.85560  -0.00086   0.00000   0.00663   0.00655   0.86215
   D26        0.91969   0.00369   0.00000   0.04716   0.04717   0.96686
   D27        3.03113   0.00270   0.00000   0.04041   0.04044   3.07158
   D28       -1.17510   0.00072   0.00000   0.02217   0.02227  -1.15283
   D29       -1.08352   0.00174   0.00000   0.00764   0.00769  -1.07583
   D30        1.02792   0.00075   0.00000   0.00089   0.00096   1.02889
   D31        3.10488  -0.00123   0.00000  -0.01735  -0.01721   3.08766
   D32       -2.89710  -0.00066   0.00000  -0.01767  -0.01747  -2.91457
   D33       -0.85941   0.00249   0.00000   0.01498   0.01483  -0.84457
   D34        1.30939   0.00103   0.00000   0.00000  -0.00001   1.30938
   D35       -0.89528  -0.00187   0.00000  -0.02506  -0.02500  -0.92027
   D36        1.14242   0.00128   0.00000   0.00760   0.00731   1.14973
   D37       -2.97197  -0.00018   0.00000  -0.00738  -0.00753  -2.97951
   D38        1.10924   0.00122   0.00000   0.01420   0.01429   1.12353
   D39       -3.13625   0.00437   0.00000   0.04685   0.04660  -3.08965
   D40       -0.96745   0.00291   0.00000   0.03187   0.03175  -0.93570
   D41        0.95665   0.00092   0.00000   0.00000   0.00000   0.95665
   D42        3.08207   0.00068   0.00000   0.00755   0.00751   3.08958
   D43       -1.13784  -0.00109   0.00000  -0.01615  -0.01612  -1.15395
   D44       -1.15673   0.00199   0.00000   0.01790   0.01797  -1.13876
   D45        0.96869   0.00175   0.00000   0.02545   0.02547   0.99417
   D46        3.03197  -0.00001   0.00000   0.00176   0.00185   3.03382
   D47        3.06156   0.00084   0.00000   0.00529   0.00526   3.06681
   D48       -1.09621   0.00060   0.00000   0.01284   0.01276  -1.08345
   D49        0.96707  -0.00116   0.00000  -0.01086  -0.01087   0.95621
   D50       -0.92192  -0.00081   0.00000   0.00000   0.00000  -0.92191
   D51        1.18369  -0.00154   0.00000  -0.01111  -0.01111   1.17258
   D52       -3.04825  -0.00111   0.00000  -0.00841  -0.00844  -3.05669
   D53       -3.04892   0.00026   0.00000   0.00076   0.00077  -3.04815
   D54       -0.94331  -0.00047   0.00000  -0.01035  -0.01035  -0.95365
   D55        1.10793  -0.00004   0.00000  -0.00765  -0.00767   1.10026
   D56        1.17640   0.00027   0.00000   0.00751   0.00754   1.18394
   D57       -3.00118  -0.00046   0.00000  -0.00360  -0.00358  -3.00475
   D58       -0.94994  -0.00003   0.00000  -0.00090  -0.00090  -0.95084
   D59        0.98914  -0.00126   0.00000  -0.01153  -0.01154   0.97760
   D60        3.09778  -0.00114   0.00000  -0.01724  -0.01737   3.08041
   D61       -1.12980   0.00021   0.00000  -0.00343  -0.00337  -1.13317
   D62       -1.11386  -0.00149   0.00000  -0.01259  -0.01256  -1.12642
   D63        0.99478  -0.00137   0.00000  -0.01830  -0.01839   0.97639
   D64        3.05038  -0.00003   0.00000  -0.00448  -0.00439   3.04600
   D65        3.11663  -0.00036   0.00000  -0.00034  -0.00032   3.11631
   D66       -1.05791  -0.00024   0.00000  -0.00605  -0.00615  -1.06407
   D67        0.99769   0.00110   0.00000   0.00777   0.00785   1.00554
   D68       -1.05654   0.00003   0.00000  -0.00190  -0.00184  -1.05838
   D69       -3.12850   0.00152   0.00000   0.00331   0.00297  -3.12553
   D70        1.08514   0.00095   0.00000   0.00441   0.00440   1.08953
   D71        3.11821  -0.00118   0.00000  -0.00683  -0.00672   3.11148
   D72        1.04625   0.00031   0.00000  -0.00163  -0.00192   1.04433
   D73       -1.02330  -0.00027   0.00000  -0.00053  -0.00049  -1.02378
   D74        1.06186  -0.00030   0.00000   0.00064   0.00080   1.06266
   D75       -1.01009   0.00119   0.00000   0.00584   0.00561  -1.00449
   D76       -3.07964   0.00062   0.00000   0.00695   0.00704  -3.07261
   D77       -1.17216   0.00592   0.00000   0.00000  -0.00001  -1.17218
   D78        3.06065   0.00195   0.00000  -0.01377  -0.01375   3.04690
   D79        1.00895   0.00119   0.00000  -0.02956  -0.02981   0.97913
   D80        0.28193  -0.00215   0.00000  -0.00849  -0.00868   0.27325
   D81       -2.91912  -0.00354   0.00000  -0.06458  -0.06433  -2.98345
         Item               Value     Threshold  Converged?
 Maximum Force            0.038256     0.000450     NO 
 RMS     Force            0.007031     0.000300     NO 
 Maximum Displacement     0.313069     0.001800     NO 
 RMS     Displacement     0.059505     0.001200     NO 
 Predicted change in Energy=-1.361227D-02
 GradGradGradGradGradGradGradGradGradGradGradGradGradGradGradGradGradGrad

                          Input orientation:                          
 ---------------------------------------------------------------------
 Center     Atomic      Atomic             Coordinates (Angstroms)
 Number     Number       Type             X           Y           Z
 ---------------------------------------------------------------------
      1          8           0       -3.504217   -1.372850   -0.362118
      2          7           0       -3.122543   -0.208985   -0.170619
      3          8           0       -3.852381    0.791081   -0.088496
      4          6           0       -1.675981   -0.014897   -0.026023
      5          6           0       -1.304503    1.267212    0.244060
      6          7           0       -0.067669    1.726947    0.499430
      7          6           0        1.202952    1.000065    0.424265
      8          1           0        1.860162    1.522940    1.136855
      9          6           0        1.873772    1.049200   -0.945444
     10          6           0        3.283606    0.457267   -0.833594
     11          6           0        3.254746   -0.954995   -0.237115
     12          6           0        2.491070   -0.997416    1.086141
     13          6           0        1.069602   -0.452056    0.898384
     14          1           0        0.537169   -0.472916    1.860710
     15          7           0        0.404459   -1.339866   -0.047441
     16          6           0       -0.846970   -1.172466   -0.307763
     17          1           0       -2.087742    2.019820    0.278196
     18          1           0        0.053807    2.734335    0.458787
     19          1           0        1.277286    0.474236   -1.662898
     20          1           0        1.915693    2.087050   -1.302207
     21          1           0        3.752934    0.439859   -1.823822
     22          1           0        3.896362    1.111023   -0.196823
     23          1           0        2.763536   -1.635781   -0.941382
     24          1           0        4.277114   -1.322470   -0.086877
     25          1           0        2.434167   -2.027402    1.455473
     26          1           0        3.012249   -0.400880    1.847078
     27          1           0       -1.339688   -1.946045   -0.899776
 ---------------------------------------------------------------------
                    Distance matrix (angstroms):
                    1          2          3          4          5
     1  O    0.000000
     2  N    1.239729   0.000000
     3  O    2.208774   1.240782   0.000000
     4  C    2.302052   1.466670   2.321684   0.000000
     5  C    3.489430   2.378316   2.613231   1.361890   0.000000
     6  N    4.707533   3.678186   3.942784   2.428331   1.343997
     7  C    5.329781   4.530518   5.085567   3.085638   2.528077
     8  H    6.277665   5.434740   5.888145   4.027596   3.298118
     9  C    5.927003   5.210235   5.795672   3.818165   3.400570
    10  C    7.046003   6.474733   7.182542   5.047040   4.782059
    11  C    6.773021   6.421119   7.319981   5.023984   5.094751
    12  C    6.179148   5.806351   6.694614   4.423411   4.499335
    13  C    4.832862   4.333120   5.171580   2.929823   3.003397
    14  H    4.699324   4.193978   4.966412   2.944075   3.005555
    15  N    3.921462   3.705916   4.760600   2.466624   3.130875
    16  C    2.665346   2.474942   3.596677   1.451414   2.542808
    17  H    3.731838   2.497963   2.181333   2.098135   1.086761
    18  H    5.495670   4.375899   4.397052   3.284126   2.010862
    19  H    5.288339   4.695976   5.375185   3.411803   3.306196
    20  H    6.498469   5.651202   6.035172   4.352809   3.665070
    21  H    7.621597   7.101145   7.808683   5.736899   5.526148
    22  H    7.808042   7.141998   7.756101   5.687519   5.221855
    23  H    6.299953   6.105387   7.098410   4.813986   5.136300
    24  H    7.786360   7.483434   8.399749   6.095309   6.162014
    25  H    6.244716   6.068595   7.060338   4.810231   5.128319
    26  H    6.949072   6.460928   7.231207   5.063299   4.897606
    27  H    2.302784   2.593765   3.803112   2.146129   3.410955
                    6          7          8          9         10
     6  N    0.000000
     7  C    1.465771   0.000000
     8  H    2.040701   1.101411   0.000000
     9  C    2.513204   1.525948   2.135552   0.000000
    10  C    3.823622   2.491177   2.654152   1.533143   0.000000
    11  C    4.332869   2.910248   3.157977   2.534880   1.533331
    12  C    3.783323   2.467237   2.598617   2.949073   2.535665
    13  C    2.490101   1.533370   2.140668   2.510011   2.954391
    14  H    2.656748   2.162479   2.501543   3.460902   3.958211
    15  N    3.150765   2.517017   3.423052   2.944983   3.483849
    16  C    3.108934   3.075376   4.084201   3.569997   4.471486
    17  H    2.053147   3.448174   4.070642   4.258285   5.703423
    18  H    1.015499   2.080725   2.278195   2.850231   4.157750
    19  H    2.837931   2.153665   3.046004   1.095956   2.171025
    20  H    2.703571   2.161074   2.504062   1.098257   2.178756
    21  H    4.653075   3.445306   3.677126   2.161966   1.095957
    22  H    4.071569   2.766319   2.468701   2.157574   1.099247
    23  H    4.625971   3.353818   3.887502   2.828572   2.159384
    24  H    5.340397   3.886631   3.928808   3.483964   2.170739
    25  H    4.611761   3.427074   3.610530   3.942579   3.483527
    26  H    3.978656   2.694550   2.352192   3.346198   2.827730
    27  H    4.131184   4.110676   5.140112   4.393165   5.211058
                   11         12         13         14         15
    11  C    0.000000
    12  C    1.528400   0.000000
    13  C    2.513396   1.534028   0.000000
    14  H    3.466770   2.166284   1.099997   0.000000
    15  N    2.882401   2.399213   1.457809   2.100061   0.000000
    16  C    4.108086   3.621619   2.376349   2.665988   1.289134
    17  H    6.136551   5.542744   4.057540   3.950727   4.195784
    18  H    4.933705   4.501088   3.373155   3.533481   4.120478
    19  H    2.825935   3.346079   2.731541   3.722994   2.581181
    20  H    3.490203   3.943247   3.464899   4.296254   3.949939
    21  H    2.170587   3.482233   3.925071   4.974945   4.187509
    22  H    2.163729   2.840134   3.410757   4.245760   4.268788
    23  H    1.095788   2.143034   2.766831   3.763069   2.540066
    24  H    1.096743   2.161385   3.466481   4.301398   3.872894
    25  H    2.165240   1.095680   2.157337   2.485809   2.617474
    26  H    2.170186   1.098412   2.162525   2.476165   3.357300
    27  H    4.746591   4.417970   3.357091   3.648696   2.033710
                   16         17         18         19         20
    16  C    0.000000
    17  H    3.474703   0.000000
    18  H    4.081923   2.264813   0.000000
    19  H    3.010064   4.180920   3.332641   0.000000
    20  H    4.386989   4.304612   2.643235   1.771674   0.000000
    21  H    5.104620   6.405330   4.915126   2.481111   2.522058
    22  H    5.265532   6.071331   4.222581   3.068294   2.469322
    23  H    3.694846   6.195619   5.329261   2.679869   3.835167
    24  H    5.131036   7.198303   5.881474   3.835487   4.321824
    25  H    3.821751   6.181719   5.416054   4.161827   4.980194
    26  H    4.486899   5.859274   4.528720   4.011964   4.160556
    27  H    1.091637   4.204199   5.068873   3.645362   5.198586
                   21         22         23         24         25
    21  H    0.000000
    22  H    1.765830   0.000000
    23  H    2.462903   3.063102   0.000000
    24  H    2.529337   2.465552   1.766143   0.000000
    25  H    4.310488   3.836380   2.450870   2.504442   0.000000
    26  H    3.838094   2.691661   3.059795   2.487849   1.770058
    27  H    5.699228   6.103771   4.115147   5.709475   4.449246
                   26         27
    26  H    0.000000
    27  H    5.373276   0.000000
 Symmetry turned off by external request.
 Stoichiometry    C9H13N3O2
 Framework group  C1[X(C9H13N3O2)]
 Deg. of freedom    75
 Full point group                 C1      NOp   1
 Rotational constants (GHZ):           1.6675848           0.4221270           0.3735826
 Standard basis: 6-31G(d) (6D, 7F)
   236 basis functions,   444 primitive gaussians,   236 cartesian basis functions
    52 alpha electrons       52 beta electrons
       nuclear repulsion energy       932.0143885316 Hartrees.
 NAtoms=   27 NActive=   27 NUniq=   27 SFac= 1.00D+00 NAtFMM=   60 NAOKFM=F Big=F
 Integral buffers will be    131072 words long.
 Raffenetti 1 integral format.
 Two-electron integral symmetry is turned off.
 One-electron integrals computed using PRISM.
 NBasis=   236 RedAO= T EigKep=  1.02D-03  NBF=   236
 NBsUse=   236 1.00D-06 EigRej= -1.00D+00 NBFU=   236
 Initial guess from the checkpoint file:  "/home/alexey/tmp/Gau-1570103.chk"
 B after Tr=     0.059190    0.005332    0.002289
         Rot=    0.999998   -0.001748    0.000868    0.000981 Ang=  -0.25 deg.
 ExpMin= 1.61D-01 ExpMax= 5.48D+03 ExpMxC= 8.25D+02 IAcc=3 IRadAn=         5 AccDes= 0.00D+00
 Harris functional with IExCor=  205 and IRadAn=       5 diagonalized for initial guess.
 HarFok:  IExCor=  205 AccDes= 0.00D+00 IRadAn=         5 IDoV= 1 UseB2=F ITyADJ=14
 ICtDFT=  3500011 ScaDFX=  1.000000  1.000000  1.000000  1.000000
 FoFCou: FMM=F IPFlag=           0 FMFlag=      100000 FMFlg1=           0
         NFxFlg=           0 DoJE=T BraDBF=F KetDBF=T FulRan=T
         wScrn=  0.000000 ICntrl=       500 IOpCl=  0 I1Cent=   200000004 NGrid=           0
         NMat0=    1 NMatS0=      1 NMatT0=    0 NMatD0=    1 NMtDS0=    0 NMtDT0=    0
 Symmetry not used in FoFCou.
 Keep R1 ints in memory in canonical form, NReq=397720213.
 Requested convergence on RMS density matrix=1.00D-08 within 128 cycles.
 Requested convergence on MAX density matrix=1.00D-06.
 Requested convergence on             energy=1.00D-06.
 No special actions if energy rises.
 SCF Done:  E(RHF) =  -661.298942958     A.U. after   14 cycles
            NFock= 14  Conv=0.92D-08     -V/T= 2.0024
 ExpMin= 1.61D-01 ExpMax= 5.48D+03 ExpMxC= 8.25D+02 IAcc=3 IRadAn=         5 AccDes= 0.00D+00
 HarFok:  IExCor=  205 AccDes= 0.00D+00 IRadAn=         5 IDoV=-2 UseB2=F ITyADJ=14
 ICtDFT= 12500011 ScaDFX=  1.000000  1.000000  1.000000  1.000000
 Range of M.O.s used for correlation:    15   236
 NBasis=   236 NAE=    52 NBE=    52 NFC=    14 NFV=     0
 NROrb=    222 NOA=    38 NOB=    38 NVA=   184 NVB=   184
 Fully direct method using O(ONN) memory.
 JobTyp=1 Pass  1:  I=  15 to  52 NPSUse=  4 ParTrn=T ParDer=T DoDerP=T.
 Spin components of T(2) and E(2):
     alpha-alpha T2 =       0.9132798810D-01 E2=     -0.2724380442D+00
     alpha-beta  T2 =       0.4911208975D+00 E2=     -0.1487864352D+01
     beta-beta   T2 =       0.9132798810D-01 E2=     -0.2724380442D+00
 ANorm=    0.1293745289D+01
 E2 =    -0.2032740441D+01 EUMP2 =    -0.66333168339855D+03
          IDoAtm=111111111111111111111111111
          Differentiating once with respect to electric field.
                with respect to dipole field.
          Differentiating once with respect to nuclear coordinates.
 Keep R1 ints in memory in canonical form, NReq=397723379.
          There are     1 degrees of freedom in the 1st order CPHF.  IDoFFX=0 NUNeed=     1.
 LinEq1:  Iter=  0 NonCon=     1 RMS=4.59D-03 Max=1.09D-01 NDo=     1
 AX will form     1 AO Fock derivatives at one time.
 LinEq1:  Iter=  1 NonCon=     1 RMS=1.54D-03 Max=2.92D-02 NDo=     1
 LinEq1:  Iter=  2 NonCon=     1 RMS=6.46D-04 Max=1.83D-02 NDo=     1
 LinEq1:  Iter=  3 NonCon=     1 RMS=2.81D-04 Max=8.52D-03 NDo=     1
[...]
    21  H    5.093820   6.416796   5.047933   2.499548   2.520153
    22  H    5.252269   6.066893   4.300079   3.070343   2.461270
    23  H    3.685569   6.190391   5.402934   2.703925   3.842923
    24  H    5.128947   7.189626   5.932768   3.849284   4.316843
    25  H    3.819703   6.151545   5.392140   4.171060   4.985856
    26  H    4.499620   5.852461   4.515554   4.035115   4.182553
    27  H    1.089680   4.196438   5.086274   3.595348   5.166298
                   21         22         23         24         25
    21  H    0.000000
    22  H    1.758941   0.000000
    23  H    2.469725   3.062498   0.000000
    24  H    2.517206   2.459924   1.764532   0.000000
    25  H    4.312029   3.839730   2.443669   2.519545   0.000000
    26  H    3.846934   2.704583   3.060446   2.492491   1.768353
    27  H    5.654068   6.065040   4.077516   5.683487   4.440879
                   26         27
    26  H    0.000000
    27  H    5.375447   0.000000
 Symmetry turned off by external request.
 Stoichiometry    C9H13N3O2
 Framework group  C1[X(C9H13N3O2)]
 Deg. of freedom    75
 Full point group                 C1      NOp   1
 Rotational constants (GHZ):           1.6691111           0.4195571           0.3727368

 **********************************************************************

            Population analysis using the SCF Density.

 **********************************************************************

 Alpha  occ. eigenvalues --  -20.59238 -20.58903 -15.84733 -15.64196 -15.55950
 Alpha  occ. eigenvalues --  -11.35072 -11.29608 -11.29561 -11.28657 -11.27095
 Alpha  occ. eigenvalues --  -11.23849 -11.23261 -11.22645 -11.22092  -1.57127
 Alpha  occ. eigenvalues --   -1.36712  -1.31003  -1.22982  -1.14728  -1.09833
 Alpha  occ. eigenvalues --   -1.02814  -1.01341  -0.94477  -0.89697  -0.85635
 Alpha  occ. eigenvalues --   -0.82437  -0.78620  -0.77411  -0.75190  -0.72009
 Alpha  occ. eigenvalues --   -0.69719  -0.69470  -0.67855  -0.64844  -0.63812
 Alpha  occ. eigenvalues --   -0.62581  -0.60158  -0.57645  -0.56957  -0.55106
 Alpha  occ. eigenvalues --   -0.54637  -0.50755  -0.50210  -0.48680  -0.48112
 Alpha  occ. eigenvalues --   -0.47373  -0.46205  -0.46006  -0.43690  -0.41765
 Alpha  occ. eigenvalues --   -0.39668  -0.33739
 Alpha virt. eigenvalues --    0.07447   0.11755   0.17336   0.21870   0.24038
 Alpha virt. eigenvalues --    0.25533   0.27300   0.28698   0.29054   0.29671
 Alpha virt. eigenvalues --    0.30667   0.31810   0.32139   0.32790   0.33845
 Alpha virt. eigenvalues --    0.34377   0.35897   0.37396   0.38522   0.40305
 Alpha virt. eigenvalues --    0.41348   0.42368   0.44823   0.46020   0.46579
 Alpha virt. eigenvalues --    0.47310   0.49029   0.54071   0.57406   0.59410
 Alpha virt. eigenvalues --    0.63957   0.69414   0.69732   0.72860   0.74162
 Alpha virt. eigenvalues --    0.74947   0.75738   0.76633   0.78739   0.79297
 Alpha virt. eigenvalues --    0.81403   0.84738   0.85531   0.85731   0.88453
 Alpha virt. eigenvalues --    0.89087   0.91477   0.91978   0.92882   0.94555
 Alpha virt. eigenvalues --    0.95559   0.98113   0.99641   1.01451   1.02380
 Alpha virt. eigenvalues --    1.03219   1.05887   1.06913   1.08027   1.09025
 Alpha virt. eigenvalues --    1.10361   1.11794   1.11941   1.12521   1.13901
 Alpha virt. eigenvalues --    1.14737   1.15019   1.16119   1.17030   1.18720
 Alpha virt. eigenvalues --    1.18746   1.21503   1.22777   1.23742   1.24228
 Alpha virt. eigenvalues --    1.25404   1.25784   1.26831   1.27566   1.29691
 Alpha virt. eigenvalues --    1.30131   1.32824   1.36276   1.37421   1.40611
 Alpha virt. eigenvalues --    1.42356   1.44774   1.48629   1.52592   1.55339
 Alpha virt. eigenvalues --    1.56955   1.58451   1.60034   1.62401   1.66025
 Alpha virt. eigenvalues --    1.68180   1.68272   1.73267   1.75543   1.78073
 Alpha virt. eigenvalues --    1.81350   1.84619   1.87776   1.90577   1.93030
 Alpha virt. eigenvalues --    1.95911   1.96763   1.99672   2.01521   2.02093
 Alpha virt. eigenvalues --    2.04757   2.05609   2.08766   2.09591   2.12363
 Alpha virt. eigenvalues --    2.12976   2.15361   2.19391   2.19907   2.21781
 Alpha virt. eigenvalues --    2.23249   2.24767   2.25422   2.28108   2.29353
 Alpha virt. eigenvalues --    2.31413   2.33550   2.34497   2.36240   2.38192
 Alpha virt. eigenvalues --    2.40916   2.42150   2.43537   2.44654   2.47821
 Alpha virt. eigenvalues --    2.50522   2.51867   2.53224   2.55761   2.60921
 Alpha virt. eigenvalues --    2.62352   2.65527   2.67363   2.70015   2.70574
 Alpha virt. eigenvalues --    2.71941   2.72127   2.76145   2.78198   2.84131
 Alpha virt. eigenvalues --    2.88392   2.89193   2.92797   2.93017   2.96007
 Alpha virt. eigenvalues --    2.99133   3.01301   3.04378   3.06322   3.07682
 Alpha virt. eigenvalues --    3.09585   3.15653   3.20812   3.25313   3.27506
 Alpha virt. eigenvalues --    3.33895   3.38114   3.38661   3.51975   3.66039
 Alpha virt. eigenvalues --    4.13977   4.28010   4.34401   4.38976   4.46748
 Alpha virt. eigenvalues --    4.56165   4.61906   4.62482   4.73330   4.80146
 Alpha virt. eigenvalues --    4.99460   5.00822   5.05284   5.11155
          Condensed to atoms (all electrons):
               1          2          3          4          5          6
     1  O    8.316527   0.305710  -0.082537  -0.084449   0.004629  -0.000015
     2  N    0.305710   5.723358   0.301327   0.262604  -0.053947   0.000978
     3  O   -0.082537   0.301327   8.353334  -0.092552   0.003184   0.000800
     4  C   -0.084449   0.262604  -0.092552   5.234014   0.558908  -0.047833
     5  C    0.004629  -0.053947   0.003184   0.558908   4.711934   0.317706
     6  N   -0.000015   0.000978   0.000800  -0.047833   0.317706   7.192153
     7  C    0.000003  -0.000131   0.000003   0.005405  -0.029196   0.173183
     8  H   -0.000000   0.000002  -0.000000  -0.000298   0.003399  -0.050045
     9  C   -0.000000  -0.000005  -0.000000   0.000888   0.000057  -0.062730
    10  C   -0.000000   0.000000   0.000000  -0.000044  -0.000032   0.003817
    11  C   -0.000000  -0.000000  -0.000000  -0.000024   0.000022  -0.000177
    12  C   -0.000000   0.000002  -0.000000  -0.000162  -0.000209   0.003805
    13  C   -0.000021  -0.000022  -0.000003  -0.010598  -0.000884  -0.049763
    14  H   -0.000002  -0.000096   0.000001   0.002327   0.004990  -0.006501
    15  N    0.000465   0.002305  -0.000016  -0.064008  -0.006623   0.001735
    16  C    0.000272  -0.026125   0.002608   0.325185  -0.051630  -0.001301
    17  H    0.000232  -0.007383   0.017781  -0.023256   0.374363  -0.033972
    18  H    0.000001  -0.000052   0.000012   0.001483  -0.031719   0.338256
    19  H    0.000001  -0.000007   0.000000  -0.001365   0.001533  -0.000508
    20  H    0.000000  -0.000000   0.000000  -0.000072   0.000107  -0.000367
    21  H   -0.000000   0.000000  -0.000000   0.000001   0.000001  -0.000080
    22  H   -0.000000   0.000000  -0.000000  -0.000000  -0.000003  -0.000112
    23  H    0.000000  -0.000000   0.000000   0.000041  -0.000000  -0.000031
    24  H    0.000000   0.000000   0.000000   0.000000  -0.000000   0.000006
    25  H    0.000000  -0.000000   0.000000   0.000024   0.000001  -0.000089
    26  H    0.000000  -0.000000   0.000000   0.000006  -0.000001  -0.000066
    27  H    0.006469  -0.000811   0.000032  -0.064750   0.002046   0.000019
               7          8          9         10         11         12
     1  O    0.000003  -0.000000  -0.000000  -0.000000  -0.000000  -0.000000
     2  N   -0.000131   0.000002  -0.000005   0.000000  -0.000000   0.000002
     3  O    0.000003  -0.000000  -0.000000   0.000000  -0.000000  -0.000000
     4  C    0.005405  -0.000298   0.000888  -0.000044  -0.000024  -0.000162
     5  C   -0.029196   0.003399   0.000057  -0.000032   0.000022  -0.000209
     6  N    0.173183  -0.050045  -0.062730   0.003817  -0.000177   0.003805
     7  C    5.020346   0.417808   0.351897  -0.054495  -0.009224  -0.061615
     8  H    0.417808   0.535070  -0.054667   0.000718  -0.000267  -0.002229
     9  C    0.351897  -0.054667   5.159813   0.325189  -0.050692  -0.005302
    10  C   -0.054495   0.000718   0.325189   5.117817   0.337307  -0.060957
    11  C   -0.009224  -0.000267  -0.050692   0.337307   5.120338   0.335757
    12  C   -0.061615  -0.002229  -0.005302  -0.060957   0.335757   5.119244
    13  C    0.334588  -0.037076  -0.060433  -0.000334  -0.050409   0.372795
    14  H   -0.046261  -0.000895   0.004401  -0.000407   0.004216  -0.036485
    15  N   -0.058253   0.003823  -0.014315   0.001493  -0.013220  -0.082707
    16  C   -0.001860  -0.000005  -0.001085  -0.000041   0.000022   0.002423
    17  H    0.001539  -0.000044  -0.000078   0.000001   0.000000   0.000000
    18  H   -0.021771  -0.004217   0.001104  -0.000082   0.000005  -0.000114
    19  H   -0.036949   0.004306   0.390442  -0.031985  -0.002159   0.000683
    20  H   -0.043053  -0.002128   0.399321  -0.035077   0.003933  -0.000427
    21  H    0.004599  -0.000080  -0.036416   0.402367  -0.034885   0.004351
    22  H   -0.004843   0.003539  -0.047017   0.397821  -0.045238  -0.001011
    23  H    0.000598   0.000032  -0.001975  -0.039047   0.399133  -0.037877
    24  H   -0.000134  -0.000101   0.004412  -0.038496   0.402384  -0.038609
    25  H    0.005205  -0.000029  -0.000415   0.004187  -0.033388   0.398164
    26  H   -0.003791   0.001649   0.000979  -0.002233  -0.041530   0.396714
    27  H   -0.000409   0.000009  -0.000055   0.000006   0.000013  -0.000035
              13         14         15         16         17         18
     1  O   -0.000021  -0.000002   0.000465   0.000272   0.000232   0.000001
     2  N   -0.000022  -0.000096   0.002305  -0.026125  -0.007383  -0.000052
     3  O   -0.000003   0.000001  -0.000016   0.002608   0.017781   0.000012
     4  C   -0.010598   0.002327  -0.064008   0.325185  -0.023256   0.001483
     5  C   -0.000884   0.004990  -0.006623  -0.051630   0.374363  -0.031719
     6  N   -0.049763  -0.006501   0.001735  -0.001301  -0.033972   0.338256
     7  C    0.334588  -0.046261  -0.058253  -0.001860   0.001539  -0.021771
     8  H   -0.037076  -0.000895   0.003823  -0.000005  -0.000044  -0.004217
     9  C   -0.060433   0.004401  -0.014315  -0.001085  -0.000078   0.001104
    10  C   -0.000334  -0.000407   0.001493  -0.000041   0.000001  -0.000082
    11  C   -0.050409   0.004216  -0.013220   0.000022   0.000000   0.000005
    12  C    0.372795  -0.036485  -0.082707   0.002423   0.000000  -0.000114
    13  C    5.038788   0.404596   0.244266  -0.069903  -0.000011   0.003214
    14  H    0.404596   0.523383  -0.036967  -0.004424   0.000069  -0.000098
    15  N    0.244266  -0.036967   6.972579   0.585571  -0.000070  -0.000142
    16  C   -0.069903  -0.004424   0.585571   4.711632   0.001965  -0.000204
    17  H   -0.000011   0.000069  -0.000070   0.001965   0.375394  -0.002840
    18  H    0.003214  -0.000098  -0.000142  -0.000204  -0.002840   0.312040
    19  H   -0.007542   0.000098   0.007509   0.002960   0.000018  -0.000150
    20  H    0.004394  -0.000066   0.000122  -0.000039   0.000000   0.001125
    21  H   -0.000438   0.000010  -0.000045   0.000004  -0.000000   0.000001
    22  H    0.000029  -0.000054   0.000022  -0.000002   0.000000   0.000002
    23  H   -0.007609   0.000004   0.008720   0.000120   0.000000   0.000000
    24  H    0.004697  -0.000057   0.000132   0.000007   0.000000  -0.000000
    25  H   -0.035559  -0.002831   0.000588  -0.000026  -0.000000   0.000002
    26  H   -0.047561  -0.001039   0.004944  -0.000050   0.000000  -0.000000
    27  H    0.004988  -0.000173  -0.040345   0.404829  -0.000085   0.000001
              19         20         21         22         23         24
     1  O    0.000001   0.000000  -0.000000  -0.000000   0.000000   0.000000
     2  N   -0.000007  -0.000000   0.000000   0.000000  -0.000000   0.000000
     3  O    0.000000   0.000000  -0.000000  -0.000000   0.000000   0.000000
     4  C   -0.001365  -0.000072   0.000001  -0.000000   0.000041   0.000000
     5  C    0.001533   0.000107   0.000001  -0.000003  -0.000000  -0.000000
     6  N   -0.000508  -0.000367  -0.000080  -0.000112  -0.000031   0.000006
     7  C   -0.036949  -0.043053   0.004599  -0.004843   0.000598  -0.000134
     8  H    0.004306  -0.002128  -0.000080   0.003539   0.000032  -0.000101
     9  C    0.390442   0.399321  -0.036416  -0.047017  -0.001975   0.004412
    10  C   -0.031985  -0.035077   0.402367   0.397821  -0.039047  -0.038496
    11  C   -0.002159   0.003933  -0.034885  -0.045238   0.399133   0.402384
    12  C    0.000683  -0.000427   0.004351  -0.001011  -0.037877  -0.038609
    13  C   -0.007542   0.004394  -0.000438   0.000029  -0.007609   0.004697
    14  H    0.000098  -0.000066   0.000010  -0.000054   0.000004  -0.000057
    15  N    0.007509   0.000122  -0.000045   0.000022   0.008720   0.000132
    16  C    0.002960  -0.000039   0.000004  -0.000002   0.000120   0.000007
    17  H    0.000018   0.000000  -0.000000   0.000000   0.000000   0.000000
    18  H   -0.000150   0.001125   0.000001   0.000002   0.000000  -0.000000
    19  H    0.505167  -0.025048  -0.002793   0.003963   0.001515  -0.000067
    20  H   -0.025048   0.543217  -0.002717  -0.002989  -0.000044  -0.000084
    21  H   -0.002793  -0.002717   0.524005  -0.027386  -0.002887  -0.002246
    22  H    0.003963  -0.002989  -0.027386   0.570657   0.004130  -0.003651
    23  H    0.001515  -0.000044  -0.002887   0.004130   0.498862  -0.025449
    24  H   -0.000067  -0.000084  -0.002246  -0.003651  -0.025449   0.537957
    25  H   -0.000030   0.000012  -0.000086  -0.000081  -0.002305  -0.002310
    26  H    0.000020  -0.000030  -0.000080   0.002375   0.004069  -0.003022
    27  H    0.000081   0.000000  -0.000000   0.000000  -0.000037  -0.000000
              25         26         27
     1  O    0.000000   0.000000   0.006469
     2  N   -0.000000  -0.000000  -0.000811
     3  O    0.000000   0.000000   0.000032
     4  C    0.000024   0.000006  -0.064750
     5  C    0.000001  -0.000001   0.002046
     6  N   -0.000089  -0.000066   0.000019
     7  C    0.005205  -0.003791  -0.000409
     8  H   -0.000029   0.001649   0.000009
     9  C   -0.000415   0.000979  -0.000055
    10  C    0.004187  -0.002233   0.000006
    11  C   -0.033388  -0.041530   0.000013
    12  C    0.398164   0.396714  -0.000035
    13  C   -0.035559  -0.047561   0.004988
    14  H   -0.002831  -0.001039  -0.000173
    15  N    0.000588   0.004944  -0.040345
    16  C   -0.000026  -0.000050   0.404829
    17  H   -0.000000   0.000000  -0.000085
    18  H    0.000002  -0.000000   0.000001
    19  H   -0.000030   0.000020   0.000081
    20  H    0.000012  -0.000030   0.000000
    21  H   -0.000086  -0.000080  -0.000000
    22  H   -0.000081   0.002375   0.000000
    23  H   -0.002305   0.004069  -0.000037
    24  H   -0.002310  -0.003022  -0.000000
    25  H    0.505995  -0.024009  -0.000014
    26  H   -0.024009   0.562407   0.000001
    27  H   -0.000014   0.000001   0.436775
 Mulliken charges:
               1
     1  O   -0.467286
     2  N    0.492292
     3  O   -0.503973
     4  C   -0.001476
     5  C    0.191364
     6  N   -0.778867
     7  C    0.056810
     8  H    0.181727
     9  C   -0.303319
    10  C   -0.327495
    11  C   -0.321917
    12  C   -0.306200
    13  C   -0.034190
    14  H    0.192261
    15  N   -0.517562
    16  C    0.119096
    17  H    0.296374
    18  H    0.404141
    19  H    0.190306
    20  H    0.159911
    21  H    0.174799
    22  H    0.149848
    23  H    0.200036
    24  H    0.164633
    25  H    0.186993
    26  H    0.150251
    27  H    0.251445
 Sum of Mulliken charges =  -0.00000
 Mulliken charges with hydrogens summed into heavy atoms:
               1
     1  O   -0.467286
     2  N    0.492292
     3  O   -0.503973
     4  C   -0.001476
     5  C    0.487737
     6  N   -0.374726
     7  C    0.238537
     9  C    0.046897
    10  C   -0.002848
    11  C    0.042752
    12  C    0.031045
    13  C    0.158071
    15  N   -0.517562
    16  C    0.370541
 Electronic spatial extent (au):  <R**2>=           3004.2465
 Charge=             -0.0000 electrons
 Dipole moment (field-independent basis, Debye):
    X=              5.4421    Y=              4.7840    Z=              1.2240  Tot=              7.3486
 Quadrupole moment (field-independent basis, Debye-Ang):
   XX=           -106.0921   YY=            -78.9854   ZZ=            -81.8443
   XY=             -1.4552   XZ=             -0.6922   YZ=              1.2670
 Traceless Quadrupole moment (field-independent basis, Debye-Ang):
   XX=            -17.1182   YY=              9.9885   ZZ=              7.1297
   XY=             -1.4552   XZ=             -0.6922   YZ=              1.2670
 Octapole moment (field-independent basis, Debye-Ang**2):
  XXX=             92.2639  YYY=             36.2815  ZZZ=             -2.2050  XYY=             -4.9345
  XXY=              8.4730  XXZ=              7.9051  XZZ=             -9.0125  YZZ=             -0.7185
  YYZ=              6.6753  XYZ=              1.0684
 Hexadecapole moment (field-independent basis, Debye-Ang**3):
 XXXX=          -3371.9711 YYYY=           -599.9151 ZZZZ=           -308.1856 XXXY=            -12.3083
 XXXZ=            -41.1576 YYYX=             -3.1023 YYYZ=             21.9192 ZZZX=            -12.2901
 ZZZY=              5.4582 XXYY=           -626.3971 XXZZ=           -525.3079 YYZZ=           -159.8654
 XXYZ=             -5.2598 YYXZ=             -2.9039 ZZXY=              5.8945
 N-N= 9.310942403549D+02 E-N=-3.408898305838D+03  KE= 6.596277058339D+02
 Unable to Open any file for archive entry.
 1\1\GINC-LOTUS\FOpt\RMP2-FC\6-31G(d)\C9H13N3O2\ALEXEY\02-Jul-2023\0\\#
 MP2/6-31G* SCF=Tight Opt=(ModRedun, MaxCycle=20 ) NoSymm\\MolName:\\0,
 1\O,-3.5143538875,-1.364466544,-0.4421609379\N,-3.1188983661,-0.213510
 0978,-0.1734064613\O,-3.8830342825,0.7623877045,-0.0417194014\C,-1.687
 249882,-0.0299110165,0.0082335069\C,-1.2957677714,1.2585978042,0.26991
 6663\N,-0.0562096083,1.7316692802,0.4672338479\C,1.211474932,1.0179622
 464,0.4027704579\H,1.8712653477,1.544748727,1.1081285531\C,1.879857477
 4,1.0415992309,-0.9703810319\C,3.2833105409,0.4371338829,-0.8456055998
 \C,3.2539409576,-0.9638181206,-0.2285955041\C,2.491716779,-0.986689392
 ,1.0980114979\C,1.0750067082,-0.4357131354,0.8990665995\H,0.5214096843
 ,-0.4248419689,1.8505941921\N,0.4108663581,-1.3264725182,-0.0469175908
 \C,-0.8424717666,-1.1610520357,-0.3217488127\H,-2.080232988,2.01029158
 73,0.2824753116\H,0.0067620824,2.7328732433,0.6120800543\H,1.268847295
 4,0.4674578777,-1.6752544727\H,1.9346406218,2.0723223491,-1.3428420993
 \H,3.762841087,0.4077404472,-1.830716978\H,3.8969825445,1.1002371005,-
 0.21940442\H,2.7606873335,-1.6566065264,-0.9176448396\H,4.2781191346,-
 1.3259786912,-0.079993023\H,2.4187130257,-2.0117776126,1.4757684119\H,
 3.0183974562,-0.3926382312,1.8576565805\H,-1.3076308134,-1.9295355909,
 -0.9385645041\\Version=ES64L-G16RevC.02\HF=-661.2996727\MP2=-663.33387
 9\RMSD=4.715e-09\RMSF=9.855e-04\Dipole=1.9930297,1.6896447,0.4477409\P
 G=C01 [X(C9H13N3O2)]\\@
 The archive entry for this job was punched.


 IT WAS A GAME, A VERY INTERESTING GAME ONE COULD
 PLAY.  WHENEVER ONE SOLVED ONE OF THE LITTLE PROBLEMS,
 ONE COULD WRITE A PAPER ABOUT IT.  IT WAS VERY EASY IN
 THOSE DAYS FOR ANY SECOND-RATE PHYSICIST TO DO
 FIRST-RATE WORK.  THERE HAS NOT BEEN SUCH A GLORIOUS
 TIME SINCE.  IT IS VERY DIFFICULT NOW FOR A FIRST-RATE
 PHYSICIST TO DO SECOND-RATE WORK.
     P.A.M. DIRAC, ON THE EARLY DAYS OF QUANTUM MECHANICS
                   DIRECTIONS IN PHYSICS, 1978, P. 7
 Job cpu time:       0 days  1 hours 10 minutes 52.6 seconds.
 Elapsed time:       0 days  0 hours 21 minutes 13.6 seconds.
 File lengths (MBytes):  RWF=     36 Int=      0 D2E=      0 Chk=      7 Scr=      1
 Normal termination of Gaussian 16 at Sun Jul  2 20:06:03 2023.
