 Entering Gaussian System, Link 0=g16
 Initial command:
 /home/alexey/programs//g16/l1.exe "/home/alexey/tmp/Gau-1572859.inp" -scrdir="/home/alexey/tmp/"
 Entering Link 1 = /home/alexey/programs//g16/l1.exe PID=   1572861.
  
 Copyright (c) 1988-2021, Gaussian, Inc.  All Rights Reserved.
  
 This is part of the Gaussian(R) 16 program.  It is based on
 the Gaussian(R) 09 system (copyright 2009, Gaussian, Inc.),
 the Gaussian(R) 03 system (copyright 2003, Gaussian, Inc.),
 the Gaussian(R) 98 system (copyright 1998, Gaussian, Inc.),
 the Gaussian(R) 94 system (copyright 1995, Gaussian, Inc.),
 the Gaussian 92(TM) system (copyright 1992, Gaussian, Inc.),
 the Gaussian 90(TM) system (copyright 1990, Gaussian, Inc.),
 the Gaussian 88(TM) system (copyright 1988, Gaussian, Inc.),
 the Gaussian 86(TM) system (copyright 1986, Carnegie Mellon
 University), and the Gaussian 82(TM) system (copyright 1983,
 Carnegie Mellon University). Gaussian is a federally registered
 trademark of Gaussian, Inc.
  
 This software contains proprietary and confidential information,
 including trade secrets, belonging to Gaussian, Inc.
  
 This software is provided under written license and may be
 used, copied, transmitted, or stored only in accord with that
 written license.
  
 The following legend is applicable only to US Government
 contracts under FAR:
  
                    RESTRICTED RIGHTS LEGEND
  
 Use, reproduction and disclosure by the US Government is
 subject to restrictions as set forth in subparagraphs (a)
 and (c) of the Commercial Computer Software - Restricted
 Rights clause in FAR 52.227-19.
  
 Gaussian, Inc.
 340 Quinnipiac St., Bldg. 40, Wallingford CT 06492
  
  
 ---------------------------------------------------------------
 Warning -- This program may not be used in any manner that
 competes with the business of Gaussian, Inc. or will provide
 assistance to any competitor of Gaussian, Inc.  The licensee
 of this program is prohibited from giving any competitor of
 Gaussian, Inc. access to this program.  By using this program,
 the user acknowledges that Gaussian, Inc. is engaged in the
 business of creating and licensing software in the field of
 computational chemistry and represents and warrants to the
 licensee that it is not a competitor of Gaussian, Inc. and that
 it will not use this program in any manner prohibited above.
 ---------------------------------------------------------------
  

 Cite this work as:
 Gaussian 16, Revision C.02,
 M. J. Frisch, G. W. Trucks, H. B. Schlegel, G. E. Scuseria, 
 M. A. Robb, J. R. Cheeseman, G. Scalmani, V. Barone, 
 G. A. Petersson, H. Nakatsuji, X. Li, M. Caricato, A. V. Marenich, 
 J. Bloino, B. G. Janesko, R. Gomperts, B. Mennucci, H. P. Hratchian, 
 J. V. Ortiz, A. F. Izmaylov, J. L. Sonnenberg, D. Williams-Young, 
 F. Ding, F. Lipparini, F. Egidi, J. Goings, B. Peng, A. Petrone, 
 T. Henderson, D. Ranasinghe, V. G. Zakrzewski, J. Gao, N. Rega, 
 G. Zheng, W. Liang, M. Hada, M. Ehara, K. Toyota, R. Fukuda, 
 J. Hasegawa, M. Ishida, T. Nakajima, Y. Honda, O. Kitao, H. Nakai, 
 T. Vreven, K. Throssell, J. A. Montgomery, Jr., J. E. Peralta, 
 F. Ogliaro, M. J. Bearpark, J. J. Heyd, E. N. Brothers, K. N. Kudin, 
 V. N. Staroverov, T. A. Keith, R. Kobayashi, J. Normand, 
 K. Raghavachari, A. P. Rendell, J. C. Burant, S. S. Iyengar, 
 J. Tomasi, M. Cossi, J. M. Millam, M. Klene, C. Adamo, R. Cammi, 
 J. W. Ochterski, R. L. Martin, K. Morokuma, O. Farkas, 
 J. B. Foresman, and D. J. Fox, Gaussian, Inc., Wallingford CT, 2019.
 
 ******************************************
 Gaussian 16:  ES64L-G16RevC.02  7-Dec-2021
                 2-Jul-2023 
 ******************************************
 %mem=8GB
 %NPROCS=4
 Will use up to    4 processors via shared memory.
 %NoSave
 ---------------------------------------------------------
 #MP2/6-31G* SCF=Tight Opt=(ModRedun, MaxCycle=20 ) NoSymm
 ---------------------------------------------------------
 1/6=20,18=120,19=15,38=1/1,3;
 2/9=110,12=2,15=1,17=6,18=5,40=1/2;
 3/5=1,6=6,7=1,11=9,25=1,30=1,71=1/1,2,3;
 4//1;
 5/5=2,32=2,38=5/2;
 8/6=4,10=2/1;
 9/15=2,16=-3/6;
 10/5=1,31=1/2;
 6/7=2,8=2,9=2,10=2/1;
 7/12=2,30=1/1,2,3,16;
 1/6=20,18=20,19=15/3(2);
 2/9=110,15=1/2;
 99//99;
 2/9=110,15=1/2;
 3/5=1,6=6,7=1,11=9,25=1,30=1,71=1/1,2,3;
 4/5=5,16=3,69=1/1;
 5/5=2,32=2,38=5/2;
 8/6=4,10=2/1;
 9/15=2,16=-3/6;
 10/5=1,31=1/2;
 7/12=2,30=1/1,2,3,16;
 1/6=20,18=20,19=15/3(-8);
 2/9=110,15=1/2;
 6/7=2,8=2,9=2,10=2/1;
 99/9=10/99;
 --------
 MolName:
 --------
 Symbolic Z-matrix:
 Charge =  0 Multiplicity = 1
 8                    0    -3.64651  -1.31382  -0.53209 
 7                    0    -3.22104  -0.169    -0.3884 
 8                    0    -3.92134   0.83604  -0.51871 
 6                    0    -1.73454   0.00581  -0.05907 
 6                    0    -1.33465   1.30929   0.25876 
 7                    0    -0.08125   1.70051   0.63927 
 6                    0     1.20504   0.969     0.4763 
 1                    0     1.9291    1.47686   1.1656 
 6                    0     1.83618   1.03972  -0.93638 
 6                    0     3.27148   0.48274  -0.8824 
 6                    0     3.29334  -0.93544  -0.28995 
 6                    0     2.56986  -0.98797   1.07323 
 6                    0     1.10564  -0.48163   0.96042 
 1                    0     0.64645  -0.52834   1.97574 
 7                    0     0.37762  -1.37632   0.0591 
 6                    0    -0.89275  -1.22462  -0.12944 
 1                    0    -2.09003   2.11153   0.2197 
 1                    0     0.15139   2.6945    0.70329 
 1                    0     1.22837   0.45142  -1.65643 
 1                    0     1.8643    2.09207  -1.29052 
 1                    0     3.71239   0.47116  -1.9032 
 1                    0     3.89773   1.14711  -0.24608 
 1                    0     2.79091  -1.63191  -0.99867 
 1                    0     4.34398  -1.2793   -0.17138 
 1                    0     2.56804  -2.03544   1.4467 
 1                    0     3.12215  -0.36749   1.80966 
 1                    0    -1.43188  -2.09649  -0.52905 
 
 The following ModRedundant input section has been read:
 D      17       5       6       7 F                                           
 D       1       2       4      16 F                                           
 D       7      13      15      16 F                                           
 D       7       9      10      11 F                                           
 D       9      10      11      12 F                                           
 D       6       7      13      15 F                                           
 

 GradGradGradGradGradGradGradGradGradGradGradGradGradGradGradGradGradGrad
 Berny optimization.
 Initialization pass.
                           ----------------------------
                           !    Initial Parameters    !
                           ! (Angstroms and Degrees)  !
 --------------------------                            --------------------------
 ! Name  Definition              Value          Derivative Info.                !
 --------------------------------------------------------------------------------
 ! R1    R(1,2)                  1.2297         estimate D2E/DX2                !
 ! R2    R(2,3)                  1.2319         estimate D2E/DX2                !
 ! R3    R(2,4)                  1.5325         estimate D2E/DX2                !
 ! R4    R(4,5)                  1.4            estimate D2E/DX2                !
 ! R5    R(4,16)                 1.4925         estimate D2E/DX2                !
 ! R6    R(5,6)                  1.3671         estimate D2E/DX2                !
 ! R7    R(5,17)                 1.1026         estimate D2E/DX2                !
 ! R8    R(6,7)                  1.4887         estimate D2E/DX2                !
 ! R9    R(6,18)                 1.0229         estimate D2E/DX2                !
 ! R10   R(7,8)                  1.1213         estimate D2E/DX2                !
 ! R11   R(7,9)                  1.5489         estimate D2E/DX2                !
 ! R12   R(7,13)                 1.5325         estimate D2E/DX2                !
 ! R13   R(9,10)                 1.5405         estimate D2E/DX2                !
 ! R14   R(9,19)                 1.1109         estimate D2E/DX2                !
 ! R15   R(9,20)                 1.1107         estimate D2E/DX2                !
 ! R16   R(10,11)                1.5371         estimate D2E/DX2                !
 ! R17   R(10,21)                1.112          estimate D2E/DX2                !
 ! R18   R(10,22)                1.1129         estimate D2E/DX2                !
 ! R19   R(11,12)                1.5442         estimate D2E/DX2                !
 ! R20   R(11,23)                1.1135         estimate D2E/DX2                !
 ! R21   R(11,24)                1.1118         estimate D2E/DX2                !
 ! R22   R(12,13)                1.5534         estimate D2E/DX2                !
 ! R23   R(12,25)                1.1121         estimate D2E/DX2                !
 ! R24   R(12,26)                1.1101         estimate D2E/DX2                !
 ! R25   R(13,14)                1.1153         estimate D2E/DX2                !
 ! R26   R(13,15)                1.4639         estimate D2E/DX2                !
 ! R27   R(15,16)                1.2932         estimate D2E/DX2                !
 ! R28   R(16,27)                1.1002         estimate D2E/DX2                !
 ! A1    A(1,2,3)              123.3995         estimate D2E/DX2                !
 ! A2    A(1,2,4)              117.8321         estimate D2E/DX2                !
 ! A3    A(3,2,4)              118.7556         estimate D2E/DX2                !
 ! A4    A(2,4,5)              115.5971         estimate D2E/DX2                !
 ! A5    A(2,4,16)             116.2892         estimate D2E/DX2                !
 ! A6    A(5,4,16)             128.1105         estimate D2E/DX2                !
 ! A7    A(4,5,6)              126.2653         estimate D2E/DX2                !
 ! A8    A(4,5,17)             118.2749         estimate D2E/DX2                !
 ! A9    A(6,5,17)             115.4532         estimate D2E/DX2                !
 ! A10   A(5,6,7)              128.3973         estimate D2E/DX2                !
 ! A11   A(5,6,18)             120.2685         estimate D2E/DX2                !
 ! A12   A(7,6,18)             106.7289         estimate D2E/DX2                !
 ! A13   A(6,7,8)              105.5505         estimate D2E/DX2                !
 ! A14   A(6,7,9)              115.4353         estimate D2E/DX2                !
 ! A15   A(6,7,13)             111.9934         estimate D2E/DX2                !
 ! A16   A(8,7,9)              106.0737         estimate D2E/DX2                !
 ! A17   A(8,7,13)             106.0461         estimate D2E/DX2                !
 ! A18   A(9,7,13)             110.9635         estimate D2E/DX2                !
 ! A19   A(7,9,10)             109.3406         estimate D2E/DX2                !
 ! A20   A(7,9,19)             110.1245         estimate D2E/DX2                !
 ! A21   A(7,9,20)             110.1443         estimate D2E/DX2                !
 ! A22   A(10,9,19)            109.9389         estimate D2E/DX2                !
 ! A23   A(10,9,20)            109.2774         estimate D2E/DX2                !
 ! A24   A(19,9,20)            107.996          estimate D2E/DX2                !
 ! A25   A(9,10,11)            111.1206         estimate D2E/DX2                !
 ! A26   A(9,10,21)            109.9386         estimate D2E/DX2                !
 ! A27   A(9,10,22)            109.1771         estimate D2E/DX2                !
 ! A28   A(11,10,21)           109.7898         estimate D2E/DX2                !
 ! A29   A(11,10,22)           108.8088         estimate D2E/DX2                !
 ! A30   A(21,10,22)           107.9374         estimate D2E/DX2                !
 ! A31   A(10,11,12)           111.4063         estimate D2E/DX2                !
 ! A32   A(10,11,23)           108.9873         estimate D2E/DX2                !
 ! A33   A(10,11,24)           109.8702         estimate D2E/DX2                !
 ! A34   A(12,11,23)           109.2208         estimate D2E/DX2                !
 ! A35   A(12,11,24)           109.7598         estimate D2E/DX2                !
 ! A36   A(23,11,24)           107.5075         estimate D2E/DX2                !
 ! A37   A(11,12,13)           111.4956         estimate D2E/DX2                !
 ! A38   A(11,12,25)           109.2253         estimate D2E/DX2                !
 ! A39   A(11,12,26)           109.4827         estimate D2E/DX2                !
 ! A40   A(13,12,25)           109.2609         estimate D2E/DX2                !
 ! A41   A(13,12,26)           109.5686         estimate D2E/DX2                !
 ! A42   A(25,12,26)           107.7279         estimate D2E/DX2                !
 ! A43   A(7,13,12)            105.6848         estimate D2E/DX2                !
 ! A44   A(7,13,14)            110.7277         estimate D2E/DX2                !
 ! A45   A(7,13,15)            114.6004         estimate D2E/DX2                !
 ! A46   A(12,13,14)           107.9579         estimate D2E/DX2                !
 ! A47   A(12,13,15)           108.317          estimate D2E/DX2                !
 ! A48   A(14,13,15)           109.2786         estimate D2E/DX2                !
 ! A49   A(13,15,16)           120.4388         estimate D2E/DX2                !
 ! A50   A(4,16,15)            130.0824         estimate D2E/DX2                !
 ! A51   A(4,16,27)            113.2067         estimate D2E/DX2                !
 ! A52   A(15,16,27)           116.1904         estimate D2E/DX2                !
 ! D1    D(1,2,4,5)           -172.3331         estimate D2E/DX2                !
 ! D2    D(1,2,4,16)             8.2587         Frozen                          !
 ! D3    D(3,2,4,5)              8.9235         estimate D2E/DX2                !
 ! D4    D(3,2,4,16)          -170.4847         estimate D2E/DX2                !
 ! D5    D(2,4,5,6)            177.0717         estimate D2E/DX2                !
 ! D6    D(2,4,5,17)            -1.9528         estimate D2E/DX2                !
 ! D7    D(16,4,5,6)            -3.6026         estimate D2E/DX2                !
 ! D8    D(16,4,5,17)          177.3729         estimate D2E/DX2                !
 ! D9    D(2,4,16,15)          178.0616         estimate D2E/DX2                !
 ! D10   D(2,4,16,27)            6.7841         estimate D2E/DX2                !
 ! D11   D(5,4,16,15)           -1.2601         estimate D2E/DX2                !
 ! D12   D(5,4,16,27)         -172.5377         estimate D2E/DX2                !
 ! D13   D(4,5,6,7)             17.4103         estimate D2E/DX2                !
 ! D14   D(4,5,6,18)           170.0049         estimate D2E/DX2                !
 ! D15   D(17,5,6,7)          -163.5413         Frozen                          !
 ! D16   D(17,5,6,18)          -10.9466         estimate D2E/DX2                !
 ! D17   D(5,6,7,8)           -164.1291         estimate D2E/DX2                !
 ! D18   D(5,6,7,9)             79.0897         estimate D2E/DX2                !
 ! D19   D(5,6,7,13)           -49.1793         estimate D2E/DX2                !
 ! D20   D(18,6,7,8)            40.3967         estimate D2E/DX2                !
 ! D21   D(18,6,7,9)           -76.3845         estimate D2E/DX2                !
 ! D22   D(18,6,7,13)          155.3464         estimate D2E/DX2                !
 ! D23   D(6,7,9,10)           169.0531         estimate D2E/DX2                !
 ! D24   D(6,7,9,19)           -70.0478         estimate D2E/DX2                !
 ! D25   D(6,7,9,20)            48.9579         estimate D2E/DX2                !
 ! D26   D(8,7,9,10)            52.5673         estimate D2E/DX2                !
 ! D27   D(8,7,9,19)           173.4665         estimate D2E/DX2                !
 ! D28   D(8,7,9,20)           -67.5279         estimate D2E/DX2                !
 ! D29   D(13,7,9,10)          -62.1689         estimate D2E/DX2                !
 ! D30   D(13,7,9,19)           58.7303         estimate D2E/DX2                !
 ! D31   D(13,7,9,20)          177.7359         estimate D2E/DX2                !
 ! D32   D(6,7,13,12)         -165.7962         estimate D2E/DX2                !
 ! D33   D(6,7,13,14)          -49.138          estimate D2E/DX2                !
 ! D34   D(6,7,13,15)           75.0222         Frozen                          !
 ! D35   D(8,7,13,12)          -51.1499         estimate D2E/DX2                !
 ! D36   D(8,7,13,14)           65.5082         estimate D2E/DX2                !
 ! D37   D(8,7,13,15)         -170.3315         estimate D2E/DX2                !
 ! D38   D(9,7,13,12)           63.6035         estimate D2E/DX2                !
 ! D39   D(9,7,13,14)         -179.7383         estimate D2E/DX2                !
 ! D40   D(9,7,13,15)          -55.5781         estimate D2E/DX2                !
 ! D41   D(7,9,10,11)           54.8126         Frozen                          !
 ! D42   D(7,9,10,21)          176.5631         estimate D2E/DX2                !
 ! D43   D(7,9,10,22)          -65.206          estimate D2E/DX2                !
 ! D44   D(19,9,10,11)         -66.1994         estimate D2E/DX2                !
 ! D45   D(19,9,10,21)          55.5511         estimate D2E/DX2                !
 ! D46   D(19,9,10,22)         173.782          estimate D2E/DX2                !
 ! D47   D(20,9,10,11)         175.438          estimate D2E/DX2                !
 ! D48   D(20,9,10,21)         -62.8115         estimate D2E/DX2                !
 ! D49   D(20,9,10,22)          55.4194         estimate D2E/DX2                !
 ! D50   D(9,10,11,12)         -52.8227         Frozen                          !
 ! D51   D(9,10,11,23)          67.7636         estimate D2E/DX2                !
 ! D52   D(9,10,11,24)        -174.6793         estimate D2E/DX2                !
 ! D53   D(21,10,11,12)       -174.66           estimate D2E/DX2                !
 ! D54   D(21,10,11,23)        -54.0737         estimate D2E/DX2                !
 ! D55   D(21,10,11,24)         63.4834         estimate D2E/DX2                !
 ! D56   D(22,10,11,12)         67.4142         estimate D2E/DX2                !
 ! D57   D(22,10,11,23)       -171.9995         estimate D2E/DX2                !
 ! D58   D(22,10,11,24)        -54.4423         estimate D2E/DX2                !
 ! D59   D(10,11,12,13)         56.6782         estimate D2E/DX2                !
 ! D60   D(10,11,12,25)        177.5293         estimate D2E/DX2                !
 ! D61   D(10,11,12,26)        -64.7319         estimate D2E/DX2                !
 ! D62   D(23,11,12,13)        -63.7709         estimate D2E/DX2                !
 ! D63   D(23,11,12,25)         57.0801         estimate D2E/DX2                !
 ! D64   D(23,11,12,26)        174.8189         estimate D2E/DX2                !
 ! D65   D(24,11,12,13)        178.5988         estimate D2E/DX2                !
 ! D66   D(24,11,12,25)        -60.5502         estimate D2E/DX2                !
 ! D67   D(24,11,12,26)         57.1886         estimate D2E/DX2                !
 ! D68   D(11,12,13,7)         -60.543          estimate D2E/DX2                !
 ! D69   D(11,12,13,14)       -179.0621         estimate D2E/DX2                !
 ! D70   D(11,12,13,15)         62.7159         estimate D2E/DX2                !
 ! D71   D(25,12,13,7)         178.6268         estimate D2E/DX2                !
 ! D72   D(25,12,13,14)         60.1077         estimate D2E/DX2                !
 ! D73   D(25,12,13,15)        -58.1143         estimate D2E/DX2                !
 ! D74   D(26,12,13,7)          60.8173         estimate D2E/DX2                !
 ! D75   D(26,12,13,14)        -57.7018         estimate D2E/DX2                !
 ! D76   D(26,12,13,15)       -175.9238         estimate D2E/DX2                !
 ! D77   D(7,13,15,16)         -67.1606         Frozen                          !
 ! D78   D(12,13,15,16)        175.1441         estimate D2E/DX2                !
 ! D79   D(14,13,15,16)         57.766          estimate D2E/DX2                !
 ! D80   D(13,15,16,4)          28.7026         estimate D2E/DX2                !
 ! D81   D(13,15,16,27)       -160.2331         estimate D2E/DX2                !
 --------------------------------------------------------------------------------
 Trust Radius=3.00D-01 FncErr=1.00D-07 GrdErr=1.00D-07 EigMax=2.50D+02 EigMin=1.00D-04
 Number of steps in this run=     20 maximum allowed number of steps=    162.
 GradGradGradGradGradGradGradGradGradGradGradGradGradGradGradGradGradGrad

                          Input orientation:                          
 ---------------------------------------------------------------------
 Center     Atomic      Atomic             Coordinates (Angstroms)
 Number     Number       Type             X           Y           Z
 ---------------------------------------------------------------------
      1          8           0       -3.646510   -1.313820   -0.532090
      2          7           0       -3.221040   -0.169000   -0.388400
      3          8           0       -3.921340    0.836040   -0.518710
      4          6           0       -1.734540    0.005810   -0.059070
      5          6           0       -1.334650    1.309290    0.258760
      6          7           0       -0.081250    1.700510    0.639270
      7          6           0        1.205040    0.969000    0.476300
      8          1           0        1.929100    1.476860    1.165600
      9          6           0        1.836180    1.039720   -0.936380
     10          6           0        3.271480    0.482740   -0.882400
     11          6           0        3.293340   -0.935440   -0.289950
     12          6           0        2.569860   -0.987970    1.073230
     13          6           0        1.105640   -0.481630    0.960420
     14          1           0        0.646450   -0.528340    1.975740
     15          7           0        0.377620   -1.376320    0.059100
     16          6           0       -0.892750   -1.224620   -0.129440
     17          1           0       -2.090030    2.111530    0.219700
     18          1           0        0.151390    2.694500    0.703290
     19          1           0        1.228370    0.451420   -1.656430
     20          1           0        1.864300    2.092070   -1.290520
     21          1           0        3.712390    0.471160   -1.903200
     22          1           0        3.897730    1.147110   -0.246080
     23          1           0        2.790910   -1.631910   -0.998670
     24          1           0        4.343980   -1.279300   -0.171380
     25          1           0        2.568040   -2.035440    1.446700
     26          1           0        3.122150   -0.367490    1.809660
     27          1           0       -1.431880   -2.096490   -0.529050
 ---------------------------------------------------------------------
                    Distance matrix (angstroms):
                    1          2          3          4          5
     1  O    0.000000
     2  N    1.229750   0.000000
     3  O    2.167397   1.231871   0.000000
     4  C    2.370823   1.532547   2.383830   0.000000
     5  C    3.584808   2.482463   2.742151   1.399996   0.000000
     6  N    4.813455   3.795979   4.102989   2.468411   1.367060
     7  C    5.455791   4.651122   5.223743   3.139345   2.571604
     8  H    6.462002   5.625630   6.121699   4.133529   3.391534
     9  C    5.980175   5.228457   5.776242   3.819514   3.399293
    10  C    7.156042   6.543823   7.210669   5.095642   4.816831
    11  C    6.954374   6.560051   7.432502   5.120433   5.172832
    12  C    6.428568   6.028399   6.927984   4.560434   4.602821
    13  C    5.050055   4.542820   5.403203   3.056727   3.107207
    14  H    5.033458   4.547061   5.380383   3.177244   3.201509
    15  N    4.067805   3.822072   4.869236   2.526948   3.191275
    16  C    2.784471   2.569500   3.683776   1.492488   2.601283
    17  H    3.836775   2.617210   2.350706   2.153635   1.102594
    18  H    5.658342   4.556830   4.640505   3.371495   2.079598
    19  H    5.305155   4.667984   5.287897   3.395433   3.312547
    20  H    6.522601   5.637991   5.970505   4.338271   3.639546
    21  H    7.695421   7.125789   7.766839   5.769438   5.554201
    22  H    7.940626   7.240807   7.830003   5.749783   5.259179
    23  H    6.462140   6.217401   7.167666   4.903537   5.220348
    24  H    7.998702   7.649143   8.538783   6.213898   6.255610
    25  H    6.561782   6.353317   7.363443   4.994621   5.275359
    26  H    7.224548   6.716169   7.515354   5.217178   5.007988
    27  H    2.348865   2.633646   3.846719   2.175350   3.497061
                    6          7          8          9         10
     6  N    0.000000
     7  C    1.488693   0.000000
     8  H    2.090108   1.121302   0.000000
     9  C    2.568240   1.548872   2.148964   0.000000
    10  C    3.878046   2.520454   2.642832   1.540528   0.000000
    11  C    4.381728   2.928315   3.130330   2.538197   1.537111
    12  C    3.800609   2.459429   2.548429   2.947600   2.545535
    13  C    2.504712   1.532508   2.134448   2.538906   3.002808
    14  H    2.698791   2.191431   2.514427   3.514927   4.010241
    15  N    3.164497   2.521747   3.431045   2.992595   3.566084
    16  C    3.131427   3.095095   4.115575   3.636681   4.563205
    17  H    2.092886   3.496956   4.177432   4.230889   5.710812
    18  H    1.022857   2.034466   2.203776   2.874949   4.140200
    19  H    2.923280   2.194760   3.083246   1.110856   2.185040
    20  H    2.768135   2.194895   2.532826   1.110696   2.176387
    21  H    4.729393   3.492373   3.689050   2.185901   1.112011
    22  H    4.113682   2.793588   2.444807   2.176703   1.112870
    23  H    4.694377   3.384561   3.884743   2.837780   2.171684
    24  H    5.396210   3.915008   3.900715   3.500306   2.181878
    25  H    4.650592   3.438910   3.580993   3.958699   3.501538
    26  H    3.988510   2.690607   2.289063   3.342857   2.827079
    27  H    4.195996   4.166690   5.190073   4.547741   5.375768
                   11         12         13         14         15
    11  C    0.000000
    12  C    1.544164   0.000000
    13  C    2.560352   1.553398   0.000000
    14  H    3.507864   2.173773   1.115308   0.000000
    15  N    2.969450   2.446465   1.463851   2.113019   0.000000
    16  C    4.199135   3.673158   2.394450   2.699208   1.293213
    17  H    6.206806   5.661271   4.181561   4.188187   4.275533
    18  H    4.902534   4.421135   3.326336   3.500130   4.127679
    19  H    2.838089   3.364890   2.780926   3.806733   2.647159
    20  H    3.494154   3.946109   3.502317   4.360982   4.007670
    21  H    2.180986   3.506219   3.987891   5.044320   4.287714
    22  H    2.168923   2.839434   3.450247   4.279537   4.341890
    23  H    1.113459   2.180892   2.828659   3.829320   2.647295
    24  H    1.111820   2.186648   3.521945   4.341174   3.974235
    25  H    2.179911   1.112060   2.188472   2.498748   2.675409
    26  H    2.181796   1.110112   2.191016   2.486473   3.408026
    27  H    4.871643   4.450847   3.356382   3.612828   2.034418
                   16         17         18         19         20
    16  C    0.000000
    17  H    3.561639   0.000000
    18  H    4.140431   2.365941   0.000000
    19  H    3.104828   4.157837   3.429223   0.000000
    20  H    4.466527   4.232950   2.696713   1.797228   0.000000
    21  H    5.218161   6.392620   4.941432   2.496325   2.533409
    22  H    5.346719   6.082789   4.163026   3.098153   2.473589
    23  H    3.806678   6.270673   5.346172   2.685972   3.848611
    24  H    5.237183   7.283348   5.842426   3.861061   4.332138
    25  H    3.888279   6.356139   5.363319   4.196261   5.002396
    26  H    4.540287   5.986680   4.407409   4.033707   4.152438
    27  H    1.100230   4.324491   5.194130   3.852241   5.384113
                   21         22         23         24         25
    21  H    0.000000
    22  H    1.799252   0.000000
    23  H    2.467834   3.084541   0.000000
    24  H    2.542089   2.468235   1.794650   0.000000
    25  H    4.337558   3.842161   2.488442   2.518709   0.000000
    26  H    3.851889   2.668633   3.097611   2.499757   1.794669
    27  H    5.911398   6.245459   4.274147   5.844338   4.461690
                   26         27
    26  H    0.000000
    27  H    5.403535   0.000000
 Symmetry turned off by external request.
 Stoichiometry    C9H13N3O2
 Framework group  C1[X(C9H13N3O2)]
 Deg. of freedom    75
 Full point group                 C1      NOp   1
 Rotational constants (GHZ):           1.6117618           0.4028051           0.3605357
 Standard basis: 6-31G(d) (6D, 7F)
   236 basis functions,   444 primitive gaussians,   236 cartesian basis functions
    52 alpha electrons       52 beta electrons
       nuclear repulsion energy       917.4394863436 Hartrees.
 NAtoms=   27 NActive=   27 NUniq=   27 SFac= 1.00D+00 NAtFMM=   60 NAOKFM=F Big=F
 Integral buffers will be    131072 words long.
 Raffenetti 1 integral format.
 Two-electron integral symmetry is turned off.
 One-electron integrals computed using PRISM.
 NBasis=   236 RedAO= T EigKep=  1.27D-03  NBF=   236
 NBsUse=   236 1.00D-06 EigRej= -1.00D+00 NBFU=   236
 ExpMin= 1.61D-01 ExpMax= 5.48D+03 ExpMxC= 8.25D+02 IAcc=3 IRadAn=         5 AccDes= 0.00D+00
 Harris functional with IExCor=  205 and IRadAn=       5 diagonalized for initial guess.
 HarFok:  IExCor=  205 AccDes= 0.00D+00 IRadAn=         5 IDoV= 1 UseB2=F ITyADJ=14
 ICtDFT=  3500011 ScaDFX=  1.000000  1.000000  1.000000  1.000000
 FoFCou: FMM=F IPFlag=           0 FMFlag=      100000 FMFlg1=           0
         NFxFlg=           0 DoJE=T BraDBF=F KetDBF=T FulRan=T
         wScrn=  0.000000 ICntrl=       500 IOpCl=  0 I1Cent=   200000004 NGrid=           0
         NMat0=    1 NMatS0=      1 NMatT0=    0 NMatD0=    1 NMtDS0=    0 NMtDT0=    0
 Symmetry not used in FoFCou.
 Keep R1 ints in memory in canonical form, NReq=397720213.
 Requested convergence on RMS density matrix=1.00D-08 within 128 cycles.
 Requested convergence on MAX density matrix=1.00D-06.
 Requested convergence on             energy=1.00D-06.
 No special actions if energy rises.
 SCF Done:  E(RHF) =  -661.276702222     A.U. after   16 cycles
            NFock= 16  Conv=0.69D-08     -V/T= 2.0036
 ExpMin= 1.61D-01 ExpMax= 5.48D+03 ExpMxC= 8.25D+02 IAcc=3 IRadAn=         5 AccDes= 0.00D+00
 HarFok:  IExCor=  205 AccDes= 0.00D+00 IRadAn=         5 IDoV=-2 UseB2=F ITyADJ=14
 ICtDFT= 12500011 ScaDFX=  1.000000  1.000000  1.000000  1.000000
 Range of M.O.s used for correlation:    15   236
 NBasis=   236 NAE=    52 NBE=    52 NFC=    14 NFV=     0
 NROrb=    222 NOA=    38 NOB=    38 NVA=   184 NVB=   184
 Fully direct method using O(ONN) memory.
 JobTyp=1 Pass  1:  I=  15 to  52 NPSUse=  4 ParTrn=T ParDer=T DoDerP=T.
 Spin components of T(2) and E(2):
     alpha-alpha T2 =       0.9214914687D-01 E2=     -0.2719797219D+00
     alpha-beta  T2 =       0.4997272129D+00 E2=     -0.1493763291D+01
     beta-beta   T2 =       0.9214914687D-01 E2=     -0.2719797219D+00
 ANorm=    0.1297700083D+01
 E2 =    -0.2037722734D+01 EUMP2 =    -0.66331442495650D+03
          IDoAtm=111111111111111111111111111
          Differentiating once with respect to electric field.
                with respect to dipole field.
          Differentiating once with respect to nuclear coordinates.
 Keep R1 ints in memory in canonical form, NReq=397723379.
          There are     1 degrees of freedom in the 1st order CPHF.  IDoFFX=0 NUNeed=     1.
 LinEq1:  Iter=  0 NonCon=     1 RMS=4.67D-03 Max=1.29D-01 NDo=     1
 AX will form     1 AO Fock derivatives at one time.
 LinEq1:  Iter=  1 NonCon=     1 RMS=1.59D-03 Max=4.75D-02 NDo=     1
 LinEq1:  Iter=  2 NonCon=     1 RMS=6.56D-04 Max=2.11D-02 NDo=     1
 LinEq1:  Iter=  3 NonCon=     1 RMS=2.99D-04 Max=9.75D-03 NDo=     1
 LinEq1:  Iter=  4 NonCon=     1 RMS=9.48D-05 Max=2.60D-03 NDo=     1
 LinEq1:  Iter=  5 NonCon=     1 RMS=3.92D-05 Max=1.80D-03 NDo=     1
 LinEq1:  Iter=  6 NonCon=     1 RMS=1.62D-05 Max=5.46D-04 NDo=     1
 LinEq1:  Iter=  7 NonCon=     1 RMS=6.13D-06 Max=6.87D-05 NDo=     1
 LinEq1:  Iter=  8 NonCon=     1 RMS=2.43D-06 Max=5.11D-05 NDo=     1
 LinEq1:  Iter=  9 NonCon=     1 RMS=9.00D-07 Max=2.56D-05 NDo=     1
 LinEq1:  Iter= 10 NonCon=     1 RMS=4.26D-07 Max=1.29D-05 NDo=     1
 LinEq1:  Iter= 11 NonCon=     1 RMS=1.62D-07 Max=5.47D-06 NDo=     1
 LinEq1:  Iter= 12 NonCon=     1 RMS=5.75D-08 Max=1.00D-06 NDo=     1
 LinEq1:  Iter= 13 NonCon=     1 RMS=1.81D-08 Max=3.95D-07 NDo=     1
 LinEq1:  Iter= 14 NonCon=     1 RMS=5.64D-09 Max=1.63D-07 NDo=     1
 LinEq1:  Iter= 15 NonCon=     1 RMS=2.03D-09 Max=6.83D-08 NDo=     1
 LinEq1:  Iter= 16 NonCon=     1 RMS=7.40D-10 Max=1.44D-08 NDo=     1
 LinEq1:  Iter= 17 NonCon=     1 RMS=2.46D-10 Max=3.96D-09 NDo=     1
 LinEq1:  Iter= 18 NonCon=     1 RMS=8.79D-11 Max=1.35D-09 NDo=     1
 LinEq1:  Iter= 19 NonCon=     0 RMS=3.03D-11 Max=5.87D-10 NDo=     1
 Linear equations converged to 1.000D-10 1.000D-09 after    19 iterations.
 End of Minotr F.D. properties file   721 does not exist.
 End of Minotr F.D. properties file   722 does not exist.
 End of Minotr F.D. properties file   788 does not exist.

 **********************************************************************

            Population analysis using the SCF Density.

 **********************************************************************

 Alpha  occ. eigenvalues --  -20.59780 -20.59428 -15.85316 -15.63796 -15.56042
 Alpha  occ. eigenvalues --  -11.35990 -11.30518 -11.30197 -11.29993 -11.27511
 Alpha  occ. eigenvalues --  -11.24658 -11.23900 -11.23244 -11.22844  -1.58485
 Alpha  occ. eigenvalues --   -1.37957  -1.29037  -1.22394  -1.13272  -1.08409
 Alpha  occ. eigenvalues --   -1.01690  -1.00725  -0.93715  -0.88894  -0.84889
 Alpha  occ. eigenvalues --   -0.81514  -0.78000  -0.77020  -0.74383  -0.71243
 Alpha  occ. eigenvalues --   -0.70268  -0.69815  -0.67345  -0.64009  -0.63370
 Alpha  occ. eigenvalues --   -0.61959  -0.59712  -0.57369  -0.56516  -0.54778
 Alpha  occ. eigenvalues --   -0.54227  -0.50483  -0.49810  -0.48607  -0.47860
 Alpha  occ. eigenvalues --   -0.47756  -0.46420  -0.45322  -0.44053  -0.42208
 Alpha  occ. eigenvalues --   -0.38852  -0.33516
 Alpha virt. eigenvalues --    0.07288   0.11434   0.17268   0.21585   0.23778
 Alpha virt. eigenvalues --    0.25061   0.25922   0.27974   0.28576   0.28892
 Alpha virt. eigenvalues --    0.29998   0.31499   0.31780   0.32427   0.33167
 Alpha virt. eigenvalues --    0.33950   0.34674   0.35775   0.37662   0.38873
 Alpha virt. eigenvalues --    0.40300   0.41111   0.43786   0.45143   0.45305
 Alpha virt. eigenvalues --    0.47140   0.49848   0.53348   0.57669   0.59030
 Alpha virt. eigenvalues --    0.63254   0.68286   0.69514   0.72507   0.74072
 Alpha virt. eigenvalues --    0.74891   0.75747   0.75933   0.78169   0.78556
 Alpha virt. eigenvalues --    0.80972   0.82395   0.84586   0.84955   0.87787
 Alpha virt. eigenvalues --    0.88434   0.90720   0.91931   0.92514   0.93740
 Alpha virt. eigenvalues --    0.95018   0.97486   0.99337   1.01027   1.01973
 Alpha virt. eigenvalues --    1.03080   1.04966   1.05922   1.07118   1.08587
 Alpha virt. eigenvalues --    1.09878   1.10673   1.11786   1.12820   1.13151
 Alpha virt. eigenvalues --    1.13330   1.14392   1.15173   1.15850   1.16608
 Alpha virt. eigenvalues --    1.17834   1.20233   1.21402   1.21923   1.23008
 Alpha virt. eigenvalues --    1.23299   1.25126   1.25571   1.27227   1.28576
 Alpha virt. eigenvalues --    1.29159   1.31486   1.34476   1.36533   1.38957
 Alpha virt. eigenvalues --    1.41790   1.47691   1.51701   1.53023   1.53791
 Alpha virt. eigenvalues --    1.54640   1.58205   1.60629   1.64061   1.65516
 Alpha virt. eigenvalues --    1.67193   1.68687   1.72095   1.72685   1.76535
 Alpha virt. eigenvalues --    1.79666   1.82309   1.83767   1.86984   1.91335
 Alpha virt. eigenvalues --    1.93442   1.95932   1.97987   1.99992   2.00789
 Alpha virt. eigenvalues --    2.02914   2.03149   2.05674   2.09586   2.11530
 Alpha virt. eigenvalues --    2.11771   2.13192   2.16713   2.18158   2.19697
 Alpha virt. eigenvalues --    2.20379   2.22230   2.23992   2.24762   2.25958
 Alpha virt. eigenvalues --    2.28875   2.31970   2.32952   2.35244   2.36969
 Alpha virt. eigenvalues --    2.39599   2.42006   2.42681   2.44957   2.45433
 Alpha virt. eigenvalues --    2.48792   2.50657   2.51258   2.56095   2.57358
 Alpha virt. eigenvalues --    2.60361   2.63773   2.66249   2.67730   2.68346
 Alpha virt. eigenvalues --    2.69236   2.70455   2.74066   2.75203   2.81444
 Alpha virt. eigenvalues --    2.84674   2.86270   2.89954   2.91528   2.93977
 Alpha virt. eigenvalues --    2.97702   2.97969   3.02162   3.05723   3.06965
 Alpha virt. eigenvalues --    3.08236   3.14742   3.18615   3.22816   3.27195
 Alpha virt. eigenvalues --    3.31652   3.31719   3.38257   3.42266   3.60513
 Alpha virt. eigenvalues --    4.10435   4.23144   4.32247   4.36605   4.44493
 Alpha virt. eigenvalues --    4.52013   4.59431   4.60014   4.70539   4.78290
 Alpha virt. eigenvalues --    4.96618   4.99220   5.04610   5.08944
          Condensed to atoms (all electrons):
               1          2          3          4          5          6
     1  O    8.302563   0.309829  -0.090420  -0.076896   0.003530  -0.000010
     2  N    0.309829   5.677166   0.312491   0.264651  -0.048843   0.000692
     3  O   -0.090420   0.312491   8.328946  -0.088237   0.008063   0.000490
     4  C   -0.076896   0.264651  -0.088237   5.259718   0.564030  -0.052023
     5  C    0.003530  -0.048843   0.008063   0.564030   4.687373   0.316336
     6  N   -0.000010   0.000692   0.000490  -0.052023   0.316336   7.151855
     7  C    0.000001  -0.000098   0.000002   0.006241  -0.029641   0.206530
     8  H   -0.000000   0.000001  -0.000000  -0.000266   0.003007  -0.045235
     9  C    0.000000  -0.000005  -0.000000   0.000679   0.000327  -0.058192
    10  C   -0.000000   0.000000   0.000000  -0.000027  -0.000020   0.003345
    11  C   -0.000000  -0.000000  -0.000000  -0.000011   0.000009  -0.000150
    12  C    0.000000   0.000001  -0.000000  -0.000266  -0.000137   0.003925
    13  C   -0.000008   0.000021  -0.000001  -0.007573  -0.000843  -0.053637
    14  H    0.000000  -0.000028   0.000000   0.001727   0.002587  -0.005006
    15  N    0.000422   0.001446  -0.000009  -0.063580  -0.004947   0.002063
    16  C    0.001022  -0.021520   0.002092   0.309278  -0.044402   0.001376
    17  H    0.000155  -0.004510   0.012885  -0.023717   0.374291  -0.031754
    18  H    0.000000  -0.000033   0.000008   0.001745  -0.026662   0.332158
    19  H    0.000000  -0.000004  -0.000000  -0.000985   0.001349  -0.000425
    20  H    0.000000   0.000000   0.000000  -0.000033  -0.000034  -0.000351
    21  H   -0.000000  -0.000000  -0.000000   0.000001   0.000001  -0.000063
    22  H   -0.000000   0.000000  -0.000000  -0.000000  -0.000001  -0.000091
    23  H    0.000000  -0.000000   0.000000   0.000025  -0.000001  -0.000024
    24  H    0.000000   0.000000   0.000000  -0.000000  -0.000000   0.000005
    25  H    0.000000  -0.000000   0.000000   0.000024  -0.000001  -0.000077
    26  H    0.000000  -0.000000   0.000000   0.000004  -0.000001  -0.000079
    27  H    0.006947  -0.000120   0.000066  -0.068352   0.001952  -0.000023
               7          8          9         10         11         12
     1  O    0.000001  -0.000000   0.000000  -0.000000  -0.000000   0.000000
     2  N   -0.000098   0.000001  -0.000005   0.000000  -0.000000   0.000001
     3  O    0.000002  -0.000000  -0.000000   0.000000  -0.000000  -0.000000
     4  C    0.006241  -0.000266   0.000679  -0.000027  -0.000011  -0.000266
     5  C   -0.029641   0.003007   0.000327  -0.000020   0.000009  -0.000137
     6  N    0.206530  -0.045235  -0.058192   0.003345  -0.000150   0.003925
     7  C    5.053171   0.412751   0.343094  -0.049114  -0.008263  -0.065348
     8  H    0.412751   0.543466  -0.056716   0.000519  -0.000179  -0.003339
     9  C    0.343094  -0.056716   5.171924   0.320240  -0.053822  -0.005245
    10  C   -0.049114   0.000519   0.320240   5.126342   0.332496  -0.060805
    11  C   -0.008263  -0.000179  -0.053822   0.332496   5.125185   0.330344
    12  C   -0.065348  -0.003339  -0.005245  -0.060805   0.330344   5.143165
    13  C    0.311859  -0.037666  -0.055624  -0.000795  -0.046879   0.367237
    14  H   -0.042290  -0.000822   0.003752  -0.000384   0.003964  -0.041368
    15  N   -0.064388   0.004015  -0.011171   0.001159  -0.007101  -0.076034
    16  C   -0.000337  -0.000176   0.000015  -0.000086  -0.000016   0.002496
    17  H    0.001464  -0.000051  -0.000040   0.000001  -0.000000   0.000001
    18  H   -0.030394  -0.004412   0.001131  -0.000110   0.000010  -0.000160
    19  H   -0.035401   0.003964   0.388890  -0.033605  -0.002099   0.000516
    20  H   -0.042052  -0.001821   0.397070  -0.036802   0.004122  -0.000391
    21  H    0.004097  -0.000066  -0.035989   0.400110  -0.035756   0.004243
    22  H   -0.004563   0.003552  -0.045527   0.395726  -0.045471  -0.001251
    23  H    0.000510   0.000035  -0.002046  -0.040292   0.396555  -0.036855
    24  H   -0.000149  -0.000107   0.004412  -0.038475   0.400431  -0.037655
    25  H    0.005241  -0.000020  -0.000395   0.004113  -0.033647   0.394549
    26  H   -0.004388   0.001440   0.001109  -0.002444  -0.042613   0.393875
    27  H   -0.000385   0.000008  -0.000041   0.000002   0.000007  -0.000023
              13         14         15         16         17         18
     1  O   -0.000008   0.000000   0.000422   0.001022   0.000155   0.000000
     2  N    0.000021  -0.000028   0.001446  -0.021520  -0.004510  -0.000033
     3  O   -0.000001   0.000000  -0.000009   0.002092   0.012885   0.000008
     4  C   -0.007573   0.001727  -0.063580   0.309278  -0.023717   0.001745
     5  C   -0.000843   0.002587  -0.004947  -0.044402   0.374291  -0.026662
     6  N   -0.053637  -0.005006   0.002063   0.001376  -0.031754   0.332158
     7  C    0.311859  -0.042290  -0.064388  -0.000337   0.001464  -0.030394
     8  H   -0.037666  -0.000822   0.004015  -0.000176  -0.000051  -0.004412
     9  C   -0.055624   0.003752  -0.011171   0.000015  -0.000040   0.001131
    10  C   -0.000795  -0.000384   0.001159  -0.000086   0.000001  -0.000110
    11  C   -0.046879   0.003964  -0.007101  -0.000016  -0.000000   0.000010
    12  C    0.367237  -0.041368  -0.076034   0.002496   0.000001  -0.000160
    13  C    5.018113   0.409774   0.251890  -0.065910  -0.000082   0.004111
    14  H    0.409774   0.516317  -0.033636  -0.007950   0.000006  -0.000018
    15  N    0.251890  -0.033636   6.965513   0.577902  -0.000057  -0.000127
    16  C   -0.065910  -0.007950   0.577902   4.711244   0.001371  -0.000172
    17  H   -0.000082   0.000006  -0.000057   0.001371   0.380090  -0.002647
    18  H    0.004111  -0.000018  -0.000127  -0.000172  -0.002647   0.326308
    19  H   -0.005744   0.000057   0.006438   0.001641   0.000003  -0.000129
    20  H    0.003965  -0.000053   0.000086  -0.000044  -0.000016   0.001899
    21  H   -0.000418   0.000009  -0.000035   0.000003  -0.000000   0.000001
    22  H    0.000326  -0.000041   0.000010  -0.000000   0.000000   0.000002
    23  H   -0.006017   0.000001   0.006766   0.000091   0.000000   0.000000
    24  H    0.004152  -0.000061   0.000004   0.000005   0.000000  -0.000000
    25  H   -0.034312  -0.002750   0.001553  -0.000065  -0.000000   0.000003
    26  H   -0.045164  -0.000910   0.004248  -0.000027   0.000000  -0.000001
    27  H    0.004664  -0.000136  -0.041341   0.404842  -0.000064   0.000000
              19         20         21         22         23         24
     1  O    0.000000   0.000000  -0.000000  -0.000000   0.000000   0.000000
     2  N   -0.000004   0.000000  -0.000000   0.000000  -0.000000   0.000000
     3  O   -0.000000   0.000000  -0.000000  -0.000000   0.000000   0.000000
     4  C   -0.000985  -0.000033   0.000001  -0.000000   0.000025  -0.000000
     5  C    0.001349  -0.000034   0.000001  -0.000001  -0.000001  -0.000000
     6  N   -0.000425  -0.000351  -0.000063  -0.000091  -0.000024   0.000005
     7  C   -0.035401  -0.042052   0.004097  -0.004563   0.000510  -0.000149
     8  H    0.003964  -0.001821  -0.000066   0.003552   0.000035  -0.000107
     9  C    0.388890   0.397070  -0.035989  -0.045527  -0.002046   0.004412
    10  C   -0.033605  -0.036802   0.400110   0.395726  -0.040292  -0.038475
    11  C   -0.002099   0.004122  -0.035756  -0.045471   0.396555   0.400431
    12  C    0.000516  -0.000391   0.004243  -0.001251  -0.036855  -0.037655
    13  C   -0.005744   0.003965  -0.000418   0.000326  -0.006017   0.004152
    14  H    0.000057  -0.000053   0.000009  -0.000041   0.000001  -0.000061
    15  N    0.006438   0.000086  -0.000035   0.000010   0.006766   0.000004
    16  C    0.001641  -0.000044   0.000003  -0.000000   0.000091   0.000005
    17  H    0.000003  -0.000016  -0.000000   0.000000   0.000000   0.000000
    18  H   -0.000129   0.001899   0.000001   0.000002   0.000000  -0.000000
    19  H    0.505625  -0.023680  -0.002544   0.003764   0.001693  -0.000075
    20  H   -0.023680   0.546203  -0.002667  -0.002915  -0.000049  -0.000090
    21  H   -0.002544  -0.002667   0.525409  -0.024679  -0.002827  -0.002064
    22  H    0.003764  -0.002915  -0.024679   0.569412   0.004070  -0.003538
    23  H    0.001693  -0.000049  -0.002827   0.004070   0.510691  -0.024881
    24  H   -0.000075  -0.000090  -0.002064  -0.003538  -0.024881   0.540330
    25  H   -0.000028   0.000011  -0.000086  -0.000083  -0.002054  -0.002421
    26  H    0.000023  -0.000035  -0.000071   0.002453   0.003855  -0.002763
    27  H    0.000061   0.000000  -0.000000   0.000000  -0.000021  -0.000000
              25         26         27
     1  O    0.000000   0.000000   0.006947
     2  N   -0.000000  -0.000000  -0.000120
     3  O    0.000000   0.000000   0.000066
     4  C    0.000024   0.000004  -0.068352
     5  C   -0.000001  -0.000001   0.001952
     6  N   -0.000077  -0.000079  -0.000023
     7  C    0.005241  -0.004388  -0.000385
     8  H   -0.000020   0.001440   0.000008
     9  C   -0.000395   0.001109  -0.000041
    10  C    0.004113  -0.002444   0.000002
    11  C   -0.033647  -0.042613   0.000007
    12  C    0.394549   0.393875  -0.000023
    13  C   -0.034312  -0.045164   0.004664
    14  H   -0.002750  -0.000910  -0.000136
    15  N    0.001553   0.004248  -0.041341
    16  C   -0.000065  -0.000027   0.404842
    17  H   -0.000000   0.000000  -0.000064
    18  H    0.000003  -0.000001   0.000000
    19  H   -0.000028   0.000023   0.000061
    20  H    0.000011  -0.000035   0.000000
    21  H   -0.000086  -0.000071  -0.000000
    22  H   -0.000083   0.002453   0.000000
    23  H   -0.002054   0.003855  -0.000021
    24  H   -0.002421  -0.002763  -0.000000
    25  H    0.509854  -0.023232  -0.000017
    26  H   -0.023232   0.565380   0.000001
    27  H   -0.000017   0.000001   0.440382
 Mulliken charges:
               1
     1  O   -0.457134
     2  N    0.508864
     3  O   -0.486376
     4  C   -0.026156
     5  C    0.192677
     6  N   -0.771635
     7  C    0.031847
     8  H    0.178119
     9  C   -0.307830
    10  C   -0.321096
    11  C   -0.317115
    12  C   -0.311477
    13  C   -0.015440
    14  H    0.197260
    15  N   -0.521089
    16  C    0.127328
    17  H    0.292670
    18  H    0.397489
    19  H    0.190694
    20  H    0.157677
    21  H    0.173391
    22  H    0.148848
    23  H    0.190773
    24  H    0.162941
    25  H    0.183839
    26  H    0.149339
    27  H    0.251591
 Sum of Mulliken charges =  -0.00000
 Mulliken charges with hydrogens summed into heavy atoms:
               1
     1  O   -0.457134
     2  N    0.508864
     3  O   -0.486376
     4  C   -0.026156
     5  C    0.485347
     6  N   -0.374146
     7  C    0.209966
     9  C    0.040541
    10  C    0.001143
    11  C    0.036599
    12  C    0.021700
    13  C    0.181821
    15  N   -0.521089
    16  C    0.378919
 Electronic spatial extent (au):  <R**2>=           3108.2126
 Charge=              0.0000 electrons
 Dipole moment (field-independent basis, Debye):
    X=              5.3311    Y=              4.4506    Z=              1.6190  Tot=              7.1309
 Quadrupole moment (field-independent basis, Debye-Ang):
   XX=           -104.7200   YY=            -79.7022   ZZ=            -83.1134
   XY=             -0.4416   XZ=             -3.3477   YZ=              1.2370
 Traceless Quadrupole moment (field-independent basis, Debye-Ang):
   XX=            -15.5414   YY=              9.4763   ZZ=              6.0651
   XY=             -0.4416   XZ=             -3.3477   YZ=              1.2370
 Octapole moment (field-independent basis, Debye-Ang**2):
  XXX=             94.8126  YYY=             33.0847  ZZZ=              2.4427  XYY=             -3.6740
  XXY=              6.7780  XXZ=             21.2293  XZZ=             -4.4862  YZZ=             -1.9289
  YYZ=              8.1539  XYZ=             -0.1715
 Hexadecapole moment (field-independent basis, Debye-Ang**3):
 XXXX=          -3467.9777 YYYY=           -616.5987 ZZZZ=           -333.6352 XXXY=             -1.5613
 XXXZ=           -135.9779 YYYX=             12.9922 YYYZ=             26.5128 ZZZX=            -59.6980
 ZZZY=              9.1298 XXYY=           -645.3067 XXZZ=           -553.7548 YYZZ=           -170.2095
 XXYZ=              7.0752 YYXZ=            -21.0813 ZZXY=              9.4620
 N-N= 9.174394863436D+02 E-N=-3.380922428069D+03  KE= 6.588720082195D+02
 Calling FoFJK, ICntrl=  10002127 FMM=F ISym2X=0 I1Cent= 0 IOpClX= 0 NMat=1 NMatS=1 NMatT=0.
 -------------------------------------------------------------------
 Center     Atomic                   Forces (Hartrees/Bohr)
 Number     Number              X              Y              Z
 -------------------------------------------------------------------
      1        8           0.000300407   -0.018880276    0.000335427
      2        7           0.039342854    0.008549732    0.006958380
      3        8          -0.003268038    0.016855249    0.000879794
      4        6          -0.002960112    0.003121821    0.011524433
      5        6           0.001694789   -0.014197701   -0.005575292
      6        7           0.017252457   -0.001198785   -0.010982953
      7        6          -0.003782983    0.005543396    0.006578525
      8        1          -0.012523988   -0.001904091   -0.006667636
      9        6          -0.004556152    0.001308037   -0.002197925
     10        6           0.002678597   -0.001414217    0.000689923
     11        6          -0.001247751   -0.004157273   -0.001740539
     12        6           0.000699423   -0.009555555   -0.002800266
     13        6           0.013896931    0.000192605   -0.002365550
     14        1           0.001186530    0.003328089   -0.011623607
     15        7          -0.000745631   -0.009103708    0.023111846
     16        6          -0.020878611    0.015887679   -0.017422256
     17        1           0.006346505   -0.008758323    0.001889814
     18        1          -0.018485862   -0.002626198   -0.000789900
     19        1           0.003372137    0.005691880    0.007236393
     20        1          -0.002893765   -0.007834578    0.002958756
     21        1          -0.003493707    0.002357411    0.009942647
     22        1          -0.004603239   -0.004011759   -0.006941668
     23        1           0.004581968    0.005913582    0.008707199
     24        1          -0.009645525    0.002291708   -0.001359317
     25        1          -0.001265792    0.010594525   -0.002509309
     26        1          -0.004962543   -0.004682435   -0.003903015
     27        1           0.003961099    0.006689183   -0.003933906
 -------------------------------------------------------------------
 Cartesian Forces:  Max     0.039342854 RMS     0.009210819

 GradGradGradGradGradGradGradGradGradGradGradGradGradGradGradGradGradGrad
 Berny optimization.
 FormGI is forming the generalized inverse of G from B-inverse, IUseBI=4.
 Internal  Forces:  Max     0.037782972 RMS     0.007040760
 Search for a local minimum.
 Step number   1 out of a maximum of   20
 All quantities printed in internal units (Hartrees-Bohrs-Radians)
 Mixed Optimization -- RFO/linear search
 Second derivative matrix not updated -- first step.
 ITU=  0
     Eigenvalues ---    0.00232   0.00779   0.01049   0.01154   0.01245
     Eigenvalues ---    0.01464   0.01545   0.01720   0.01937   0.02060
     Eigenvalues ---    0.02710   0.03687   0.04515   0.04697   0.04839
     Eigenvalues ---    0.05090   0.05139   0.05312   0.05868   0.06235
     Eigenvalues ---    0.07139   0.07670   0.07688   0.07811   0.07983
     Eigenvalues ---    0.08039   0.08046   0.10434   0.11601   0.12088
     Eigenvalues ---    0.12655   0.14119   0.15011   0.15923   0.15998
     Eigenvalues ---    0.19996   0.22293   0.23300   0.24999   0.25000
     Eigenvalues ---    0.25000   0.25419   0.26422   0.26648   0.27976
     Eigenvalues ---    0.28091   0.28514   0.29189   0.31432   0.32030
     Eigenvalues ---    0.32044   0.32237   0.32298   0.32383   0.32388
     Eigenvalues ---    0.32408   0.32510   0.32526   0.32588   0.33309
     Eigenvalues ---    0.33397   0.33657   0.35503   0.43885   0.44338
     Eigenvalues ---    0.50353   0.67205   0.90311   0.911911000.00000
     Eigenvalues --- 1000.000001000.000001000.000001000.000001000.00000
     Eigenvalues --- 1000.000001000.000001000.000001000.000001000.00000
     Eigenvalues --- 1000.000001000.000001000.000001000.000001000.00000
     Eigenvalues --- 1000.000001000.000001000.000001000.000001000.00000
     Eigenvalues --- 1000.000001000.000001000.000001000.000001000.00000
     Eigenvalues --- 1000.000001000.000001000.000001000.000001000.00000
     Eigenvalues --- 1000.000001000.000001000.000001000.000001000.00000
     Eigenvalues --- 1000.000001000.000001000.000001000.000001000.00000
     Eigenvalues --- 1000.000001000.000001000.000001000.000001000.00000
     Eigenvalues --- 1000.000001000.000001000.000001000.000001000.00000
     Eigenvalues --- 1000.000001000.000001000.000001000.000001000.00000
     Eigenvalues --- 1000.000001000.000001000.000001000.000001000.00000
     Eigenvalues --- 1000.000001000.000001000.000001000.000001000.00000
     Eigenvalues --- 1000.000001000.000001000.000001000.000001000.00000
     Eigenvalues --- 1000.000001000.000001000.000001000.000001000.00000
     Eigenvalues --- 1000.000001000.000001000.000001000.000001000.00000
     Eigenvalues --- 1000.000001000.000001000.000001000.000001000.00000
     Eigenvalues --- 1000.000001000.000001000.000001000.000001000.00000
     Eigenvalues --- 1000.00000
 RFO step:  Lambda=-2.61286894D-02 EMin= 2.31712309D-03
 Linear search not attempted -- first point.
 Iteration  1 RMS(Cart)=  0.06332950 RMS(Int)=  0.00159723
 Iteration  2 RMS(Cart)=  0.00193305 RMS(Int)=  0.00034894
 Iteration  3 RMS(Cart)=  0.00000253 RMS(Int)=  0.00034894
 Iteration  4 RMS(Cart)=  0.00000000 RMS(Int)=  0.00034894
 Iteration  1 RMS(Cart)=  0.00005339 RMS(Int)=  0.00005161
 Iteration  2 RMS(Cart)=  0.00003167 RMS(Int)=  0.00005648
 Iteration  3 RMS(Cart)=  0.00002110 RMS(Int)=  0.00006357
 Iteration  4 RMS(Cart)=  0.00001555 RMS(Int)=  0.00006964
 Iteration  5 RMS(Cart)=  0.00001227 RMS(Int)=  0.00007461
 Iteration  6 RMS(Cart)=  0.00001007 RMS(Int)=  0.00007871
 Iteration  7 RMS(Cart)=  0.00000842 RMS(Int)=  0.00008215
 Iteration  8 RMS(Cart)=  0.00000712 RMS(Int)=  0.00008507
 Iteration  9 RMS(Cart)=  0.00000604 RMS(Int)=  0.00008756
 Iteration 10 RMS(Cart)=  0.00000514 RMS(Int)=  0.00008971
 Iteration 11 RMS(Cart)=  0.00000438 RMS(Int)=  0.00009155
 Iteration 12 RMS(Cart)=  0.00000374 RMS(Int)=  0.00009314
 Iteration 13 RMS(Cart)=  0.00000319 RMS(Int)=  0.00009451
 Iteration 14 RMS(Cart)=  0.00000272 RMS(Int)=  0.00009568
 Iteration 15 RMS(Cart)=  0.00000233 RMS(Int)=  0.00009669
 Iteration 16 RMS(Cart)=  0.00000199 RMS(Int)=  0.00009756
 Iteration 17 RMS(Cart)=  0.00000170 RMS(Int)=  0.00009830
 Iteration 18 RMS(Cart)=  0.00000146 RMS(Int)=  0.00009894
 Iteration 19 RMS(Cart)=  0.00000125 RMS(Int)=  0.00009949
 Iteration 20 RMS(Cart)=  0.00000107 RMS(Int)=  0.00009997
 Iteration 21 RMS(Cart)=  0.00000092 RMS(Int)=  0.00010037
 Variable       Old X    -DE/DX   Delta X   Delta X   Delta X     New X
                                 (Linear)    (Quad)   (Total)
    R1        2.32389   0.01743   0.00000   0.01858   0.01858   2.34248
    R2        2.32790   0.01552   0.00000   0.01670   0.01670   2.34460
    R3        2.89609  -0.03778   0.00000  -0.11881  -0.11881   2.77729
    R4        2.64561  -0.03209   0.00000  -0.06903  -0.06874   2.57687
    R5        2.82039  -0.02608   0.00000  -0.07736  -0.07728   2.74311
    R6        2.58337  -0.02275   0.00000  -0.04174  -0.04141   2.54196
    R7        2.08360  -0.01079   0.00000  -0.02996  -0.02996   2.05364
    R8        2.81322  -0.01690   0.00000  -0.04280  -0.04277   2.77045
    R9        1.93292  -0.00681   0.00000  -0.01464  -0.01464   1.91828
   R10        2.11895  -0.01305   0.00000  -0.03833  -0.03833   2.08063
   R11        2.92694  -0.01303   0.00000  -0.04361  -0.04357   2.88338
   R12        2.89602  -0.00117   0.00000   0.00201   0.00191   2.89793
   R13        2.91118  -0.00413   0.00000  -0.01419  -0.01429   2.89689
   R14        2.09921  -0.00955   0.00000  -0.02719  -0.02719   2.07202
   R15        2.09891  -0.00844   0.00000  -0.02402  -0.02402   2.07489
   R16        2.90472  -0.00139   0.00000  -0.00655  -0.00649   2.89822
   R17        2.10140  -0.01054   0.00000  -0.03010  -0.03010   2.07129
   R18        2.10302  -0.00895   0.00000  -0.02565  -0.02565   2.07737
   R19        2.91805  -0.00939   0.00000  -0.02983  -0.02986   2.88819
   R20        2.10413  -0.01131   0.00000  -0.03245  -0.03245   2.07168
   R21        2.10103  -0.00997   0.00000  -0.02846  -0.02846   2.07257
   R22        2.93550  -0.01119   0.00000  -0.03654  -0.03643   2.89907
   R23        2.10149  -0.01082   0.00000  -0.03092  -0.03092   2.07057
   R24        2.09781  -0.00768   0.00000  -0.02180  -0.02180   2.07600
   R25        2.10763  -0.01121   0.00000  -0.03234  -0.03234   2.07528
   R26        2.76628  -0.00453   0.00000  -0.00952  -0.00998   2.75630
   R27        2.44382  -0.00111   0.00000  -0.00270  -0.00293   2.44089
   R28        2.07913  -0.00581   0.00000  -0.01603  -0.01603   2.06311
    A1        2.15373   0.01125   0.00000   0.04079   0.04075   2.19448
    A2        2.05656  -0.00544   0.00000  -0.01964  -0.01968   2.03688
    A3        2.07268  -0.00577   0.00000  -0.02082  -0.02086   2.05181
    A4        2.01755  -0.00988   0.00000  -0.03133  -0.03155   1.98600
    A5        2.02963  -0.00278   0.00000  -0.00571  -0.00601   2.02362
    A6        2.23595   0.01265   0.00000   0.03657   0.03611   2.27206
    A7        2.20375   0.00616   0.00000   0.02314   0.02327   2.22701
    A8        2.06429  -0.00402   0.00000  -0.01608  -0.01645   2.04784
    A9        2.01504  -0.00214   0.00000  -0.00655  -0.00688   2.00816
   A10        2.24096  -0.00722   0.00000  -0.01232  -0.01216   2.22880
   A11        2.09908  -0.01244   0.00000  -0.07800  -0.07862   2.02046
   A12        1.86277   0.01987   0.00000   0.10004   0.10041   1.96318
   A13        1.84220  -0.00242   0.00000  -0.01532  -0.01469   1.82751
   A14        2.01473  -0.00135   0.00000  -0.01628  -0.01645   1.99827
   A15        1.95465   0.00245   0.00000  -0.00960  -0.01106   1.94359
   A16        1.85134   0.00346   0.00000   0.02958   0.02931   1.88065
   A17        1.85085   0.00160   0.00000   0.03238   0.03212   1.88298
   A18        1.93668  -0.00330   0.00000  -0.01324  -0.01276   1.92392
   A19        1.90835   0.00025   0.00000  -0.00694  -0.00709   1.90126
   A20        1.92203  -0.00061   0.00000  -0.01396  -0.01393   1.90811
   A21        1.92238  -0.00193   0.00000  -0.00550  -0.00552   1.91686
   A22        1.91880  -0.00078   0.00000   0.00324   0.00303   1.92183
   A23        1.90725   0.00347   0.00000   0.02827   0.02839   1.93564
   A24        1.88489  -0.00037   0.00000  -0.00467  -0.00491   1.87998
   A25        1.93942  -0.00072   0.00000   0.00586   0.00568   1.94510
   A26        1.91879  -0.00085   0.00000  -0.00753  -0.00750   1.91129
   A27        1.90550   0.00031   0.00000  -0.00288  -0.00294   1.90256
   A28        1.91619   0.00051   0.00000   0.00643   0.00648   1.92267
   A29        1.89907   0.00195   0.00000   0.01160   0.01167   1.91074
   A30        1.88386  -0.00119   0.00000  -0.01393  -0.01403   1.86983
   A31        1.94441   0.00168   0.00000   0.00913   0.00930   1.95370
   A32        1.90219   0.00000   0.00000   0.00462   0.00465   1.90684
   A33        1.91760   0.00045   0.00000   0.00499   0.00488   1.92247
   A34        1.90626  -0.00142   0.00000  -0.01551  -0.01559   1.89067
   A35        1.91567  -0.00081   0.00000  -0.00016  -0.00028   1.91539
   A36        1.87636   0.00003   0.00000  -0.00365  -0.00368   1.87268
   A37        1.94597  -0.00439   0.00000  -0.02324  -0.02320   1.92277
   A38        1.90634   0.00258   0.00000   0.01458   0.01444   1.92079
   A39        1.91083   0.00208   0.00000   0.01641   0.01628   1.92711
   A40        1.90696   0.00098   0.00000  -0.00222  -0.00215   1.90482
   A41        1.91233  -0.00013   0.00000  -0.00253  -0.00238   1.90995
   A42        1.88021  -0.00100   0.00000  -0.00229  -0.00247   1.87773
   A43        1.84455   0.00626   0.00000   0.02259   0.02243   1.86698
   A44        1.93256  -0.00484   0.00000  -0.02172  -0.02209   1.91047
   A45        2.00015  -0.00043   0.00000   0.00760   0.00788   2.00804
   A46        1.88422   0.00196   0.00000   0.02684   0.02700   1.91122
   A47        1.89049  -0.00412   0.00000  -0.03391  -0.03367   1.85682
   A48        1.90727   0.00145   0.00000   0.00043   0.00047   1.90774
   A49        2.10205  -0.00382   0.00000   0.00289   0.00218   2.10423
   A50        2.27037  -0.00624   0.00000  -0.03543  -0.03627   2.23410
   A51        1.97583   0.00274   0.00000   0.01266   0.01266   1.98849
   A52        2.02790   0.00359   0.00000   0.01812   0.01816   2.04606
    D1       -3.00778   0.00048   0.00000  -0.04351  -0.04274  -3.05052
    D2        0.14414   0.00155   0.00000   0.00000   0.00000   0.14414
    D3        0.15575  -0.00163   0.00000  -0.06014  -0.05975   0.09599
    D4       -2.97552  -0.00055   0.00000  -0.01663  -0.01701  -2.99253
    D5        3.09048   0.00160   0.00000   0.02089   0.02055   3.11103
    D6       -0.03408   0.00181   0.00000  -0.01707  -0.01770  -0.05178
    D7       -0.06288   0.00024   0.00000  -0.02907  -0.03015  -0.09303
    D8        3.09574   0.00045   0.00000  -0.06703  -0.06840   3.02734
    D9        3.10776   0.00336   0.00000   0.03664   0.03531  -3.14012
   D10        0.11840   0.00211   0.00000   0.07299   0.07241   0.19081
   D11       -0.02199   0.00477   0.00000   0.08703   0.08704   0.06505
   D12       -3.01135   0.00352   0.00000   0.12338   0.12414  -2.88721
   D13        0.30387  -0.00306   0.00000  -0.03694  -0.03742   0.26645
   D14        2.96715   0.00242   0.00000   0.01403   0.01259   2.97974
   D15       -2.85433  -0.00329   0.00000   0.00000  -0.00000  -2.85434
   D16       -0.19105   0.00220   0.00000   0.05096   0.05001  -0.14104
   D17       -2.86459   0.00018   0.00000   0.02574   0.02608  -2.83851
   D18        1.38038  -0.00172   0.00000   0.00844   0.00873   1.38911
   D19       -0.85834   0.00191   0.00000   0.05061   0.05026  -0.80808
   D20        0.70506   0.00140   0.00000   0.01538   0.01479   0.71985
   D21       -1.33316  -0.00051   0.00000  -0.00192  -0.00256  -1.33572
   D22        2.71131   0.00312   0.00000   0.04025   0.03897   2.75028
   D23        2.95053   0.00263   0.00000   0.04457   0.04483   2.99536
   D24       -1.22256   0.00144   0.00000   0.03539   0.03557  -1.18700
   D25        0.85448  -0.00060   0.00000   0.01751   0.01774   0.87222
   D26        0.91747   0.00406   0.00000   0.05270   0.05281   0.97029
   D27        3.02756   0.00286   0.00000   0.04352   0.04355   3.07111
   D28       -1.17858   0.00082   0.00000   0.02564   0.02573  -1.15286
   D29       -1.08505   0.00188   0.00000   0.00465   0.00463  -1.08042
   D30        1.02504   0.00069   0.00000  -0.00454  -0.00463   1.02040
   D31        3.10208  -0.00136   0.00000  -0.02241  -0.02246   3.07962
   D32       -2.89369  -0.00100   0.00000  -0.02235  -0.02199  -2.91568
   D33       -0.85762   0.00241   0.00000   0.01118   0.01120  -0.84643
   D34        1.30939   0.00011   0.00000   0.00000   0.00001   1.30940
   D35       -0.89273  -0.00172   0.00000  -0.02672  -0.02674  -0.91948
   D36        1.14333   0.00168   0.00000   0.00681   0.00644   1.14978
   D37       -2.97285  -0.00062   0.00000  -0.00437  -0.00474  -2.97759
   D38        1.11009   0.00161   0.00000   0.01958   0.01970   1.12979
   D39       -3.13703   0.00502   0.00000   0.05311   0.05288  -3.08414
   D40       -0.97002   0.00272   0.00000   0.04193   0.04170  -0.92832
   D41        0.95666   0.00113   0.00000   0.00000   0.00001   0.95667
   D42        3.08161   0.00072   0.00000   0.00691   0.00684   3.08845
   D43       -1.13806  -0.00104   0.00000  -0.01620  -0.01618  -1.15424
   D44       -1.15540   0.00221   0.00000   0.01961   0.01972  -1.13568
   D45        0.96955   0.00181   0.00000   0.02652   0.02655   0.99610
   D46        3.03307   0.00005   0.00000   0.00341   0.00353   3.03660
   D47        3.06197   0.00105   0.00000   0.00638   0.00638   3.06835
   D48       -1.09627   0.00064   0.00000   0.01329   0.01322  -1.08305
   D49        0.96725  -0.00112   0.00000  -0.00982  -0.00980   0.95745
   D50       -0.92193  -0.00089   0.00000   0.00000   0.00001  -0.92192
   D51        1.18270  -0.00160   0.00000  -0.01051  -0.01049   1.17221
   D52       -3.04873  -0.00130   0.00000  -0.00933  -0.00936  -3.05809
   D53       -3.04839   0.00031   0.00000   0.00124   0.00126  -3.04713
   D54       -0.94376  -0.00040   0.00000  -0.00927  -0.00923  -0.95300
   D55        1.10799  -0.00010   0.00000  -0.00809  -0.00810   1.09989
   D56        1.17660   0.00030   0.00000   0.00756   0.00759   1.18419
   D57       -3.00196  -0.00041   0.00000  -0.00295  -0.00291  -3.00487
   D58       -0.95020  -0.00011   0.00000  -0.00177  -0.00178  -0.95198
   D59        0.98922  -0.00154   0.00000  -0.01076  -0.01072   0.97851
   D60        3.09847  -0.00141   0.00000  -0.01872  -0.01880   3.07967
   D61       -1.12979   0.00009   0.00000  -0.00347  -0.00336  -1.13314
   D62       -1.11301  -0.00167   0.00000  -0.01209  -0.01204  -1.12505
   D63        0.99624  -0.00154   0.00000  -0.02005  -0.02012   0.97611
   D64        3.05117  -0.00004   0.00000  -0.00480  -0.00468   3.04649
   D65        3.11714  -0.00040   0.00000   0.00154   0.00157   3.11871
   D66       -1.05680  -0.00027   0.00000  -0.00642  -0.00651  -1.06331
   D67        0.99813   0.00123   0.00000   0.00883   0.00893   1.00706
   D68       -1.05667  -0.00005   0.00000  -0.00428  -0.00414  -1.06082
   D69       -3.12522   0.00134   0.00000  -0.00411  -0.00436  -3.12958
   D70        1.09460   0.00079   0.00000  -0.00088  -0.00080   1.09380
   D71        3.11763  -0.00111   0.00000  -0.00613  -0.00601   3.11161
   D72        1.04908   0.00028   0.00000  -0.00597  -0.00623   1.04285
   D73       -1.01429  -0.00027   0.00000  -0.00273  -0.00267  -1.01696
   D74        1.06146  -0.00040   0.00000  -0.00058  -0.00039   1.06107
   D75       -1.00709   0.00099   0.00000  -0.00042  -0.00061  -1.00770
   D76       -3.07045   0.00044   0.00000   0.00281   0.00294  -3.06751
   D77       -1.17217   0.00846   0.00000   0.00000   0.00001  -1.17216
   D78        3.05684   0.00369   0.00000  -0.00970  -0.00963   3.04721
   D79        1.00821   0.00288   0.00000  -0.02285  -0.02310   0.98511
   D80        0.50095  -0.00817   0.00000  -0.06310  -0.06199   0.43896
   D81       -2.79659  -0.00698   0.00000  -0.10091  -0.10073  -2.89733
         Item               Value     Threshold  Converged?
 Maximum Force            0.037783     0.000450     NO 
 RMS     Force            0.007006     0.000300     NO 
 Maximum Displacement     0.286163     0.001800     NO 
 RMS     Displacement     0.063534     0.001200     NO 
 Predicted change in Energy=-1.513087D-02
 GradGradGradGradGradGradGradGradGradGradGradGradGradGradGradGradGradGrad

                          Input orientation:                          
 ---------------------------------------------------------------------
 Center     Atomic      Atomic             Coordinates (Angstroms)
 Number     Number       Type             X           Y           Z
 ---------------------------------------------------------------------
      1          8           0       -3.505031   -1.314140   -0.535953
      2          7           0       -3.088611   -0.161287   -0.351313
      3          8           0       -3.769909    0.873795   -0.412915
      4          6           0       -1.659782   -0.017300   -0.038800
      5          6           0       -1.288726    1.259663    0.263112
      6          7           0       -0.067675    1.696910    0.619855
      7          6           0        1.212064    0.995480    0.479863
      8          1           0        1.897938    1.527335    1.157326
      9          6           0        1.811104    1.046168   -0.922528
     10          6           0        3.228700    0.464328   -0.879229
     11          6           0        3.237661   -0.946475   -0.277806
     12          6           0        2.540917   -0.992087    1.081740
     13          6           0        1.108216   -0.457228    0.960009
     14          1           0        0.622193   -0.483359    1.944451
     15          7           0        0.407978   -1.359119    0.052434
     16          6           0       -0.857920   -1.220838   -0.163831
     17          1           0       -2.051965    2.030302    0.195379
     18          1           0        0.044827    2.704840    0.663124
     19          1           0        1.184276    0.461459   -1.606226
     20          1           0        1.823903    2.082583   -1.284819
     21          1           0        3.647938    0.446008   -1.891798
     22          1           0        3.868258    1.124098   -0.275805
     23          1           0        2.715700   -1.631815   -0.955825
     24          1           0        4.268253   -1.308213   -0.178289
     25          1           0        2.509365   -2.022358    1.453359
     26          1           0        3.094229   -0.391089    1.816255
     27          1           0       -1.373921   -2.047671   -0.655772
 ---------------------------------------------------------------------
                    Distance matrix (angstroms):
                    1          2          3          4          5
     1  O    0.000000
     2  N    1.239584   0.000000
     3  O    2.207342   1.240707   0.000000
     4  C    2.309525   1.469677   2.320915   0.000000
     5  C    3.489266   2.374069   2.600418   1.363622   0.000000
     6  N    4.713570   3.677244   3.930734   2.430462   1.345145
     7  C    5.349507   4.530428   5.062797   3.089051   2.524030
     8  H    6.335081   5.476596   5.917538   4.058815   3.320556
     9  C    5.829390   5.078528   5.606881   3.736172   3.325698
    10  C    6.973085   6.370126   7.026068   4.983526   4.727011
    11  C    6.757642   6.375237   7.241386   4.990535   5.064367
    12  C    6.266909   5.868174   6.748484   4.455523   4.517377
    13  C    4.924861   4.406871   5.239527   2.975394   3.029639
    14  H    4.886367   4.375424   5.166198   3.059069   3.084904
    15  N    3.957255   3.718058   4.759957   2.466664   3.127492
    16  C    2.674767   2.476647   3.595721   1.451592   2.553577
    17  H    3.719078   2.485270   2.158439   2.097932   1.086742
    18  H    5.494678   4.366028   4.366096   3.287618   2.006716
    19  H    5.127167   4.496686   5.112529   3.282483   3.201139
    20  H    6.363652   5.480801   5.788965   4.254189   3.572358
    21  H    7.490087   6.937074   7.575919   5.640935   5.447597
    22  H    7.770334   7.075023   7.643497   5.649618   5.186839
    23  H    6.242973   6.018133   6.973949   4.753150   5.087424
    24  H    7.781510   7.447740   8.332361   6.068567   6.137494
    25  H    6.374316   6.169098   7.162399   4.860924   5.158861
    26  H    7.066480   6.555812   7.327040   5.116792   4.934321
    27  H    2.257001   2.567354   3.786119   2.141210   3.433666
                    6          7          8          9         10
     6  N    0.000000
     7  C    1.466061   0.000000
     8  H    2.044814   1.101021   0.000000
     9  C    2.516390   1.525817   2.136551   0.000000
    10  C    3.825258   2.489191   2.654895   1.532968   0.000000
    11  C    4.326492   2.906595   3.158195   2.534040   1.533674
    12  C    3.774758   2.465467   2.601273   2.950288   2.537634
    13  C    2.477648   1.533521   2.145014   2.509621   2.954406
    14  H    2.642735   2.163315   2.507983   3.460134   3.957923
    15  N    3.144444   2.524556   3.431090   2.950375   3.485602
    16  C    3.122804   3.100201   4.110068   3.583103   4.477950
    17  H    2.056389   3.435939   4.096346   4.140234   5.611816
    18  H    1.015111   2.077965   2.250505   2.895724   4.187576
    19  H    2.837104   2.153537   3.046740   1.096468   2.169839
    20  H    2.711935   2.161074   2.505564   1.097987   2.180988
    21  H    4.656065   3.443860   3.678168   2.161860   1.096080
    22  H    4.076996   2.764587   2.469539   2.157825   1.099297
    23  H    4.616315   3.350344   3.887721   2.826835   2.159364
    24  H    5.335548   3.883356   3.929706   3.483473   2.171149
    25  H    4.600959   3.426081   3.614111   3.943129   3.484540
    26  H    3.973506   2.692780   2.354921   3.348589   2.831158
    27  H    4.165981   4.151838   5.174268   4.448301   5.248256
                   11         12         13         14         15
    11  C    0.000000
    12  C    1.528364   0.000000
    13  C    2.511192   1.534120   0.000000
    14  H    3.463174   2.164388   1.098192   0.000000
    15  N    2.878617   2.396583   1.458572   2.095846   0.000000
    16  C    4.106343   3.627102   2.389939   2.679452   1.291662
    17  H    6.088124   5.569115   4.093802   4.065571   4.190457
    18  H    4.940814   4.480287   3.349270   3.484216   4.125600
    19  H    2.821945   3.343416   2.726781   3.716978   2.582304
    20  H    3.491129   3.945669   3.464405   4.296085   3.954541
    21  H    2.170785   3.483610   3.924134   4.973496   4.187584
    22  H    2.164470   2.843062   3.412574   4.248576   4.271726
    23  H    1.096287   2.142773   2.762984   3.756771   2.533087
    24  H    1.096757   2.161318   3.464928   4.298856   3.867498
    25  H    2.164457   1.095699   2.157834   2.484172   2.611188
    26  H    2.171202   1.098574   2.163742   2.477077   3.356201
    27  H    4.756278   4.411254   3.361735   3.632176   2.037358
                   16         17         18         19         20
    16  C    0.000000
    17  H    3.482052   0.000000
    18  H    4.112147   2.251739   0.000000
    19  H    3.013501   4.022475   3.388370   0.000000
    20  H    4.400157   4.149225   2.710497   1.772137   0.000000
    21  H    5.105585   6.273372   4.961084   2.480206   2.524660
    22  H    5.277123   6.007684   4.242518   3.068041   2.473094
    23  H    3.683330   6.121030   5.344262   2.673963   3.834096
    24  H    5.126938   7.157546   5.886415   3.831665   4.323974
    25  H    3.820517   6.229952   5.389325   4.157677   4.981769
    26  H    4.497633   5.913856   4.495925   4.011002   4.165266
    27  H    1.091749   4.220671   5.132124   3.707218   5.261252
                   21         22         23         24         25
    21  H    0.000000
    22  H    1.766290   0.000000
    23  H    2.462207   3.063638   0.000000
    24  H    2.529465   2.466909   1.766267   0.000000
    25  H    4.310366   3.838853   2.449341   2.503191   0.000000
    26  H    3.841482   2.696596   3.060574   2.489508   1.770536
    27  H    5.741538   6.138806   4.121646   5.710421   4.419162
                   26         27
    26  H    0.000000
    27  H    5.368384   0.000000
 Symmetry turned off by external request.
 Stoichiometry    C9H13N3O2
 Framework group  C1[X(C9H13N3O2)]
 Deg. of freedom    75
 Full point group                 C1      NOp   1
 Rotational constants (GHZ):           1.6279448           0.4249872           0.3780962
 Standard basis: 6-31G(d) (6D, 7F)
   236 basis functions,   444 primitive gaussians,   236 cartesian basis functions
    52 alpha electrons       52 beta electrons
       nuclear repulsion energy       932.2925452319 Hartrees.
 NAtoms=   27 NActive=   27 NUniq=   27 SFac= 1.00D+00 NAtFMM=   60 NAOKFM=F Big=F
 Integral buffers will be    131072 words long.
 Raffenetti 1 integral format.
 Two-electron integral symmetry is turned off.
 One-electron integrals computed using PRISM.
 NBasis=   236 RedAO= T EigKep=  1.02D-03  NBF=   236
 NBsUse=   236 1.00D-06 EigRej= -1.00D+00 NBFU=   236
 Initial guess from the checkpoint file:  "/home/alexey/tmp/Gau-1572861.chk"
 B after Tr=     0.057788    0.002773    0.016798
         Rot=    0.999997   -0.001803   -0.001555    0.000207 Ang=  -0.27 deg.
 ExpMin= 1.61D-01 ExpMax= 5.48D+03 ExpMxC= 8.25D+02 IAcc=3 IRadAn=         5 AccDes= 0.00D+00
 Harris functional with IExCor=  205 and IRadAn=       5 diagonalized for initial guess.
 HarFok:  IExCor=  205 AccDes= 0.00D+00 IRadAn=         5 IDoV= 1 UseB2=F ITyADJ=14
 ICtDFT=  3500011 ScaDFX=  1.000000  1.000000  1.000000  1.000000
 FoFCou: FMM=F IPFlag=           0 FMFlag=      100000 FMFlg1=           0
         NFxFlg=           0 DoJE=T BraDBF=F KetDBF=T FulRan=T
         wScrn=  0.000000 ICntrl=       500 IOpCl=  0 I1Cent=   200000004 NGrid=           0
         NMat0=    1 NMatS0=      1 NMatT0=    0 NMatD0=    1 NMtDS0=    0 NMtDT0=    0
 Symmetry not used in FoFCou.
 Keep R1 ints in memory in canonical form, NReq=397720213.
 Requested convergence on RMS density matrix=1.00D-08 within 128 cycles.
 Requested convergence on MAX density matrix=1.00D-06.
 Requested convergence on             energy=1.00D-06.
 No special actions if energy rises.
 SCF Done:  E(RHF) =  -661.294820895     A.U. after   15 cycles
            NFock= 15  Conv=0.62D-08     -V/T= 2.0025
 ExpMin= 1.61D-01 ExpMax= 5.48D+03 ExpMxC= 8.25D+02 IAcc=3 IRadAn=         5 AccDes= 0.00D+00
 HarFok:  IExCor=  205 AccDes= 0.00D+00 IRadAn=         5 IDoV=-2 UseB2=F ITyADJ=14
 ICtDFT= 12500011 ScaDFX=  1.000000  1.000000  1.000000  1.000000
 Range of M.O.s used for correlation:    15   236
 NBasis=   236 NAE=    52 NBE=    52 NFC=    14 NFV=     0
 NROrb=    222 NOA=    38 NOB=    38 NVA=   184 NVB=   184
 Fully direct method using O(ONN) memory.
 JobTyp=1 Pass  1:  I=  15 to  52 NPSUse=  4 ParTrn=T ParDer=T DoDerP=T.
 Spin components of T(2) and E(2):
     alpha-alpha T2 =       0.9148146573D-01 E2=     -0.2726041189D+00
     alpha-beta  T2 =       0.4917035517D+00 E2=     -0.1488367509D+01
     beta-beta   T2 =       0.9148146573D-01 E2=     -0.2726041189D+00
 ANorm=    0.1294089055D+01
 E2 =    -0.2033575747D+01 EUMP2 =    -0.66332839664197D+03
          IDoAtm=111111111111111111111111111
          Differentiating once with respect to electric field.
                with respect to dipole field.
          Differentiating once with respect to nuclear coordinates.
 Keep R1 ints in memory in canonical form, NReq=397723379.
          There are     1 degrees of freedom in the 1st order CPHF.  IDoFFX=0 NUNeed=     1.
[...]
                   16         17         18         19         20
    16  C    0.000000
    17  H    3.449172   0.000000
    18  H    4.092928   2.225083   0.000000
    19  H    2.988989   4.034341   3.407057   0.000000
    20  H    4.389202   4.202640   2.772469   1.769355   0.000000
    21  H    5.090547   6.304717   5.010373   2.500171   2.519644
    22  H    5.254949   6.015269   4.283956   3.070504   2.461135
    23  H    3.676504   6.128927   5.380163   2.704036   3.843072
    24  H    5.124194   7.158037   5.922144   3.849182   4.316636
    25  H    3.818588   6.197086   5.403140   4.171074   4.986874
    26  H    4.504321   5.905332   4.534340   4.035012   4.183428
    27  H    1.089644   4.178882   5.089656   3.607821   5.184310
                   21         22         23         24         25
    21  H    0.000000
    22  H    1.758943   0.000000
    23  H    2.469913   3.062615   0.000000
    24  H    2.516780   2.459881   1.764363   0.000000
    25  H    4.312068   3.840041   2.443237   2.519530   0.000000
    26  H    3.847289   2.705030   3.060464   2.493070   1.768666
    27  H    5.656019   6.069572   4.065922   5.673035   4.427525
                   26         27
    26  H    0.000000
    27  H    5.372399   0.000000
 Symmetry turned off by external request.
 Stoichiometry    C9H13N3O2
 Framework group  C1[X(C9H13N3O2)]
 Deg. of freedom    75
 Full point group                 C1      NOp   1
 Rotational constants (GHZ):           1.6550824           0.4203272           0.3739941

 **********************************************************************

            Population analysis using the SCF Density.

 **********************************************************************

 Alpha  occ. eigenvalues --  -20.59303 -20.58967 -15.84791 -15.64103 -15.55871
 Alpha  occ. eigenvalues --  -11.35103 -11.29615 -11.29581 -11.28766 -11.27066
 Alpha  occ. eigenvalues --  -11.23955 -11.23313 -11.22608 -11.22102  -1.57197
 Alpha  occ. eigenvalues --   -1.36777  -1.30931  -1.22918  -1.14758  -1.09855
 Alpha  occ. eigenvalues --   -1.02798  -1.01361  -0.94461  -0.89710  -0.85681
 Alpha  occ. eigenvalues --   -0.82426  -0.78575  -0.77424  -0.75125  -0.71906
 Alpha  occ. eigenvalues --   -0.69726  -0.69542  -0.67896  -0.64802  -0.63841
 Alpha  occ. eigenvalues --   -0.62819  -0.60071  -0.57522  -0.56921  -0.55161
 Alpha  occ. eigenvalues --   -0.54654  -0.50741  -0.50281  -0.48744  -0.48133
 Alpha  occ. eigenvalues --   -0.47401  -0.46290  -0.45953  -0.43736  -0.41854
 Alpha  occ. eigenvalues --   -0.39517  -0.33736
 Alpha virt. eigenvalues --    0.07254   0.11632   0.17382   0.21885   0.23953
 Alpha virt. eigenvalues --    0.25392   0.27396   0.28650   0.29053   0.29707
 Alpha virt. eigenvalues --    0.30640   0.31822   0.32263   0.32783   0.33774
 Alpha virt. eigenvalues --    0.34371   0.35944   0.37475   0.38432   0.40304
 Alpha virt. eigenvalues --    0.41222   0.42343   0.44660   0.45937   0.46385
 Alpha virt. eigenvalues --    0.47563   0.49014   0.54046   0.57301   0.59406
 Alpha virt. eigenvalues --    0.63918   0.69275   0.69532   0.72865   0.74049
 Alpha virt. eigenvalues --    0.75109   0.75714   0.76559   0.78646   0.79288
 Alpha virt. eigenvalues --    0.81299   0.84746   0.85372   0.85772   0.88289
 Alpha virt. eigenvalues --    0.88742   0.91808   0.92083   0.92922   0.94533
 Alpha virt. eigenvalues --    0.95515   0.98180   0.99537   1.01296   1.02263
 Alpha virt. eigenvalues --    1.03206   1.05847   1.06775   1.08037   1.08897
 Alpha virt. eigenvalues --    1.10432   1.11745   1.12235   1.12598   1.13867
 Alpha virt. eigenvalues --    1.14627   1.15107   1.16222   1.17049   1.18410
 Alpha virt. eigenvalues --    1.18709   1.21583   1.22464   1.23370   1.24019
 Alpha virt. eigenvalues --    1.25426   1.25895   1.26685   1.27757   1.29752
 Alpha virt. eigenvalues --    1.30302   1.32573   1.36379   1.37454   1.40286
 Alpha virt. eigenvalues --    1.41888   1.44191   1.48453   1.53049   1.55043
 Alpha virt. eigenvalues --    1.56151   1.59470   1.61278   1.61564   1.66251
 Alpha virt. eigenvalues --    1.68008   1.68467   1.73705   1.76196   1.78705
 Alpha virt. eigenvalues --    1.81104   1.84431   1.87936   1.89305   1.92752
 Alpha virt. eigenvalues --    1.95996   1.96450   1.99536   2.00905   2.01902
 Alpha virt. eigenvalues --    2.04277   2.05620   2.09157   2.09661   2.12125
 Alpha virt. eigenvalues --    2.12790   2.15163   2.19283   2.19860   2.21261
 Alpha virt. eigenvalues --    2.23159   2.24977   2.25249   2.27869   2.28891
 Alpha virt. eigenvalues --    2.31255   2.33409   2.34503   2.36293   2.37778
 Alpha virt. eigenvalues --    2.40679   2.42394   2.43801   2.44656   2.48088
 Alpha virt. eigenvalues --    2.50596   2.51909   2.53623   2.56325   2.60168
 Alpha virt. eigenvalues --    2.62465   2.65942   2.67343   2.69653   2.70568
 Alpha virt. eigenvalues --    2.71608   2.71882   2.75575   2.77884   2.84365
 Alpha virt. eigenvalues --    2.87697   2.88900   2.92545   2.93085   2.96042
 Alpha virt. eigenvalues --    2.98880   3.01103   3.04127   3.06619   3.08013
 Alpha virt. eigenvalues --    3.09703   3.16094   3.20606   3.25232   3.27439
 Alpha virt. eigenvalues --    3.33949   3.37675   3.38304   3.51636   3.65716
 Alpha virt. eigenvalues --    4.13900   4.27780   4.33800   4.38967   4.47030
 Alpha virt. eigenvalues --    4.55822   4.61929   4.62395   4.73135   4.80360
 Alpha virt. eigenvalues --    4.99257   5.00707   5.05261   5.11115
          Condensed to atoms (all electrons):
               1          2          3          4          5          6
     1  O    8.316607   0.304441  -0.082552  -0.083301   0.004584  -0.000015
     2  N    0.304441   5.724225   0.301744   0.260924  -0.054053   0.000982
     3  O   -0.082552   0.301744   8.351599  -0.092291   0.003078   0.000789
     4  C   -0.083301   0.260924  -0.092291   5.237960   0.561049  -0.050056
     5  C    0.004584  -0.054053   0.003078   0.561049   4.714786   0.318791
     6  N   -0.000015   0.000982   0.000789  -0.050056   0.318791   7.178063
     7  C    0.000003  -0.000121   0.000003   0.005689  -0.028490   0.181825
     8  H   -0.000000   0.000002   0.000000  -0.000308   0.003640  -0.049069
     9  C   -0.000000  -0.000005  -0.000000   0.000907  -0.000531  -0.063770
    10  C   -0.000000   0.000000   0.000000  -0.000049  -0.000006   0.003871
    11  C   -0.000000  -0.000000  -0.000000  -0.000021   0.000017  -0.000166
    12  C    0.000000   0.000002  -0.000000  -0.000199  -0.000221   0.003760
    13  C   -0.000018  -0.000007  -0.000003  -0.009629  -0.001453  -0.052566
    14  H   -0.000001  -0.000084   0.000001   0.002044   0.003973  -0.006000
    15  N    0.000527   0.002239  -0.000015  -0.064754  -0.007041   0.001805
    16  C   -0.000306  -0.025310   0.002644   0.321080  -0.053161  -0.000570
    17  H    0.000229  -0.007291   0.017417  -0.023655   0.374652  -0.033808
    18  H    0.000001  -0.000054   0.000013   0.001697  -0.032518   0.337971
    19  H    0.000001  -0.000010   0.000000  -0.001435   0.001824  -0.000699
    20  H    0.000000  -0.000000   0.000000  -0.000060   0.000042  -0.000279
    21  H   -0.000000   0.000000  -0.000000   0.000002   0.000000  -0.000082
    22  H   -0.000000   0.000000  -0.000000  -0.000000  -0.000002  -0.000105
    23  H    0.000000  -0.000000   0.000000   0.000042  -0.000001  -0.000030
    24  H    0.000000   0.000000   0.000000   0.000000  -0.000000   0.000006
    25  H    0.000000  -0.000000   0.000000   0.000024   0.000001  -0.000088
    26  H    0.000000  -0.000000   0.000000   0.000005  -0.000000  -0.000072
    27  H    0.006776  -0.000757   0.000046  -0.065786   0.001887   0.000019
               7          8          9         10         11         12
     1  O    0.000003  -0.000000  -0.000000  -0.000000  -0.000000   0.000000
     2  N   -0.000121   0.000002  -0.000005   0.000000  -0.000000   0.000002
     3  O    0.000003   0.000000  -0.000000   0.000000  -0.000000  -0.000000
     4  C    0.005689  -0.000308   0.000907  -0.000049  -0.000021  -0.000199
     5  C   -0.028490   0.003640  -0.000531  -0.000006   0.000017  -0.000221
     6  N    0.181825  -0.049069  -0.063770   0.003871  -0.000166   0.003760
     7  C    5.026450   0.416835   0.352575  -0.054326  -0.009386  -0.062219
     8  H    0.416835   0.532182  -0.054150   0.000633  -0.000206  -0.002221
     9  C    0.352575  -0.054150   5.161912   0.325470  -0.050988  -0.005183
    10  C   -0.054326   0.000633   0.325470   5.116560   0.337529  -0.060883
    11  C   -0.009386  -0.000206  -0.050988   0.337529   5.120839   0.335505
    12  C   -0.062219  -0.002221  -0.005183  -0.060883   0.335505   5.120221
    13  C    0.330430  -0.036333  -0.060730  -0.000340  -0.050094   0.373153
    14  H   -0.045805  -0.001042   0.004371  -0.000407   0.004227  -0.036656
    15  N   -0.058716   0.003770  -0.014010   0.001416  -0.013350  -0.083380
    16  C   -0.001875  -0.000026  -0.000898  -0.000052   0.000012   0.002290
    17  H    0.001551  -0.000048  -0.000088   0.000002   0.000000   0.000001
    18  H   -0.023691  -0.004093   0.000957  -0.000082   0.000006  -0.000118
    19  H   -0.037030   0.004249   0.390732  -0.031957  -0.002108   0.000680
    20  H   -0.043569  -0.002183   0.399100  -0.034791   0.003932  -0.000441
    21  H    0.004593  -0.000083  -0.036439   0.402314  -0.034883   0.004353
    22  H   -0.004824   0.003517  -0.047071   0.397882  -0.045085  -0.001007
    23  H    0.000624   0.000031  -0.001998  -0.039103   0.399099  -0.037920
    24  H   -0.000139  -0.000100   0.004432  -0.038529   0.402429  -0.038503
    25  H    0.005253  -0.000035  -0.000409   0.004184  -0.033394   0.397996
    26  H   -0.003656   0.001622   0.000985  -0.002232  -0.041557   0.396672
    27  H   -0.000403   0.000008  -0.000052   0.000006   0.000014  -0.000034
              13         14         15         16         17         18
     1  O   -0.000018  -0.000001   0.000527  -0.000306   0.000229   0.000001
     2  N   -0.000007  -0.000084   0.002239  -0.025310  -0.007291  -0.000054
     3  O   -0.000003   0.000001  -0.000015   0.002644   0.017417   0.000013
     4  C   -0.009629   0.002044  -0.064754   0.321080  -0.023655   0.001697
     5  C   -0.001453   0.003973  -0.007041  -0.053161   0.374652  -0.032518
     6  N   -0.052566  -0.006000   0.001805  -0.000570  -0.033808   0.337971
     7  C    0.330430  -0.045805  -0.058716  -0.001875   0.001551  -0.023691
     8  H   -0.036333  -0.001042   0.003770  -0.000026  -0.000048  -0.004093
     9  C   -0.060730   0.004371  -0.014010  -0.000898  -0.000088   0.000957
    10  C   -0.000340  -0.000407   0.001416  -0.000052   0.000002  -0.000082
    11  C   -0.050094   0.004227  -0.013350   0.000012   0.000000   0.000006
    12  C    0.373153  -0.036656  -0.083380   0.002290   0.000001  -0.000118
    13  C    5.038731   0.406093   0.243874  -0.068454  -0.000020   0.003545
    14  H    0.406093   0.519700  -0.036373  -0.004521   0.000051  -0.000085
    15  N    0.243874  -0.036373   6.978734   0.585402  -0.000061  -0.000153
    16  C   -0.068454  -0.004521   0.585402   4.716368   0.001920  -0.000208
    17  H   -0.000020   0.000051  -0.000061   0.001920   0.376171  -0.003032
    18  H    0.003545  -0.000085  -0.000153  -0.000208  -0.003032   0.317515
    19  H   -0.007548   0.000089   0.007277   0.002862   0.000018  -0.000150
    20  H    0.004452  -0.000066   0.000118  -0.000043  -0.000003   0.001462
    21  H   -0.000441   0.000010  -0.000050   0.000004  -0.000000   0.000001
    22  H    0.000010  -0.000053   0.000025  -0.000001   0.000000   0.000003
    23  H   -0.007689   0.000003   0.008819   0.000131   0.000000   0.000000
    24  H    0.004691  -0.000058   0.000127   0.000007   0.000000  -0.000000
    25  H   -0.035538  -0.002833   0.000771  -0.000032  -0.000000   0.000002
    26  H   -0.047692  -0.001030   0.004986  -0.000041   0.000000  -0.000000
    27  H    0.004880  -0.000175  -0.040394   0.405936  -0.000092   0.000001
              19         20         21         22         23         24
     1  O    0.000001   0.000000  -0.000000  -0.000000   0.000000   0.000000
     2  N   -0.000010  -0.000000   0.000000   0.000000  -0.000000   0.000000
     3  O    0.000000   0.000000  -0.000000  -0.000000   0.000000   0.000000
     4  C   -0.001435  -0.000060   0.000002  -0.000000   0.000042   0.000000
     5  C    0.001824   0.000042   0.000000  -0.000002  -0.000001  -0.000000
     6  N   -0.000699  -0.000279  -0.000082  -0.000105  -0.000030   0.000006
     7  C   -0.037030  -0.043569   0.004593  -0.004824   0.000624  -0.000139
     8  H    0.004249  -0.002183  -0.000083   0.003517   0.000031  -0.000100
     9  C    0.390732   0.399100  -0.036439  -0.047071  -0.001998   0.004432
    10  C   -0.031957  -0.034791   0.402314   0.397882  -0.039103  -0.038529
    11  C   -0.002108   0.003932  -0.034883  -0.045085   0.399099   0.402429
    12  C    0.000680  -0.000441   0.004353  -0.001007  -0.037920  -0.038503
    13  C   -0.007548   0.004452  -0.000441   0.000010  -0.007689   0.004691
    14  H    0.000089  -0.000066   0.000010  -0.000053   0.000003  -0.000058
    15  N    0.007277   0.000118  -0.000050   0.000025   0.008819   0.000127
    16  C    0.002862  -0.000043   0.000004  -0.000001   0.000131   0.000007
    17  H    0.000018  -0.000003  -0.000000   0.000000   0.000000   0.000000
    18  H   -0.000150   0.001462   0.000001   0.000003   0.000000  -0.000000
    19  H    0.505646  -0.025339  -0.002794   0.003969   0.001520  -0.000068
    20  H   -0.025339   0.544621  -0.002737  -0.002991  -0.000043  -0.000084
    21  H   -0.002794  -0.002737   0.523925  -0.027374  -0.002882  -0.002249
    22  H    0.003969  -0.002991  -0.027374   0.569957   0.004127  -0.003647
    23  H    0.001520  -0.000043  -0.002882   0.004127   0.499061  -0.025465
    24  H   -0.000068  -0.000084  -0.002249  -0.003647  -0.025465   0.537703
    25  H   -0.000030   0.000012  -0.000086  -0.000081  -0.002294  -0.002323
    26  H    0.000021  -0.000029  -0.000080   0.002370   0.004072  -0.003015
    27  H    0.000078   0.000000  -0.000000   0.000000  -0.000038  -0.000000
              25         26         27
     1  O    0.000000   0.000000   0.006776
     2  N   -0.000000  -0.000000  -0.000757
     3  O    0.000000   0.000000   0.000046
     4  C    0.000024   0.000005  -0.065786
     5  C    0.000001  -0.000000   0.001887
     6  N   -0.000088  -0.000072   0.000019
     7  C    0.005253  -0.003656  -0.000403
     8  H   -0.000035   0.001622   0.000008
     9  C   -0.000409   0.000985  -0.000052
    10  C    0.004184  -0.002232   0.000006
    11  C   -0.033394  -0.041557   0.000014
    12  C    0.397996   0.396672  -0.000034
    13  C   -0.035538  -0.047692   0.004880
    14  H   -0.002833  -0.001030  -0.000175
    15  N    0.000771   0.004986  -0.040394
    16  C   -0.000032  -0.000041   0.405936
    17  H   -0.000000   0.000000  -0.000092
    18  H    0.000002  -0.000000   0.000001
    19  H   -0.000030   0.000021   0.000078
    20  H    0.000012  -0.000029   0.000000
    21  H   -0.000086  -0.000080  -0.000000
    22  H   -0.000081   0.002370   0.000000
    23  H   -0.002294   0.004072  -0.000038
    24  H   -0.002323  -0.003015  -0.000000
    25  H    0.506030  -0.023948  -0.000016
    26  H   -0.023948   0.562430   0.000001
    27  H   -0.000016   0.000001   0.434032
 Mulliken charges:
               1
     1  O   -0.466976
     2  N    0.493133
     3  O   -0.502471
     4  C    0.000122
     5  C    0.189154
     6  N   -0.770506
     7  C    0.048419
     8  H    0.183409
     9  C   -0.305117
    10  C   -0.327109
    11  C   -0.322372
    12  C   -0.305648
    13  C   -0.031304
    14  H    0.194628
    15  N   -0.521593
    16  C    0.116843
    17  H    0.296087
    18  H    0.401013
    19  H    0.190206
    20  H    0.158919
    21  H    0.174977
    22  H    0.150384
    23  H    0.199933
    24  H    0.164789
    25  H    0.186831
    26  H    0.150188
    27  H    0.254061
 Sum of Mulliken charges =  -0.00000
 Mulliken charges with hydrogens summed into heavy atoms:
               1
     1  O   -0.466976
     2  N    0.493133
     3  O   -0.502471
     4  C    0.000122
     5  C    0.485242
     6  N   -0.369494
     7  C    0.231828
     9  C    0.044008
    10  C   -0.001748
    11  C    0.042350
    12  C    0.031370
    13  C    0.163324
    15  N   -0.521593
    16  C    0.370904
 Electronic spatial extent (au):  <R**2>=           2999.7942
 Charge=             -0.0000 electrons
 Dipole moment (field-independent basis, Debye):
    X=              5.4383    Y=              4.6995    Z=              1.1864  Tot=              7.2848
 Quadrupole moment (field-independent basis, Debye-Ang):
   XX=           -105.8483   YY=            -78.9661   ZZ=            -82.1833
   XY=             -1.0944   XZ=             -1.2703   YZ=              0.7486
 Traceless Quadrupole moment (field-independent basis, Debye-Ang):
   XX=            -16.8491   YY=             10.0331   ZZ=              6.8160
   XY=             -1.0944   XZ=             -1.2703   YZ=              0.7486
 Octapole moment (field-independent basis, Debye-Ang**2):
  XXX=             91.0383  YYY=             35.3813  ZZZ=             -2.7103  XYY=             -5.1622
  XXY=              7.2659  XXZ=             10.9335  XZZ=             -8.2160  YZZ=             -1.0281
  YYZ=              5.5259  XYZ=              1.7837
 Hexadecapole moment (field-independent basis, Debye-Ang**3):
 XXXX=          -3350.0795 YYYY=           -601.1220 ZZZZ=           -315.0046 XXXY=             -3.7025
 XXXZ=            -68.9617 YYYX=              2.8697 YYYZ=             19.3921 ZZZX=            -26.7787
 ZZZY=              4.2034 XXYY=           -624.1644 XXZZ=           -526.6187 YYZZ=           -162.6371
 XXYZ=             -5.6735 YYXZ=             -7.6394 ZZXY=              6.9319
 N-N= 9.310862034076D+02 E-N=-3.408864472136D+03  KE= 6.596257415225D+02
 Unable to Open any file for archive entry.
 1\1\GINC-LOTUS\FOpt\RMP2-FC\6-31G(d)\C9H13N3O2\ALEXEY\02-Jul-2023\0\\#
 MP2/6-31G* SCF=Tight Opt=(ModRedun, MaxCycle=20 ) NoSymm\\MolName:\\0,
 1\O,-3.5143355361,-1.341065643,-0.5120940305\N,-3.1122590761,-0.195615
 2683,-0.2307419554\O,-3.8649056971,0.7940530167,-0.144797742\C,-1.6874
 080287,-0.0328903654,0.022985633\C,-1.288724518,1.2573251185,0.2655668
 11\N,-0.056769557,1.7132195365,0.5469856094\C,1.2168910007,1.012791218
 7,0.4446669222\H,1.8877568493,1.5383313453,1.1396600571\C,1.8492480351
 ,1.0480165939,-0.9445657117\C,3.2566771129,0.4456808063,-0.8590974394\
 C,3.2456036978,-0.9596288766,-0.2513629666\C,2.5169974843,-0.994187597
 8,1.0937764973\C,1.094493268,-0.445143307,0.9329042924\H,0.5640641814,
 -0.4439781671,1.8966932495\N,0.4121559721,-1.3330996264,-0.0025349357\
 C,-0.8467518648,-1.1815184486,-0.2569622484\H,-2.0471940252,2.02644036
 4,0.1489054764\H,0.0126098084,2.7224685758,0.6219245269\H,1.2214836092
 ,0.4770290762,-1.6374257024\H,1.8930298586,2.0812867786,-1.3118514127\
 H,3.7115184796,0.4243200584,-1.8560630435\H,3.8842324582,1.1058596184,
 -0.2437493821\H,2.7367672325,-1.648807316,-0.9327671961\H,4.2740263751
 ,-1.3203490352,-0.13156408\H,2.4560229345,-2.0222366849,1.4653858799\H
 ,3.0608385511,-0.4039505017,1.8442363446\H,-1.3160886058,-1.9643612691
 ,-0.8521134531\\Version=ES64L-G16RevC.02\HF=-661.2970471\MP2=-663.3315
 598\RMSD=4.352e-09\RMSF=2.083e-03\Dipole=1.9909568,1.6565212,0.4290681
 \PG=C01 [X(C9H13N3O2)]\\@
 The archive entry for this job was punched.


 ORIGINALITY CONSISTS NOT IN SAYING WHAT NO ONE HAS EVER SAID BEFORE, 
 BUT IN SAYING WHAT YOU THINK YOUR SELF.

                                    -- JAMES F. STEPHEN
 Job cpu time:       0 days  0 hours 56 minutes 55.0 seconds.
 Elapsed time:       0 days  0 hours 17 minutes 15.9 seconds.
 File lengths (MBytes):  RWF=     36 Int=      0 D2E=      0 Chk=      7 Scr=      1
 Normal termination of Gaussian 16 at Sun Jul  2 20:23:39 2023.
